 Gaussian 16, Revision A.03,
 Gaussian 16:  ES64L-G16RevA.03 25-Dec-2016

 --------------------------------
 #p wB97XD/Def2SVP td=(nstates=5)
 --------------------------------

 --------------------------------
 TDDFT excited states in gaussian
 --------------------------------
 Symbolic Z-matrix:
 Charge =  0 Multiplicity = 1

                         Standard orientation:
 ---------------------------------------------------------------------
 Center     Atomic      Atomic             Coordinates (Angstroms)
 Number     Number       Type             X           Y           Z
 ---------------------------------------------------------------------
      1         12           0       29.010166    0.096697   -0.139595
      2          6           0       25.598525   -0.674322   -0.271927
      3          6           0       28.210967    2.911311   -1.983479
      4          6           0       32.173085    1.098928    0.225749
      5          6           0       29.430225   -2.292517    2.377465
      6          7           0       26.938120    1.118193   -0.881954
      7          6           0       25.727806    0.528025   -0.908672
      8          6           0       24.663900    1.361766   -1.581433
      9          6           0       25.648066    2.326488   -2.346455
     10          6           0       27.022708    2.186153   -1.700698
     11          6           0       25.759011    1.898769   -3.834253
     12          6           0       23.666903    1.924895   -0.560718
     13          6           0       24.172779    2.439620    0.802964
     14          1           0       23.665775    3.812994    1.226845
     15          7           0       30.043657    1.740037   -0.784640
     16          6           0       29.551943    2.703992   -1.624358
     17          6           0       30.678395    3.404596   -2.254741
     18          6           0       31.869136    3.016463   -1.519659
     19          6           0       31.374360    1.897939   -0.660281
     20          6           0       30.484139    4.616782   -3.243969
     21          6           0       33.265106    3.632995   -1.638940
     22          8           0       33.505241    4.440278   -2.492980
     23          6           0       34.361876    3.194023   -0.712186
     24          7           0       30.526231   -0.419435    1.330337
     25          6           0       31.844908    0.058873    1.217832
     26          6           0       32.838376   -0.613403    2.257235
     27          6           0       31.905414   -1.754252    2.887029
     28          6           0       30.524525   -1.510626    2.122360
     29          6           0       34.279028   -1.148046    1.777143
     30          6           0       31.756072   -1.789442    4.476193
     31          6           0       31.593988   -3.302736    4.995499
     32          7           0       27.813196   -1.292894    0.862279
     33          6           0       28.150124   -2.253933    1.793663
     34          6           0       26.983923   -3.085309    2.065805
     35          6           0       25.934867   -2.588002    1.250255
     36          6           0       26.476067   -1.429760    0.584133
     37          6           0       26.951247   -4.341418    2.896470
     38          6           0       24.490289   -2.649145    0.853675
     39          8           0       23.590531   -3.338074    1.280190
     40          6           0       24.290296   -1.450637   -0.168325
     41          6           0       23.874977   -2.066953   -1.475890
     42          8           0       22.718625   -2.497046   -1.713948
     43          8           0       24.906317   -1.945512   -2.395866
     44          6           0       24.571482   -2.278808   -3.740043
     45          1           0       27.977612    3.750704   -2.641955
     46          1           0       33.259258    1.201267    0.277387
     47          1           0       29.626699   -3.158329    3.013450
     48          1           0       24.146112    0.803125   -2.360896
     49          1           0       25.415051    3.390389   -2.355681
     50          1           0       26.781466    2.130050   -4.133895
     51          1           0       24.974481    2.367313   -4.426778
     52          1           0       25.734945    0.837975   -4.085698
     53          1           0       23.019978    1.089778   -0.293846
     54          1           0       23.085819    2.705511   -1.051864
     55          1           0       25.257871    2.531983    0.763782
     56          1           0       23.832765    1.746797    1.572158
     57          1           0       30.223535    5.563294   -2.769583
     58          1           0       29.720850    4.366262   -3.980747
     59          1           0       31.322187    4.834053   -3.905216
     60          1           0       35.250264    3.819410   -0.806120
     61          1           0       34.661572    2.156696   -0.862639
     62          1           0       33.938641    3.439662    0.262154
     63          1           0       32.961471    0.220692    2.947034
     64          1           0       32.241226   -2.745160    2.582722
     65          1           0       34.980415   -0.322580    1.892933
     66          1           0       34.253784   -1.492149    0.743561
     67          1           0       34.552913   -2.001692    2.397460
     68          1           0       30.819134   -1.330510    4.791631
     69          1           0       32.580441   -1.265168    4.960200
     70          1           0       30.636717   -3.442900    5.497747
     71          1           0       32.391346   -3.529571    5.702614
     72          1           0       31.540605   -4.109738    4.265560
     73          1           0       27.271687   -4.092242    3.907502
     74          1           0       27.646115   -5.071911    2.481620
     75          1           0       25.948152   -4.759893    2.977157
     76          1           0       23.408957   -0.932334    0.208781
     77          1           0       25.419950   -2.055679   -4.386489
     78          1           0       23.628705   -1.819684   -4.037999
     79          1           0       24.472599   -3.354920   -3.882288
     80         12           0      -28.844501    0.512503    0.183499
     81          6           0      -25.823062   -1.144466    0.077076
     82          6           0      -29.729084   -1.343779   -2.749012
     83          6           0      -31.603748    2.241561   -0.040272
     84          6           0      -27.731880    2.471779    2.808097
     85          7           0      -27.738811   -0.945530   -1.305147
     86          6           0      -26.638050   -1.597994   -0.971209
     87          6           0      -26.491022   -2.904186   -1.801775
     88          6           0      -27.440060   -2.563407   -3.003501
     89          6           0      -28.400205   -1.548128   -2.363230
     90          6           0      -26.663093   -1.961720   -4.228054
     91          6           0      -27.000586   -4.047166   -0.895822
     92          6           0      -26.825613   -5.475088   -1.430473
     93          1           0      -26.417721   -5.704807   -2.871881
     94          7           0      -30.504090    0.452737   -1.067146
     95          6           0      -30.674231   -0.419470   -2.196858
     96          6           0      -32.053568   -0.245762   -2.631262
     97          6           0      -32.642219    0.728050   -1.765278
     98          6           0      -31.567939    1.230014   -0.909717
     99          6           0      -32.734923   -1.049502   -3.800851
    100          6           0      -34.145371    1.158713   -1.714157
    101          8           0      -34.444347    2.079707   -1.004504
    102          6           0      -35.164570    0.463726   -2.557353
    103          7           0      -29.610527    2.087974    1.309523
    104          6           0      -30.803537    2.662092    1.034990
    105          6           0      -31.118781    3.857720    1.933092
    106          6           0      -29.934567    3.829967    2.927028
    107          6           0      -29.014185    2.705691    2.299389
    108          6           0      -31.273250    5.239656    1.198011
    109          6           0      -30.262415    3.704101    4.392985
    110          6           0      -31.276574    2.652020    4.903062
    111          7           0      -27.154324    0.711599    1.267806
    112          6           0      -26.826099    1.530307    2.310245
    113          6           0      -25.524227    1.112936    2.786460
    114          6           0      -25.056160    0.025036    1.972021
    115          6           0      -26.116424   -0.157421    1.042476
    116          6           0      -24.810555    1.748800    3.938407
    117          6           0      -23.985639   -0.868965    1.683147
    118          8           0      -22.853341   -1.032545    2.187600
    119          6           0      -24.392660   -1.472549    0.230527
    120          6           0      -23.950850   -2.936925    0.231025
    121          8           0      -24.239570   -3.736226    1.037266
    122          8           0      -23.130106   -3.128245   -0.843869
    123          6           0      -22.872778   -4.488644   -1.269464
    124          1           0      -29.964659   -1.863805   -3.679400
    125          1           0      -32.484929    2.883797   -0.099791
    126          1           0      -27.314696    3.066084    3.622783
    127          1           0      -25.480920   -3.035384   -2.189546
    128          1           0      -27.931139   -3.513885   -3.213534
    129          1           0      -26.572521   -2.719287   -5.005534
    130          1           0      -25.687005   -1.631123   -3.872486
    131          1           0      -27.183913   -1.134105   -4.709698
    132          1           0      -28.077769   -3.920044   -0.791202
    133          1           0      -26.644244   -3.947757    0.129020
    134          1           0      -27.602475   -6.159322   -1.088549
    135          1           0      -26.019883   -5.888116   -0.823300
    136          1           0      -33.235167   -0.396545   -4.516660
    137          1           0      -33.408760   -1.755052   -3.315068
    138          1           0      -31.990166   -1.676598   -4.292428
    139          1           0      -36.068802    0.591112   -1.961758
    140          1           0      -35.008703   -0.613483   -2.603400
    141          1           0      -35.209671    0.640618   -3.631923
    142          1           0      -32.059703    3.601625    2.419592
    143          1           0      -29.280420    4.696819    2.833704
    144          1           0      -30.867046    5.981208    1.885391
    145          1           0      -32.355592    5.329742    1.103381
    146          1           0      -30.840516    5.190544    0.198845
    147          1           0      -30.839673    4.617367    4.533313
    148          1           0      -29.429368    3.656305    5.095106
    149          1           0      -32.178067    3.004445    5.402514
    150          1           0      -30.854432    2.051882    5.709088
    151          1           0      -31.611533    2.042446    4.063696
    152          1           0      -23.844630    1.247713    3.994881
    153          1           0      -25.335253    1.529285    4.869218
    154          1           0      -24.765649    2.837248    3.916088
    155          1           0      -23.870929   -0.840002   -0.487951
    156          1           0      -21.795959   -4.324790   -1.225661
    157          1           0      -23.350991   -4.752577   -2.212972
    158          1           0      -23.134703   -5.248767   -0.532995
 ---------------------------------------------------------------------

 SCF Done:  E(RwB97XD) =  -4070.60263926     A.U. after   20 cycles

 Excitation energies and oscillator strengths:

 Excited State   1:      Singlet-A      1.6762 eV  739.66 nm  f=0.3753  <S**2>=0.000
     310 -> 316       -0.20181
     312 -> 314        0.67869
     310 <- 316       -0.12039
 This state for optimization and/or second-order correction.
 Total Energy, E(TD-HF/TD-DFT) =  -4070.54103855
 Copying the excited state density for this state as the 1-particle RhoCI density.

 Excited State   2:      Singlet-A      1.6940 eV  731.90 nm  f=0.3549  <S**2>=0.000
     309 -> 315        0.19919
     311 -> 313        0.67857
     309 <- 315        0.11861

 Excited State   3:      Singlet-A      2.1629 eV  573.24 nm  f=0.0894  <S**2>=0.000
     310 -> 314        0.63320
     312 -> 316        0.30172

 Excited State   4:      Singlet-A      2.1842 eV  567.64 nm  f=0.1017  <S**2>=0.000
     309 -> 313        0.63340
     311 -> 315       -0.30084

 Excited State   5:      Singlet-A      3.3460 eV  370.54 nm  f=0.0457  <S**2>=0.000
     302 -> 314        0.24658
     302 -> 318       -0.17747
     305 -> 314        0.41119
     305 -> 318       -0.24611
     305 -> 321        0.11263
     306 -> 314        0.15705
     308 -> 314       -0.18575
     312 -> 316       -0.18103

 The electronic state is 1-A.
 Alpha  occ. eigenvalues --  -46.96727 -46.94593 -19.31235 -19.29617 -19.25176
 Alpha  occ. eigenvalues --  -19.24974 -19.24557 -19.24115 -19.24066 -19.24053
 Alpha  occ. eigenvalues --  -14.46828 -14.46399 -14.46309 -14.46268 -14.45123
 Alpha  occ. eigenvalues --  -14.44033 -14.43890 -14.43886 -10.43837 -10.42759
 Alpha  occ. eigenvalues --  -10.39795 -10.39277 -10.39184 -10.39127 -10.36943
 Alpha  occ. eigenvalues --  -10.35939 -10.35692 -10.35191 -10.35171 -10.34948
 Alpha  occ. eigenvalues --  -10.34729 -10.34615 -10.34567 -10.34548 -10.34426
 Alpha  occ. eigenvalues --  -10.34295 -10.34185 -10.33946 -10.33789 -10.33666
 Alpha  occ. eigenvalues --  -10.33547 -10.33362 -10.33239 -10.33008 -10.32944
 Alpha  occ. eigenvalues --  -10.32782 -10.32728 -10.32577 -10.32561 -10.32490
 Alpha  occ. eigenvalues --  -10.32469 -10.32435 -10.32154 -10.32138 -10.32131
 Alpha  occ. eigenvalues --  -10.32026 -10.31893 -10.31831 -10.31804 -10.31787
 Alpha  occ. eigenvalues --  -10.31753 -10.31721 -10.31714 -10.31688 -10.31615
 Alpha  occ. eigenvalues --  -10.31606 -10.31529 -10.30803 -10.30689 -10.30569
 Alpha  occ. eigenvalues --  -10.30505 -10.30373 -10.30317 -10.30269 -10.30141
 Alpha  occ. eigenvalues --  -10.30115 -10.30106 -10.30102 -10.30097 -10.30040
 Alpha  occ. eigenvalues --  -10.29920 -10.29836 -10.29773 -10.29690 -10.29058
 Alpha  occ. eigenvalues --  -10.28912  -3.22573  -3.20658  -1.96116  -1.95705
 Alpha  occ. eigenvalues --   -1.95524  -1.94251  -1.93802  -1.93618  -1.19770
 Alpha  occ. eigenvalues --   -1.18617  -1.13740  -1.13685  -1.12871  -1.12002
 Alpha  occ. eigenvalues --   -1.10275  -1.09235  -1.07206  -1.06785  -1.06071
 Alpha  occ. eigenvalues --   -1.05950  -1.05097  -1.04940  -1.04077  -1.03894
 Alpha  occ. eigenvalues --   -0.95026  -0.94454  -0.91196  -0.90882  -0.90579
 Alpha  occ. eigenvalues --   -0.90376  -0.90286  -0.89577  -0.89252  -0.89232
 Alpha  occ. eigenvalues --   -0.88384  -0.87967  -0.87658  -0.87581  -0.86749
 Alpha  occ. eigenvalues --   -0.85970  -0.85596  -0.85237  -0.84603  -0.84303
 Alpha  occ. eigenvalues --   -0.83795  -0.83640  -0.83360  -0.82740  -0.82331
 Alpha  occ. eigenvalues --   -0.82232  -0.79925  -0.79484  -0.79251  -0.79210
 Alpha  occ. eigenvalues --   -0.78719  -0.78621  -0.78312  -0.77809  -0.77424
 Alpha  occ. eigenvalues --   -0.77269  -0.74781  -0.74664  -0.74029  -0.73968
 Alpha  occ. eigenvalues --   -0.72159  -0.71848  -0.71323  -0.70849  -0.70211
 Alpha  occ. eigenvalues --   -0.70068  -0.69196  -0.68169  -0.67815  -0.67141
 Alpha  occ. eigenvalues --   -0.66846  -0.66841  -0.66831  -0.66609  -0.66266
 Alpha  occ. eigenvalues --   -0.66111  -0.65681  -0.64334  -0.62464  -0.62069
 Alpha  occ. eigenvalues --   -0.61612  -0.61257  -0.61129  -0.60930  -0.60807
 Alpha  occ. eigenvalues --   -0.60143  -0.60140  -0.59863  -0.59702  -0.59324
 Alpha  occ. eigenvalues --   -0.58255  -0.58108  -0.58087  -0.58009  -0.57620
 Alpha  occ. eigenvalues --   -0.57466  -0.57266  -0.56992  -0.56199  -0.56178
 Alpha  occ. eigenvalues --   -0.55641  -0.55609  -0.55448  -0.55126  -0.55008
 Alpha  occ. eigenvalues --   -0.54881  -0.54750  -0.54299  -0.54189  -0.53987
 Alpha  occ. eigenvalues --   -0.53837  -0.53696  -0.53612  -0.53342  -0.53017
 Alpha  occ. eigenvalues --   -0.52698  -0.52635  -0.52630  -0.52467  -0.52049
 Alpha  occ. eigenvalues --   -0.51999  -0.51895  -0.51890  -0.51668  -0.51605
 Alpha  occ. eigenvalues --   -0.51487  -0.51477  -0.51235  -0.51196  -0.50874
 Alpha  occ. eigenvalues --   -0.50736  -0.50583  -0.50287  -0.50163  -0.50063
 Alpha  occ. eigenvalues --   -0.49882  -0.49546  -0.49496  -0.49258  -0.49164
 Alpha  occ. eigenvalues --   -0.48871  -0.48806  -0.48619  -0.48531  -0.48450
 Alpha  occ. eigenvalues --   -0.48247  -0.47994  -0.47904  -0.47740  -0.47610
 Alpha  occ. eigenvalues --   -0.47521  -0.47440  -0.47237  -0.47150  -0.47103
 Alpha  occ. eigenvalues --   -0.46926  -0.46818  -0.46602  -0.46165  -0.45885
 Alpha  occ. eigenvalues --   -0.45797  -0.45780  -0.45589  -0.45380  -0.45276
 Alpha  occ. eigenvalues --   -0.45222  -0.45188  -0.44919  -0.44894  -0.44836
 Alpha  occ. eigenvalues --   -0.44688  -0.44613  -0.44251  -0.44232  -0.44158
 Alpha  occ. eigenvalues --   -0.44037  -0.43938  -0.43915  -0.43774  -0.43623
 Alpha  occ. eigenvalues --   -0.43557  -0.43320  -0.43114  -0.42837  -0.42250
 Alpha  occ. eigenvalues --   -0.42100  -0.41810  -0.41479  -0.41309  -0.40995
 Alpha  occ. eigenvalues --   -0.40841  -0.40282  -0.40068  -0.39840  -0.39548
 Alpha  occ. eigenvalues --   -0.39340  -0.39216  -0.39154  -0.38779  -0.38364
 Alpha  occ. eigenvalues --   -0.38232  -0.37741  -0.37162  -0.36663  -0.36391
 Alpha  occ. eigenvalues --   -0.35929  -0.35557  -0.35375  -0.33654  -0.33546
 Alpha  occ. eigenvalues --   -0.33216  -0.33007  -0.32915  -0.32805  -0.32489
 Alpha  occ. eigenvalues --   -0.32007  -0.31848  -0.31495  -0.25945  -0.25716
 Alpha  occ. eigenvalues --   -0.23202  -0.22889
 Alpha virt. eigenvalues --   -0.06976  -0.06775  -0.00165   0.00040   0.02195
 Alpha virt. eigenvalues --    0.02252   0.03938   0.04157   0.04730   0.06119
 Alpha virt. eigenvalues --    0.06671   0.07912   0.08016   0.08239   0.08520

 Mulliken charges:
               1
     1  Mg   0.954593
     2  C    0.126732
     3  C   -0.086859
     4  C   -0.102755
     5  C   -0.086876
     6  N   -0.280236
     7  C   -0.106124
     8  C    0.024783
     9  C   -0.115430
    10  C    0.019678
    11  C    0.018036
    12  C    0.021127
    13  C   -0.133161
    14  H    0.032724
    15  N   -0.458932
    16  C    0.175380
    17  C   -0.148380
    18  C   -0.099922
    19  C    0.211751
    20  C    0.047925
    21  C    0.038178
    22  O   -0.200628
    23  C   -0.012803
    24  N   -0.367937
    25  C    0.007602
    26  C   -0.062947
    27  C   -0.084177
    28  C    0.069781
    29  C    0.005024
    30  C   -0.009943
    31  C   -0.094040
    32  N   -0.439707
    33  C    0.139014
    34  C   -0.213556
    35  C   -0.016294
    36  C    0.078922
    37  C    0.071705
    38  C    0.140036
    39  O   -0.173407
    40  C   -0.211095
    41  C    0.295885
    42  O   -0.266909
    43  O   -0.352100
    44  C    0.141313
    45  H    0.007229
    46  H   -0.025141
    47  H   -0.020856
    48  H    0.029494
    49  H    0.028326
    50  H    0.024547
    51  H    0.050172
    52  H    0.027436
    53  H    0.036977
    54  H    0.046196
    55  H    0.070682
    56  H    0.060476
    57  H    0.063269
    58  H    0.025795
    59  H    0.056048
    60  H    0.046981
    61  H    0.080137
    62  H    0.053737
    63  H    0.053696
    64  H    0.040264
    65  H    0.049430
    66  H    0.047499
    67  H    0.050466
    68  H    0.049761
    69  H    0.043972
    70  H    0.038434
    71  H    0.044441
    72  H    0.040042
    73  H    0.037449
    74  H    0.051950
    75  H    0.058900
    76  H    0.085134
    77  H    0.049502
    78  H    0.054978
    79  H    0.046606
    80  Mg   0.965913
    81  C   -0.025625
    82  C   -0.077044
    83  C   -0.087966
    84  C   -0.117725
    85  N   -0.288260
    86  C   -0.035895
    87  C   -0.084328
    88  C   -0.089572
    89  C    0.019551
    90  C    0.040473
    91  C    0.000369
    92  C   -0.089329
    93  H    0.044115
    94  N   -0.478892
    95  C    0.175843
    96  C   -0.189369
    97  C   -0.081142
    98  C    0.188879
    99  C    0.062368
   100  C    0.064889
   101  O   -0.213744
   102  C   -0.007156
   103  N   -0.341956
   104  C    0.014418
   105  C   -0.099122
   106  C   -0.054432
   107  C    0.091214
   108  C    0.035514
   109  C   -0.009977
   110  C   -0.072594
   111  N   -0.486683
   112  C    0.144564
   113  C   -0.184378
   114  C   -0.031081
   115  C    0.180445
   116  C    0.067904
   117  C    0.153437
   118  O   -0.233704
   119  C   -0.147741
   120  C    0.243160
   121  O   -0.185902
   122  O   -0.368645
   123  C    0.110450
   124  H    0.003774
   125  H    0.009591
   126  H   -0.005490
   127  H    0.019588
   128  H    0.022931
   129  H    0.039831
   130  H    0.043884
   131  H    0.040344
   132  H    0.025766
   133  H    0.065906
   134  H    0.042722
   135  H    0.038155
   136  H    0.059059
   137  H    0.057765
   138  H    0.030221
   139  H    0.058144
   140  H    0.020529
   141  H    0.069212
   142  H    0.047904
   143  H    0.031232
   144  H    0.046306
   145  H    0.047887
   146  H    0.054221
   147  H    0.029210
   148  H    0.040705
   149  H    0.032770
   150  H    0.032904
   151  H    0.039579
   152  H    0.062290
   153  H    0.042950
   154  H    0.047412
   155  H    0.085740
   156  H    0.070149
   157  H    0.062615
   158  H    0.062953
 Sum of Mulliken charges =  -0.00000

 Dipole moment (field-independent basis, Debye):
    X=              1.9637    Y=             -0.3337    Z=             -3.4227  Tot=              3.9601
 Quadrupole moment (field-independent basis, Debye-Ang):
   XX=            -68.5959   YY=           -508.8813   ZZ=           -476.8032
   XY=            -15.5688   XZ=             80.0655   YZ=             29.5246

 Normal termination of Gaussian 16 at Sun Sep 19 18:22:11 2021.
