 Gaussian 16, Revision A.03,
 Gaussian 16:  ES64L-G16RevA.03 25-Dec-2016

 --------------------------------
 #p wB97XD/Def2SVP td=(nstates=5)
 --------------------------------

 --------------------------------
 TDDFT excited states in gaussian
 --------------------------------
 Symbolic Z-matrix:
 Charge =  0 Multiplicity = 1

                         Standard orientation:
 ---------------------------------------------------------------------
 Center     Atomic      Atomic             Coordinates (Angstroms)
 Number     Number       Type             X           Y           Z
 ---------------------------------------------------------------------
      1         12           0       29.855587    0.452613    0.518677
      2          6           0       29.441900   -2.203857   -1.628330
      3          6           0       29.141207    2.594899   -2.156927
      4          6           0       30.334420    3.118527    2.533126
      5          6           0       30.901301   -1.657168    2.962559
      6          7           0       29.605597    0.191389   -1.733704
      7          6           0       29.237401   -1.032247   -2.306773
      8          6           0       28.600689   -0.851455   -3.698938
      9          6           0       28.643238    0.715070   -3.836185
     10          6           0       29.108658    1.251715   -2.499629
     11          6           0       29.520473    1.190599   -4.987392
     12          6           0       27.169318   -1.432442   -3.977675
     13          6           0       27.062091   -2.661022   -5.034451
     14          1           0       26.160118   -2.297644   -6.218047
     15          7           0       29.859085    2.522506    0.228049
     16          6           0       29.410077    3.200214   -0.916962
     17          6           0       29.228514    4.631498   -0.653445
     18          6           0       29.660985    4.873919    0.760290
     19          6           0       29.921990    3.475377    1.287924
     20          6           0       28.737597    5.609337   -1.698143
     21          6           0       29.776759    6.099593    1.537087
     22          8           0       30.258428    6.060965    2.678918
     23          6           0       29.395497    7.465041    0.992564
     24          7           0       30.582912    0.654576    2.376712
     25          6           0       30.579816    1.859442    3.103679
     26          6           0       30.934171    1.715248    4.638830
     27          6           0       31.140001    0.114555    4.701629
     28          6           0       30.835962   -0.322798    3.250860
     29          6           0       32.228055    2.547068    5.107001
     30          6           0       30.195001   -0.550631    5.760575
     31          6           0       30.734191   -1.693313    6.562769
     32          7           0       30.219026   -1.559793    0.599177
     33          6           0       30.603515   -2.309856    1.714302
     34          6           0       30.524126   -3.704225    1.441458
     35          6           0       29.958683   -3.712439    0.112849
     36          6           0       29.883805   -2.387757   -0.335898
     37          6           0       30.791080   -4.876881    2.288587
     38          6           0       29.612698   -4.574698   -0.973474
     39          8           0       29.541528   -5.798599   -1.130329
     40          6           0       29.399098   -3.594984   -2.215051
     41          6           0       30.431426   -3.893704   -3.242663
     42          8           0       31.432058   -3.330317   -3.455818
     43          8           0       29.999217   -4.925772   -4.072283
     44          6           0       30.579550   -4.929703   -5.399060
     45          1           0       28.831006    3.251163   -2.972775
     46          1           0       30.455984    3.885405    3.300880
     47          1           0       31.091287   -2.346238    3.788068
     48          1           0       29.275219   -1.270151   -4.445024
     49          1           0       27.668276    1.123528   -4.103552
     50          1           0       30.373187    1.730663   -4.576788
     51          1           0       28.862398    1.876913   -5.518950
     52          1           0       29.823597    0.425232   -5.701521
     53          1           0       26.543016   -0.615551   -4.337067
     54          1           0       26.722753   -1.836523   -3.069053
     55          1           0       26.546177   -3.420449   -4.446645
     56          1           0       28.053376   -2.952661   -5.380726
     57          1           0       29.561000    5.754419   -2.398566
     58          1           0       28.507503    6.548162   -1.196743
     59          1           0       27.926933    5.217843   -2.313060
     60          1           0       29.885465    8.185427    1.647923
     61          1           0       28.319434    7.634427    0.941658
     62          1           0       29.835196    7.764930    0.041543
     63          1           0       30.053636    1.932945    5.242414
     64          1           0       32.131848   -0.209281    5.017844
     65          1           0       32.785594    1.940458    5.820941
     66          1           0       32.046435    3.446708    5.693758
     67          1           0       32.875066    2.832112    4.277168
     68          1           0       29.230656   -0.861646    5.359152
     69          1           0       29.928500    0.131360    6.567792
     70          1           0       30.160389   -2.556789    6.226606
     71          1           0       30.533675   -1.762135    7.631959
     72          1           0       31.794052   -1.828826    6.344823
     73          1           0       30.627195   -4.592754    3.328430
     74          1           0       31.852432   -5.073713    2.137782
     75          1           0       30.250959   -5.731298    1.880296
     76          1           0       28.414225   -3.756375   -2.652604
     77          1           0       31.581163   -5.328921   -5.243059
     78          1           0       30.631215   -3.882966   -5.698252
     79          1           0       30.025686   -5.579026   -6.077688
     80         12           0      -30.225318   -0.662628   -0.282933
     81          6           0      -28.465294    2.452528   -0.493933
     82          6           0      -27.266906   -2.047206    1.077146
     83          6           0      -32.013136   -3.347451    0.642119
     84          6           0      -33.143097    1.041660   -0.986738
     85          7           0      -28.077686    0.098287    0.235165
     86          6           0      -27.695928    1.399719    0.065718
     87          6           0      -26.371796    1.639024    0.773713
     88          6           0      -25.940856    0.127436    0.985320
     89          6           0      -27.138079   -0.718217    0.771908
     90          6           0      -24.758819   -0.410440    0.110836
     91          6           0      -26.586446    2.559514    2.017804
     92          6           0      -25.587795    3.757395    2.294489
     93          1           0      -24.755927    3.773308    3.589523
     94          7           0      -29.733581   -2.464375    0.513453
     95          6           0      -28.467058   -2.876761    1.005220
     96          6           0      -28.524763   -4.251017    1.468086
     97          6           0      -29.927052   -4.614249    1.340763
     98          6           0      -30.600907   -3.447018    0.803523
     99          6           0      -27.356699   -4.917933    2.065594
    100          6           0      -30.463329   -6.008180    1.710514
    101          8           0      -29.633228   -6.805843    2.236378
    102          6           0      -31.910157   -6.499058    1.491388
    103          7           0      -32.344488   -1.082347    0.091638
    104          6           0      -32.823645   -2.295051    0.291839
    105          6           0      -34.316248   -2.219191    0.306636
    106          6           0      -34.630383   -0.816289   -0.278437
    107          6           0      -33.274814   -0.181081   -0.326643
    108          6           0      -35.175686   -3.358297   -0.391279
    109          6           0      -35.694440    0.060104    0.563376
    110          6           0      -37.047518    0.416079   -0.099882
    111          7           0      -30.716653    1.234301   -0.847359
    112          6           0      -31.916791    1.783858   -1.098838
    113          6           0      -31.800697    3.153431   -1.443329
    114          6           0      -30.445372    3.436868   -1.259435
    115          6           0      -29.811796    2.237001   -0.848142
    116          6           0      -32.811851    4.127969   -1.897304
    117          6           0      -29.529573    4.534176   -1.316817
    118          8           0      -29.762036    5.697966   -1.555775
    119          6           0      -28.112772    3.897589   -0.738600
    120          6           0      -27.058298    4.026244   -1.751411
    121          8           0      -27.189382    3.794095   -2.959899
    122          8           0      -25.916989    4.418866   -1.085241
    123          6           0      -24.722317    4.616413   -1.904409
    124          1           0      -26.385731   -2.533221    1.498760
    125          1           0      -32.654435   -4.146536    1.018879
    126          1           0      -33.990460    1.565628   -1.434240
    127          1           0      -25.690725    2.034439    0.019690
    128          1           0      -25.774454    0.171891    2.062267
    129          1           0      -25.128219   -1.280803   -0.433371
    130          1           0      -23.897060   -0.750317    0.684829
    131          1           0      -24.405141    0.263768   -0.669799
    132          1           0      -26.493212    1.812172    2.805455
    133          1           0      -27.583684    2.984396    2.129990
    134          1           0      -26.208361    4.651312    2.234702
    135          1           0      -24.963335    3.885909    1.410910
    136          1           0      -26.997311   -4.255730    2.853616
    137          1           0      -26.549246   -4.977545    1.336118
    138          1           0      -27.468314   -5.954539    2.384620
    139          1           0      -32.550036   -5.988731    2.211454
    140          1           0      -31.811994   -7.580822    1.406697
    141          1           0      -32.133612   -6.138906    0.486602
    142          1           0      -34.618812   -2.283667    1.351082
    143          1           0      -34.865329   -1.057442   -1.315213
    144          1           0      -36.109591   -3.372311    0.171174
    145          1           0      -34.619291   -4.293771   -0.334970
    146          1           0      -35.355039   -3.025611   -1.413804
    147          1           0      -35.136013    0.960362    0.819353
    148          1           0      -35.828493   -0.429928    1.527652
    149          1           0      -37.291447    1.474566   -0.019716
    150          1           0      -37.830457   -0.180933    0.368507
    151          1           0      -37.112971    0.121133   -1.147342
    152          1           0      -32.353622    4.988513   -2.383706
    153          1           0      -33.230627    4.365028   -0.919109
    154          1           0      -33.635454    3.572621   -2.345867
    155          1           0      -27.871345    4.298112    0.245327
    156          1           0      -24.918598    5.271842   -2.753234
    157          1           0      -24.345262    3.650947   -2.244963
    158          1           0      -23.958352    5.098680   -1.294546
 ---------------------------------------------------------------------

 SCF Done:  E(RwB97XD) =  -4070.57753440     A.U. after   19 cycles

 Excitation energies and oscillator strengths:

 Excited State   1:      Singlet-A      1.6222 eV  764.31 nm  f=0.3992  <S**2>=0.000
     309 -> 315        0.16233
     311 -> 313        0.68609
     309 <- 315        0.10567
 This state for optimization and/or second-order correction.
 Total Energy, E(TD-HF/TD-DFT) =  -4070.51792084
 Copying the excited state density for this state as the 1-particle RhoCI density.

 Excited State   2:      Singlet-A      1.6376 eV  757.10 nm  f=0.3971  <S**2>=0.000
     310 -> 316       -0.19096
     312 -> 314        0.68322
     310 <- 316       -0.12121

 Excited State   3:      Singlet-A      2.1350 eV  580.73 nm  f=0.1229  <S**2>=0.000
     309 -> 313        0.64278
     311 -> 315       -0.25994

 Excited State   4:      Singlet-A      2.1989 eV  563.84 nm  f=0.1291  <S**2>=0.000
     310 -> 314        0.63869
     312 -> 316        0.29224

 Excited State   5:      Singlet-A      3.2509 eV  381.38 nm  f=0.0040  <S**2>=0.000
     305 -> 313        0.47426
     306 -> 313       -0.38284
     308 -> 313       -0.30349
     311 -> 315        0.12190

 The electronic state is 1-A.
 Alpha  occ. eigenvalues --  -46.95260 -46.94325 -19.31521 -19.27388 -19.25540
 Alpha  occ. eigenvalues --  -19.24827 -19.24454 -19.23961 -19.23195 -19.22977
 Alpha  occ. eigenvalues --  -14.47200 -14.46624 -14.46558 -14.45983 -14.44964
 Alpha  occ. eigenvalues --  -14.44569 -14.44435 -14.43156 -10.43967 -10.41905
 Alpha  occ. eigenvalues --  -10.39511 -10.39361 -10.39260 -10.38199 -10.36213
 Alpha  occ. eigenvalues --  -10.35940 -10.35369 -10.35227 -10.35185 -10.35173
 Alpha  occ. eigenvalues --  -10.34799 -10.34762 -10.34753 -10.34686 -10.34410
 Alpha  occ. eigenvalues --  -10.34404 -10.34347 -10.34338 -10.34236 -10.33787
 Alpha  occ. eigenvalues --  -10.33532 -10.33337 -10.33260 -10.33111 -10.32975
 Alpha  occ. eigenvalues --  -10.32802 -10.32763 -10.32732 -10.32325 -10.32321
 Alpha  occ. eigenvalues --  -10.32267 -10.31870 -10.31863 -10.31820 -10.31684
 Alpha  occ. eigenvalues --  -10.31665 -10.31644 -10.31634 -10.31628 -10.31571
 Alpha  occ. eigenvalues --  -10.31557 -10.31453 -10.31440 -10.31387 -10.31247
 Alpha  occ. eigenvalues --  -10.31205 -10.31187 -10.31118 -10.30679 -10.30604
 Alpha  occ. eigenvalues --  -10.30570 -10.30515 -10.30491 -10.30380 -10.30378
 Alpha  occ. eigenvalues --  -10.30292 -10.30139 -10.30119 -10.29908 -10.29891
 Alpha  occ. eigenvalues --  -10.29816 -10.29757 -10.29153 -10.28993 -10.28630
 Alpha  occ. eigenvalues --  -10.28494  -3.21257  -3.20492  -1.94836  -1.94369
 Alpha  occ. eigenvalues --   -1.94240  -1.94056  -1.93630  -1.93486  -1.18891
 Alpha  occ. eigenvalues --   -1.18745  -1.13101  -1.11838  -1.10388  -1.10312
 Alpha  occ. eigenvalues --   -1.09913  -1.09467  -1.07482  -1.06769  -1.06637
 Alpha  occ. eigenvalues --   -1.05766  -1.05461  -1.04407  -1.04080  -1.02721
 Alpha  occ. eigenvalues --   -0.95175  -0.94550  -0.91256  -0.91124  -0.90510
 Alpha  occ. eigenvalues --   -0.90402  -0.90219  -0.90017  -0.89902  -0.89430
 Alpha  occ. eigenvalues --   -0.89292  -0.89147  -0.88674  -0.87985  -0.86602
 Alpha  occ. eigenvalues --   -0.86162  -0.85775  -0.85369  -0.84621  -0.84353
 Alpha  occ. eigenvalues --   -0.83933  -0.83852  -0.83346  -0.82806  -0.82458
 Alpha  occ. eigenvalues --   -0.82199  -0.80785  -0.80201  -0.79604  -0.79338
 Alpha  occ. eigenvalues --   -0.78837  -0.78614  -0.78236  -0.77300  -0.77224
 Alpha  occ. eigenvalues --   -0.77166  -0.75213  -0.75073  -0.74209  -0.73689
 Alpha  occ. eigenvalues --   -0.71741  -0.71395  -0.71363  -0.70612  -0.70448
 Alpha  occ. eigenvalues --   -0.69903  -0.69560  -0.68759  -0.68082  -0.67636
 Alpha  occ. eigenvalues --   -0.67608  -0.67256  -0.67129  -0.67019  -0.66792
 Alpha  occ. eigenvalues --   -0.65909  -0.64971  -0.62850  -0.62232  -0.62157
 Alpha  occ. eigenvalues --   -0.61941  -0.61520  -0.61356  -0.61014  -0.60914
 Alpha  occ. eigenvalues --   -0.60443  -0.60414  -0.60262  -0.59665  -0.59608
 Alpha  occ. eigenvalues --   -0.58526  -0.58194  -0.57916  -0.57614  -0.57508
 Alpha  occ. eigenvalues --   -0.57260  -0.56865  -0.56484  -0.55864  -0.55678
 Alpha  occ. eigenvalues --   -0.55584  -0.55305  -0.55262  -0.54939  -0.54906
 Alpha  occ. eigenvalues --   -0.54604  -0.54588  -0.54264  -0.54094  -0.54072
 Alpha  occ. eigenvalues --   -0.53656  -0.53523  -0.53364  -0.53280  -0.53194
 Alpha  occ. eigenvalues --   -0.53102  -0.52681  -0.52541  -0.52511  -0.52261
 Alpha  occ. eigenvalues --   -0.52145  -0.52004  -0.51969  -0.51913  -0.51697
 Alpha  occ. eigenvalues --   -0.51586  -0.51540  -0.51363  -0.50943  -0.50740
 Alpha  occ. eigenvalues --   -0.50577  -0.50472  -0.50417  -0.50013  -0.49948
 Alpha  occ. eigenvalues --   -0.49869  -0.49667  -0.49615  -0.49556  -0.49411
 Alpha  occ. eigenvalues --   -0.49236  -0.48996  -0.48964  -0.48776  -0.48589
 Alpha  occ. eigenvalues --   -0.48410  -0.48401  -0.48102  -0.48071  -0.47925
 Alpha  occ. eigenvalues --   -0.47905  -0.47557  -0.47393  -0.47343  -0.47221
 Alpha  occ. eigenvalues --   -0.46977  -0.46897  -0.46633  -0.46489  -0.46092
 Alpha  occ. eigenvalues --   -0.45697  -0.45630  -0.45586  -0.45547  -0.45485
 Alpha  occ. eigenvalues --   -0.45294  -0.45222  -0.45033  -0.45011  -0.44923
 Alpha  occ. eigenvalues --   -0.44869  -0.44784  -0.44556  -0.44257  -0.43988
 Alpha  occ. eigenvalues --   -0.43632  -0.43504  -0.43323  -0.43157  -0.43094
 Alpha  occ. eigenvalues --   -0.43080  -0.42921  -0.42797  -0.42596  -0.42256
 Alpha  occ. eigenvalues --   -0.42153  -0.42062  -0.41838  -0.41023  -0.40879
 Alpha  occ. eigenvalues --   -0.40673  -0.40632  -0.40230  -0.39803  -0.39784
 Alpha  occ. eigenvalues --   -0.39623  -0.39605  -0.39255  -0.38563  -0.38038
 Alpha  occ. eigenvalues --   -0.37767  -0.37162  -0.36881  -0.36449  -0.36116
 Alpha  occ. eigenvalues --   -0.36065  -0.35407  -0.35306  -0.33682  -0.33569
 Alpha  occ. eigenvalues --   -0.33522  -0.33163  -0.32338  -0.32252  -0.32215
 Alpha  occ. eigenvalues --   -0.31848  -0.31566  -0.31387  -0.26321  -0.26098
 Alpha  occ. eigenvalues --   -0.23285  -0.23128
 Alpha virt. eigenvalues --   -0.07653  -0.07306  -0.00246   0.00164   0.01777
 Alpha virt. eigenvalues --    0.02372   0.04296   0.04486   0.05236   0.05463
 Alpha virt. eigenvalues --    0.06387   0.07536   0.07560   0.07895   0.08500

 Mulliken charges:
               1
     1  Mg   0.967378
     2  C    0.011755
     3  C   -0.103203
     4  C   -0.069839
     5  C   -0.098402
     6  N   -0.364115
     7  C   -0.034197
     8  C   -0.002709
     9  C   -0.138095
    10  C    0.093015
    11  C    0.019352
    12  C   -0.009074
    13  C   -0.148512
    14  H    0.036392
    15  N   -0.481747
    16  C    0.200811
    17  C   -0.180097
    18  C   -0.027796
    19  C    0.193802
    20  C    0.079818
    21  C    0.021583
    22  O   -0.252872
    23  C   -0.034122
    24  N   -0.410828
    25  C    0.038723
    26  C   -0.045331
    27  C   -0.088421
    28  C    0.134004
    29  C   -0.000905
    30  C   -0.040863
    31  C   -0.058084
    32  N   -0.418854
    33  C    0.119596
    34  C   -0.179180
    35  C   -0.042453
    36  C    0.138727
    37  C    0.103176
    38  C    0.092994
    39  O   -0.217676
    40  C   -0.114423
    41  C    0.257058
    42  O   -0.187463
    43  O   -0.389611
    44  C    0.148336
    45  H   -0.010848
    46  H    0.025952
    47  H   -0.021887
    48  H    0.032297
    49  H    0.032480
    50  H    0.050125
    51  H    0.027201
    52  H    0.046212
    53  H    0.042848
    54  H    0.040610
    55  H    0.074232
    56  H    0.060421
    57  H    0.058524
    58  H    0.036754
    59  H    0.054103
    60  H    0.050775
    61  H    0.073240
    62  H    0.053520
    63  H    0.052004
    64  H    0.039615
    65  H    0.033980
    66  H    0.046061
    67  H    0.057350
    68  H    0.033682
    69  H    0.029693
    70  H    0.026202
    71  H    0.038832
    72  H    0.035120
    73  H    0.041495
    74  H    0.054386
    75  H    0.067144
    76  H    0.052228
    77  H    0.050838
    78  H    0.037003
    79  H    0.060162
    80  Mg   0.980529
    81  C   -0.124062
    82  C   -0.080699
    83  C   -0.101727
    84  C   -0.096356
    85  N   -0.314423
    86  C   -0.024780
    87  C   -0.047796
    88  C   -0.085523
    89  C    0.060898
    90  C    0.030233
    91  C   -0.009543
    92  C   -0.101120
    93  H    0.050304
    94  N   -0.481356
    95  C    0.127709
    96  C   -0.142764
    97  C   -0.097820
    98  C    0.230169
    99  C    0.077086
   100  C    0.025834
   101  O   -0.277715
   102  C    0.020088
   103  N   -0.347123
   104  C    0.019103
   105  C   -0.090676
   106  C   -0.108952
   107  C    0.094317
   108  C    0.033646
   109  C    0.010059
   110  C   -0.047588
   111  N   -0.436787
   112  C    0.106355
   113  C   -0.206224
   114  C   -0.066839
   115  C    0.193063
   116  C    0.118071
   117  C    0.144206
   118  O   -0.188419
   119  C   -0.050610
   120  C    0.292288
   121  O   -0.254422
   122  O   -0.371193
   123  C    0.136628
   124  H   -0.000092
   125  H   -0.036514
   126  H    0.002962
   127  H    0.018593
   128  H    0.029558
   129  H    0.037182
   130  H    0.045329
   131  H    0.037046
   132  H    0.031086
   133  H    0.053720
   134  H    0.048080
   135  H    0.042418
   136  H    0.047736
   137  H    0.033306
   138  H    0.069396
   139  H    0.083971
   140  H    0.065107
   141  H    0.043354
   142  H    0.038413
   143  H    0.032676
   144  H    0.040672
   145  H    0.041132
   146  H    0.031840
   147  H    0.033597
   148  H    0.025556
   149  H    0.046673
   150  H    0.035600
   151  H    0.033279
   152  H    0.080966
   153  H    0.046783
   154  H    0.029925
   155  H    0.059530
   156  H    0.065652
   157  H    0.052746
   158  H    0.056649
 Sum of Mulliken charges =  -0.00000

 Dipole moment (field-independent basis, Debye):
    X=             -4.1262    Y=              4.5994    Z=              0.5473  Tot=              6.2032
 Quadrupole moment (field-independent basis, Debye-Ang):
   XX=           -557.5650   YY=           -573.2931   ZZ=           -488.0844
   XY=            164.7382   XZ=             -6.5326   YZ=             -3.0623

 Normal termination of Gaussian 16 at Mon Sep 20 13:15:07 2021.
