 Gaussian 16, Revision A.03,
 Gaussian 16:  ES64L-G16RevA.03 25-Dec-2016

 --------------------------------
 #p wB97XD/Def2SVP td=(nstates=5)
 --------------------------------

 --------------------------------
 TDDFT excited states in gaussian
 --------------------------------
 Symbolic Z-matrix:
 Charge =  0 Multiplicity = 1

                         Standard orientation:
 ---------------------------------------------------------------------
 Center     Atomic      Atomic             Coordinates (Angstroms)
 Number     Number       Type             X           Y           Z
 ---------------------------------------------------------------------
      1         12           0      -23.659749    0.431694    0.269026
      2          6           0      -22.638505   -2.488636   -1.225146
      3          6           0      -22.395711    2.192412   -2.552623
      4          6           0      -24.107752    3.401585    1.821027
      5          6           0      -24.543023   -1.202001    3.062144
      6          7           0      -22.626494   -0.102777   -1.670786
      7          6           0      -22.315394   -1.388113   -2.025030
      8          6           0      -21.726739   -1.442454   -3.436580
      9          6           0      -21.493123    0.112839   -3.720919
     10          6           0      -22.207869    0.786498   -2.586245
     11          6           0      -19.983239    0.515734   -3.898754
     12          6           0      -22.696418   -2.118442   -4.510145
     13          6           0      -22.205952   -3.102989   -5.544312
     14          1           0      -20.975325   -2.770206   -6.310716
     15          7           0      -23.356957    2.547231   -0.286668
     16          6           0      -23.018361    3.034488   -1.500598
     17          6           0      -23.172356    4.449659   -1.555626
     18          6           0      -23.708703    4.839017   -0.287803
     19          6           0      -23.670880    3.566674    0.493255
     20          6           0      -22.742771    5.169063   -2.793339
     21          6           0      -24.004159    6.235665    0.231823
     22          8           0      -24.197176    6.468896    1.429081
     23          6           0      -24.051538    7.413847   -0.725189
     24          7           0      -24.108332    1.043265    2.259187
     25          6           0      -24.362662    2.332127    2.607285
     26          6           0      -24.956400    2.404661    4.013074
     27          6           0      -25.254362    0.888985    4.325680
     28          6           0      -24.606958    0.189823    3.146613
     29          6           0      -24.231937    3.173335    5.157403
     30          6           0      -26.768950    0.498243    4.585978
     31          6           0      -27.643233    0.016385    3.447651
     32          7           0      -23.527621   -1.416286    0.877351
     33          6           0      -24.046150   -2.034099    1.986996
     34          6           0      -23.802979   -3.430166    2.020029
     35          6           0      -23.291268   -3.674625    0.749493
     36          6           0      -23.165648   -2.425155    0.089467
     37          6           0      -24.098464   -4.516480    3.045969
     38          6           0      -22.805014   -4.646267   -0.128915
     39          8           0      -22.664847   -5.838852    0.070699
     40          6           0      -22.306154   -3.941794   -1.512241
     41          6           0      -20.885288   -4.226080   -1.670890
     42          8           0      -19.971047   -3.825391   -0.923497
     43          8           0      -20.611415   -5.045289   -2.720529
     44          6           0      -19.283970   -5.664014   -2.808980
     45          1           0      -22.054477    2.612812   -3.500534
     46          1           0      -24.527098    4.318332    2.240271
     47          1           0      -25.138748   -1.783720    3.767626
     48          1           0      -20.836255   -2.071906   -3.412917
     49          1           0      -21.938142    0.414715   -4.669188
     50          1           0      -19.872538    0.950204   -4.891682
     51          1           0      -19.430575   -0.403178   -3.702375
     52          1           0      -19.639948    1.330926   -3.261075
     53          1           0      -23.089733   -1.238463   -5.019408
     54          1           0      -23.608596   -2.481606   -4.037885
     55          1           0      -23.023383   -3.383365   -6.208574
     56          1           0      -21.893931   -3.981158   -4.980168
     57          1           0      -23.551371    5.868678   -3.001841
     58          1           0      -22.700604    4.486901   -3.642806
     59          1           0      -21.791652    5.699728   -2.738266
     60          1           0      -24.568745    7.204435   -1.662001
     61          1           0      -23.062547    7.868818   -0.795045
     62          1           0      -24.680869    8.143421   -0.214620
     63          1           0      -25.844887    3.020103    3.870312
     64          1           0      -24.845529    0.567632    5.282904
     65          1           0      -23.834017    2.471731    5.890414
     66          1           0      -24.991794    3.790400    5.636641
     67          1           0      -23.454514    3.760988    4.670399
     68          1           0      -27.244266    1.380437    5.012663
     69          1           0      -26.820813   -0.297193    5.329755
     70          1           0      -28.574134    0.580353    3.384246
     71          1           0      -27.893276   -1.043692    3.507512
     72          1           0      -27.044587    0.178572    2.551296
     73          1           0      -24.627482   -4.073624    3.890711
     74          1           0      -23.160707   -4.974130    3.362047
     75          1           0      -24.720111   -5.276718    2.573842
     76          1           0      -22.871929   -4.527041   -2.237725
     77          1           0      -19.259553   -6.581085   -3.397771
     78          1           0      -18.757122   -5.784191   -1.862835
     79          1           0      -18.710431   -4.999065   -3.454918
     80         12           0       23.326014    0.581573   -0.411188
     81          6           0       22.437145   -2.650115    0.693566
     82          6           0       19.983798    1.537301   -0.121606
     83          6           0       24.373667    3.824044   -0.467661
     84          6           0       26.734192   -0.483144   -0.127355
     85          7           0       21.479696   -0.448939    0.171623
     86          6           0       21.361622   -1.723498    0.600436
     87          6           0       19.901179   -2.025388    1.069638
     88          6           0       19.133070   -0.781909    0.424290
     89          6           0       20.285899    0.215749    0.079678
     90          6           0       18.291749   -0.950308   -0.861219
     91          6           0       19.869652   -2.064407    2.644348
     92          6           0       18.890252   -3.117829    3.232357
     93          1           0       18.068655   -2.652487    4.502824
     94          7           0       22.288971    2.477597   -0.514231
     95          6           0       20.927360    2.595712   -0.424388
     96          6           0       20.628617    3.967317   -0.590681
     97          6           0       21.848318    4.706276   -0.628074
     98          6           0       22.938646    3.674974   -0.588898
     99          6           0       19.236561    4.552739   -0.620891
    100          6           0       21.999524    6.187506   -0.555049
    101          8           0       21.042791    6.926467   -0.386691
    102          6           0       23.255266    6.890132   -0.602543
    103          7           0       25.327205    1.518084   -0.196666
    104          6           0       25.452746    2.895131   -0.432489
    105          6           0       26.894036    3.277671   -0.561481
    106          6           0       27.682720    1.926870   -0.390453
    107          6           0       26.557547    0.919700   -0.226678
    108          6           0       27.107814    3.968930   -1.914154
    109          6           0       28.843512    2.000253    0.671723
    110          6           0       30.221037    1.652229    0.194965
    111          7           0       24.438058   -1.224744    0.132276
    112          6           0       25.787835   -1.477803    0.133942
    113          6           0       26.042944   -2.916159    0.368010
    114          6           0       24.724488   -3.360176    0.653288
    115          6           0       23.818202   -2.344176    0.414320
    116          6           0       27.364864   -3.657806    0.489929
    117          6           0       23.994390   -4.489138    1.165705
    118          8           0       24.405768   -5.593497    1.554316
    119          6           0       22.507153   -4.139321    1.209521
    120          6           0       21.706618   -5.108946    0.438755
    121          8           0       20.845589   -5.748082    0.925291
    122          8           0       21.921656   -5.049039   -0.907778
    123          6           0       20.911983   -5.848390   -1.635177
    124          1           0       18.937488    1.851291   -0.117006
    125          1           0       24.635557    4.877197   -0.581026
    126          1           0       27.694590   -0.975817    0.041459
    127          1           0       19.603470   -2.986254    0.649506
    128          1           0       18.631610   -0.125226    1.135023
    129          1           0       18.659123   -1.793433   -1.447375
    130          1           0       18.219787   -0.078383   -1.511427
    131          1           0       17.289552   -1.211150   -0.522798
    132          1           0       19.658835   -1.075290    3.051918
    133          1           0       20.891093   -2.315633    2.930244
    134          1           0       19.544269   -3.951846    3.487478
    135          1           0       18.291810   -3.396322    2.364659
    136          1           0       19.130388    5.522934   -1.106395
    137          1           0       18.971208    4.625213    0.433484
    138          1           0       18.431271    3.881555   -0.919484
    139          1           0       23.706924    6.660326   -1.568428
    140          1           0       23.891986    6.617313    0.239527
    141          1           0       23.054598    7.959106   -0.530343
    142          1           0       27.210632    3.873511    0.294247
    143          1           0       28.077329    1.454752   -1.290439
    144          1           0       26.177955    4.280238   -2.390745
    145          1           0       27.596030    3.309556   -2.631770
    146          1           0       27.558073    4.948137   -1.754033
    147          1           0       28.529818    1.319877    1.463429
    148          1           0       29.037901    3.004841    1.045601
    149          1           0       30.595878    0.864809    0.848295
    150          1           0       30.910001    2.490920    0.296808
    151          1           0       30.262599    1.425215   -0.870367
    152          1           0       27.803941   -3.575051    1.484351
    153          1           0       28.086114   -3.381382   -0.280183
    154          1           0       27.026604   -4.690849    0.410244
    155          1           0       22.128789   -4.276403    2.221696
    156          1           0       21.129667   -5.765096   -2.700285
    157          1           0       19.906197   -5.489392   -1.417407
    158          1           0       20.987690   -6.923001   -1.472729
 ---------------------------------------------------------------------

 SCF Done:  E(RwB97XD) =  -4070.60595424     A.U. after   20 cycles

 Excitation energies and oscillator strengths:

 Excited State   1:      Singlet-A      1.6192 eV  765.71 nm  f=0.4006  <S**2>=0.000
     309 -> 315        0.17886
     311 -> 313        0.68464
     309 <- 315        0.11646
 This state for optimization and/or second-order correction.
 Total Energy, E(TD-HF/TD-DFT) =  -4070.54644988
 Copying the excited state density for this state as the 1-particle RhoCI density.

 Excited State   2:      Singlet-A      1.6605 eV  746.67 nm  f=0.4206  <S**2>=0.000
     310 -> 316       -0.18411
     312 -> 314        0.68428
     310 <- 316       -0.11635

 Excited State   3:      Singlet-A      2.1344 eV  580.89 nm  f=0.1707  <S**2>=0.000
     310 -> 314        0.66024
     312 -> 316        0.24163

 Excited State   4:      Singlet-A      2.1451 eV  577.98 nm  f=0.1099  <S**2>=0.000
     309 -> 313        0.63985
     311 -> 315       -0.28457

 Excited State   5:      Singlet-A      3.2207 eV  384.96 nm  f=0.0033  <S**2>=0.000
     304 -> 313       -0.13583
     307 -> 313       -0.11690
     308 -> 313        0.65569
     308 -> 318        0.10332

 The electronic state is 1-A.
 Alpha  occ. eigenvalues --  -46.97164 -46.95437 -19.30344 -19.30272 -19.24850
 Alpha  occ. eigenvalues --  -19.23948 -19.23922 -19.23643 -19.23471 -19.22309
 Alpha  occ. eigenvalues --  -14.47605 -14.47275 -14.46705 -14.46112 -14.44481
 Alpha  occ. eigenvalues --  -14.44158 -14.44081 -14.43896 -10.42771 -10.42567
 Alpha  occ. eigenvalues --  -10.39352 -10.38827 -10.38528 -10.37406 -10.36305
 Alpha  occ. eigenvalues --  -10.36013 -10.35883 -10.35576 -10.35353 -10.35095
 Alpha  occ. eigenvalues --  -10.35076 -10.35003 -10.34891 -10.34397 -10.34243
 Alpha  occ. eigenvalues --  -10.34142 -10.34121 -10.34113 -10.33882 -10.33865
 Alpha  occ. eigenvalues --  -10.33523 -10.33112 -10.33109 -10.33073 -10.32987
 Alpha  occ. eigenvalues --  -10.32756 -10.32579 -10.32525 -10.32520 -10.32520
 Alpha  occ. eigenvalues --  -10.32499 -10.32493 -10.32311 -10.32280 -10.32195
 Alpha  occ. eigenvalues --  -10.32109 -10.32084 -10.32040 -10.31843 -10.31775
 Alpha  occ. eigenvalues --  -10.31594 -10.31572 -10.31555 -10.31540 -10.31349
 Alpha  occ. eigenvalues --  -10.30975 -10.30906 -10.30855 -10.30806 -10.30753
 Alpha  occ. eigenvalues --  -10.30736 -10.30642 -10.30389 -10.30282 -10.30250
 Alpha  occ. eigenvalues --  -10.30146 -10.30055 -10.29921 -10.29565 -10.29559
 Alpha  occ. eigenvalues --  -10.29534 -10.29234 -10.29165 -10.29132 -10.28834
 Alpha  occ. eigenvalues --  -10.28633  -3.22807  -3.21489  -1.96400  -1.95899
 Alpha  occ. eigenvalues --   -1.95759  -1.95062  -1.94574  -1.94504  -1.20143
 Alpha  occ. eigenvalues --   -1.18020  -1.12117  -1.11726  -1.11687  -1.11263
 Alpha  occ. eigenvalues --   -1.11222  -1.08015  -1.07393  -1.07177  -1.06689
 Alpha  occ. eigenvalues --   -1.06155  -1.05751  -1.05501  -1.05442  -1.04562
 Alpha  occ. eigenvalues --   -0.94637  -0.94581  -0.91291  -0.90957  -0.90944
 Alpha  occ. eigenvalues --   -0.90123  -0.90101  -0.90053  -0.89959  -0.89718
 Alpha  occ. eigenvalues --   -0.89362  -0.88997  -0.88364  -0.87756  -0.86786
 Alpha  occ. eigenvalues --   -0.86600  -0.86210  -0.85651  -0.84634  -0.84560
 Alpha  occ. eigenvalues --   -0.84402  -0.83767  -0.83104  -0.82894  -0.82525
 Alpha  occ. eigenvalues --   -0.82272  -0.80615  -0.80349  -0.79557  -0.79398
 Alpha  occ. eigenvalues --   -0.79027  -0.78806  -0.78414  -0.78155  -0.77424
 Alpha  occ. eigenvalues --   -0.77366  -0.75527  -0.75159  -0.74501  -0.73517
 Alpha  occ. eigenvalues --   -0.71541  -0.71364  -0.71206  -0.71203  -0.70087
 Alpha  occ. eigenvalues --   -0.69930  -0.69118  -0.68850  -0.68296  -0.67654
 Alpha  occ. eigenvalues --   -0.67550  -0.67100  -0.67013  -0.66720  -0.66655
 Alpha  occ. eigenvalues --   -0.66198  -0.65316  -0.64228  -0.62196  -0.62094
 Alpha  occ. eigenvalues --   -0.62031  -0.61798  -0.61056  -0.60992  -0.60875
 Alpha  occ. eigenvalues --   -0.60283  -0.60265  -0.59872  -0.59270  -0.59056
 Alpha  occ. eigenvalues --   -0.58456  -0.58230  -0.58030  -0.57544  -0.57323
 Alpha  occ. eigenvalues --   -0.57082  -0.56991  -0.56769  -0.56514  -0.55982
 Alpha  occ. eigenvalues --   -0.55497  -0.55320  -0.55220  -0.55098  -0.55084
 Alpha  occ. eigenvalues --   -0.54774  -0.54737  -0.54574  -0.54477  -0.54212
 Alpha  occ. eigenvalues --   -0.54162  -0.54010  -0.53676  -0.53440  -0.53391
 Alpha  occ. eigenvalues --   -0.53284  -0.52828  -0.52677  -0.52518  -0.52185
 Alpha  occ. eigenvalues --   -0.51972  -0.51792  -0.51790  -0.51542  -0.51454
 Alpha  occ. eigenvalues --   -0.51241  -0.51155  -0.51033  -0.51001  -0.50723
 Alpha  occ. eigenvalues --   -0.50664  -0.50568  -0.50494  -0.50327  -0.50160
 Alpha  occ. eigenvalues --   -0.50106  -0.49768  -0.49494  -0.49462  -0.49260
 Alpha  occ. eigenvalues --   -0.49087  -0.48944  -0.48790  -0.48714  -0.48626
 Alpha  occ. eigenvalues --   -0.48417  -0.48270  -0.48251  -0.48086  -0.47877
 Alpha  occ. eigenvalues --   -0.47794  -0.47684  -0.47225  -0.47099  -0.47040
 Alpha  occ. eigenvalues --   -0.46947  -0.46801  -0.46639  -0.46447  -0.46301
 Alpha  occ. eigenvalues --   -0.45995  -0.45851  -0.45822  -0.45546  -0.45531
 Alpha  occ. eigenvalues --   -0.45305  -0.45282  -0.45160  -0.44929  -0.44918
 Alpha  occ. eigenvalues --   -0.44817  -0.44552  -0.44342  -0.44178  -0.43899
 Alpha  occ. eigenvalues --   -0.43783  -0.43699  -0.43447  -0.43304  -0.43222
 Alpha  occ. eigenvalues --   -0.43024  -0.42904  -0.42647  -0.42485  -0.42065
 Alpha  occ. eigenvalues --   -0.41915  -0.41747  -0.41541  -0.41446  -0.41130
 Alpha  occ. eigenvalues --   -0.40588  -0.40402  -0.40141  -0.39924  -0.39660
 Alpha  occ. eigenvalues --   -0.39267  -0.39243  -0.38938  -0.38651  -0.38335
 Alpha  occ. eigenvalues --   -0.38035  -0.37668  -0.36907  -0.36539  -0.36134
 Alpha  occ. eigenvalues --   -0.35755  -0.35411  -0.35072  -0.33715  -0.33528
 Alpha  occ. eigenvalues --   -0.33239  -0.33022  -0.32980  -0.32609  -0.32441
 Alpha  occ. eigenvalues --   -0.32247  -0.31912  -0.31331  -0.26429  -0.25738
 Alpha  occ. eigenvalues --   -0.23368  -0.23265
 Alpha virt. eigenvalues --   -0.07757  -0.07451  -0.00343   0.00736   0.02321
 Alpha virt. eigenvalues --    0.02330   0.04412   0.04547   0.04567   0.04949
 Alpha virt. eigenvalues --    0.06881   0.07277   0.08004   0.08209   0.08564

 Mulliken charges:
               1
     1  Mg   0.974704
     2  C   -0.004377
     3  C   -0.064874
     4  C   -0.065499
     5  C   -0.074935
     6  N   -0.330657
     7  C    0.000498
     8  C   -0.084290
     9  C   -0.117770
    10  C    0.051531
    11  C    0.025251
    12  C    0.010855
    13  C   -0.102334
    14  H    0.032741
    15  N   -0.356619
    16  C    0.128969
    17  C   -0.163734
    18  C   -0.075588
    19  C    0.100146
    20  C    0.082217
    21  C    0.043266
    22  O   -0.246913
    23  C   -0.016995
    24  N   -0.351452
    25  C    0.050107
    26  C   -0.080573
    27  C   -0.041597
    28  C    0.061746
    29  C    0.035327
    30  C   -0.057979
    31  C   -0.043111
    32  N   -0.478649
    33  C    0.099289
    34  C   -0.189045
    35  C    0.040944
    36  C    0.138163
    37  C    0.096930
    38  C    0.037783
    39  O   -0.207904
    40  C   -0.055856
    41  C    0.259979
    42  O   -0.281244
    43  O   -0.359697
    44  C    0.146666
    45  H   -0.010901
    46  H    0.017277
    47  H   -0.000420
    48  H    0.049015
    49  H    0.042618
    50  H    0.031640
    51  H    0.050434
    52  H    0.040584
    53  H    0.012375
    54  H    0.032287
    55  H    0.055993
    56  H    0.054330
    57  H    0.030609
    58  H    0.036831
    59  H    0.063569
    60  H    0.053780
    61  H    0.071495
    62  H    0.050408
    63  H    0.036340
    64  H    0.036897
    65  H    0.036527
    66  H    0.040347
    67  H    0.051431
    68  H    0.029692
    69  H    0.029357
    70  H    0.038450
    71  H    0.037298
    72  H    0.035915
    73  H    0.026412
    74  H    0.066845
    75  H    0.060960
    76  H    0.060657
    77  H    0.053403
    78  H    0.075500
    79  H    0.036628
    80  Mg   0.930455
    81  C   -0.012517
    82  C   -0.078709
    83  C   -0.029764
    84  C   -0.055258
    85  N   -0.359319
    86  C   -0.011354
    87  C   -0.090475
    88  C   -0.100375
    89  C    0.079462
    90  C    0.032987
    91  C    0.011817
    92  C   -0.107043
    93  H    0.041768
    94  N   -0.446489
    95  C    0.131650
    96  C   -0.166241
    97  C   -0.071348
    98  C    0.121634
    99  C    0.092202
   100  C   -0.000443
   101  O   -0.245899
   102  C    0.011372
   103  N   -0.354167
   104  C    0.049096
   105  C   -0.068696
   106  C   -0.054130
   107  C    0.053377
   108  C    0.028793
   109  C   -0.008416
   110  C   -0.059098
   111  N   -0.368029
   112  C    0.038668
   113  C   -0.158656
   114  C   -0.038448
   115  C    0.117660
   116  C    0.062062
   117  C    0.094537
   118  O   -0.225705
   119  C   -0.017595
   120  C    0.221613
   121  O   -0.212634
   122  O   -0.366528
   123  C    0.140025
   124  H    0.006053
   125  H   -0.031095
   126  H   -0.001368
   127  H    0.038032
   128  H    0.035504
   129  H    0.032285
   130  H    0.046107
   131  H    0.040184
   132  H    0.042489
   133  H    0.036089
   134  H    0.065966
   135  H    0.053278
   136  H    0.070791
   137  H    0.039848
   138  H    0.017387
   139  H    0.051094
   140  H    0.064316
   141  H    0.052277
   142  H    0.047987
   143  H    0.037668
   144  H    0.035132
   145  H    0.041422
   146  H    0.037066
   147  H    0.041969
   148  H    0.039578
   149  H    0.042344
   150  H    0.030765
   151  H    0.032985
   152  H    0.064840
   153  H    0.051564
   154  H    0.065777
   155  H    0.062074
   156  H    0.046728
   157  H    0.053352
   158  H    0.057668
 Sum of Mulliken charges =  -0.00000

 Dipole moment (field-independent basis, Debye):
    X=              0.8149    Y=              4.0541    Z=             -6.6152  Tot=              7.8013
 Quadrupole moment (field-independent basis, Debye-Ang):
   XX=           -223.0860   YY=           -577.2295   ZZ=           -482.2241
   XY=             23.9779   XZ=            -15.2346   YZ=              6.6016

 Normal termination of Gaussian 16 at Mon Sep 20 19:09:55 2021.
