 Gaussian 16, Revision A.03,
 Gaussian 16:  ES64L-G16RevA.03 25-Dec-2016

 --------------------------------
 #p wB97XD/Def2SVP td=(nstates=5)
 --------------------------------

 --------------------------------
 TDDFT excited states in gaussian
 --------------------------------
 Symbolic Z-matrix:
 Charge =  0 Multiplicity = 1

                         Standard orientation:
 ---------------------------------------------------------------------
 Center     Atomic      Atomic             Coordinates (Angstroms)
 Number     Number       Type             X           Y           Z
 ---------------------------------------------------------------------
      1         12           0      -21.103115   -0.466847    0.036911
      2          6           0      -20.447447    2.877133   -0.857959
      3          6           0      -20.622048    0.357920    3.295597
      4          6           0      -21.624920   -3.713524    0.828590
      5          6           0      -21.132623   -1.295305   -3.335229
      6          7           0      -20.506005    1.345872    1.077022
      7          6           0      -20.402959    2.624999    0.523503
      8          6           0      -20.257757    3.632686    1.623983
      9          6           0      -19.835566    2.754870    2.826050
     10          6           0      -20.363358    1.370848    2.367893
     11          6           0      -18.310639    2.655015    3.146075
     12          6           0      -21.528843    4.514070    1.921402
     13          6           0      -21.251240    5.978277    2.047257
     14          1           0      -21.923148    6.707037    3.225999
     15          7           0      -21.218664   -1.463946    1.788823
     16          6           0      -21.079200   -0.931391    3.081294
     17          6           0      -21.301912   -1.935395    4.043753
     18          6           0      -21.617514   -3.192675    3.342349
     19          6           0      -21.512215   -2.829995    1.957820
     20          6           0      -21.103435   -1.791263    5.524347
     21          6           0      -21.903748   -4.669864    3.857005
     22          8           0      -22.164981   -5.557682    3.080323
     23          6           0      -21.958235   -4.984467    5.345167
     24          7           0      -21.234702   -2.269347   -1.102887
     25          6           0      -21.433575   -3.478301   -0.516902
     26          6           0      -21.481365   -4.630850   -1.630324
     27          6           0      -21.626394   -3.809094   -2.985241
     28          6           0      -21.307088   -2.345173   -2.459330
     29          6           0      -20.268725   -5.601454   -1.669655
     30          6           0      -23.042161   -3.915275   -3.656045
     31          6           0      -22.939142   -4.328997   -5.063850
     32          7           0      -20.799349    0.543158   -1.743595
     33          6           0      -20.952291    0.091575   -3.053580
     34          6           0      -20.770540    1.183546   -3.970763
     35          6           0      -20.544909    2.276477   -3.158996
     36          6           0      -20.594927    1.878466   -1.860284
     37          6           0      -20.927860    1.019411   -5.504994
     38          6           0      -20.249620    3.697484   -3.150670
     39          8           0      -19.998801    4.412691   -4.095574
     40          6           0      -20.148920    4.152345   -1.610728
     41          6           0      -18.805525    4.707121   -1.362983
     42          8           0      -17.729630    4.080348   -1.549274
     43          8           0      -18.944009    5.998910   -0.947142
     44          6           0      -17.696186    6.803992   -1.023298
     45          1           0      -20.411614    0.687164    4.315251
     46          1           0      -21.781824   -4.781197    0.994650
     47          1           0      -21.074005   -1.583599   -4.386369
     48          1           0      -19.411723    4.309272    1.497397
     49          1           0      -20.286341    3.063041    3.769570
     50          1           0      -17.753590    3.568710    2.934724
     51          1           0      -17.921079    1.816254    2.568586
     52          1           0      -18.058652    2.339992    4.158357
     53          1           0      -21.958235    4.089802    2.828792
     54          1           0      -22.308329    4.358543    1.174966
     55          1           0      -21.596161    6.338117    1.077775
     56          1           0      -20.187417    6.134055    2.225983
     57          1           0      -22.014614   -1.749963    6.121534
     58          1           0      -20.636173   -0.828832    5.728968
     59          1           0      -20.484052   -2.526299    6.037639
     60          1           0      -22.308961   -6.013527    5.413190
     61          1           0      -22.533092   -4.237562    5.893463
     62          1           0      -20.989680   -4.775848    5.800510
     63          1           0      -22.308624   -5.310366   -1.424738
     64          1           0      -20.847046   -4.142699   -3.672005
     65          1           0      -19.445351   -5.378316   -0.990357
     66          1           0      -19.805488   -5.667427   -2.654429
     67          1           0      -20.654784   -6.591374   -1.425059
     68          1           0      -23.498972   -2.924918   -3.658675
     69          1           0      -23.713028   -4.636248   -3.189340
     70          1           0      -23.151167   -5.396626   -5.127171
     71          1           0      -22.033099   -4.094057   -5.621289
     72          1           0      -23.661087   -3.768228   -5.657613
     73          1           0      -21.460192    0.089768   -5.707618
     74          1           0      -19.975622    1.149005   -6.021370
     75          1           0      -21.601332    1.827254   -5.788791
     76          1           0      -20.908057    4.893755   -1.360197
     77          1           0      -17.908357    7.851068   -0.807797
     78          1           0      -17.419906    6.791887   -2.077858
     79          1           0      -16.968349    6.316002   -0.374450
     80         12           0       20.142810   -0.686282   -0.227081
     81          6           0       21.932294    2.404167   -0.537687
     82          6           0       18.017043    0.801904    1.784883
     83          6           0       19.141819   -3.747312    0.555570
     84          6           0       22.873769   -2.170676   -2.193594
     85          7           0       19.979773    1.386041    0.490681
     86          6           0       20.819995    2.498036    0.283224
     87          6           0       20.345718    3.801534    1.030280
     88          6           0       18.984659    3.184399    1.729058
     89          6           0       18.945183    1.713585    1.326376
     90          6           0       18.998375    3.333156    3.310874
     91          6           0       20.135995    5.067882    0.128984
     92          6           0       19.303459    6.187294    0.742542
     93          1           0       20.080648    7.486327    1.023742
     94          7           0       18.694157   -1.365601    0.934541
     95          6           0       17.840530   -0.629884    1.722548
     96          6           0       16.864068   -1.456666    2.399893
     97          6           0       17.217787   -2.806661    2.002374
     98          6           0       18.375459   -2.657352    1.050270
     99          6           0       15.751629   -0.999847    3.220974
    100          6           0       16.573375   -4.132510    2.368071
    101          8           0       16.880261   -5.185391    1.883325
    102          6           0       15.554187   -4.053145    3.473470
    103          7           0       20.941445   -2.689301   -0.696363
    104          6           0       20.283547   -3.789715   -0.252109
    105          6           0       20.925033   -5.085910   -0.815568
    106          6           0       22.019289   -4.523013   -1.787826
    107          6           0       21.920263   -3.021654   -1.597818
    108          6           0       21.506338   -6.126171    0.201554
    109          6           0       21.856149   -4.896485   -3.303454
    110          6           0       22.298191   -6.340376   -3.629003
    111          7           0       22.011051   -0.103995   -1.160564
    112          6           0       22.924891   -0.762032   -1.951063
    113          6           0       23.863446    0.168835   -2.438283
    114          6           0       23.589427    1.372612   -1.905951
    115          6           0       22.435607    1.194220   -1.083956
    116          6           0       24.920766   -0.236154   -3.457102
    117          6           0       23.961570    2.780852   -1.736704
    118          8           0       24.885968    3.406126   -2.188517
    119          6           0       22.872899    3.489569   -0.797862
    120          6           0       23.551454    3.824530    0.491994
    121          8           0       23.728585    3.180518    1.501404
    122          8           0       23.945635    5.139955    0.347406
    123          6           0       24.640737    5.764994    1.497799
    124          1           0       17.293786    1.193616    2.502992
    125          1           0       18.861422   -4.719589    0.967824
    126          1           0       23.539544   -2.743483   -2.843304
    127          1           0       21.045419    3.987671    1.845231
    128          1           0       18.133008    3.760855    1.367072
    129          1           0       18.021499    3.678354    3.649124
    130          1           0       19.767429    3.947219    3.778709
    131          1           0       19.069935    2.352689    3.780684
    132          1           0       19.702946    4.595608   -0.753753
    133          1           0       21.014652    5.554197   -0.295329
    134          1           0       18.881627    5.840164    1.685340
    135          1           0       18.568077    6.515448    0.008468
    136          1           0       14.923831   -1.326768    2.591751
    137          1           0       15.803939    0.075571    3.391492
    138          1           0       15.616128   -1.458056    4.200450
    139          1           0       14.560640   -3.941343    3.039549
    140          1           0       15.890989   -3.481945    4.339055
    141          1           0       15.706379   -4.989944    4.008777
    142          1           0       20.191918   -5.477015   -1.521663
    143          1           0       23.004635   -4.763002   -1.387713
    144          1           0       22.565717   -6.362895    0.098507
    145          1           0       21.029639   -7.071603   -0.056358
    146          1           0       21.363104   -5.881321    1.253990
    147          1           0       22.475903   -4.233188   -3.905772
    148          1           0       20.807005   -4.699105   -3.527896
    149          1           0       22.980964   -6.710942   -2.864164
    150          1           0       22.743842   -6.296750   -4.622710
    151          1           0       21.485456   -7.067327   -3.628542
    152          1           0       25.230562    0.615117   -4.063391
    153          1           0       24.524826   -1.046661   -4.069078
    154          1           0       25.770824   -0.700818   -2.957019
    155          1           0       22.437479    4.367175   -1.276281
    156          1           0       25.433679    6.372876    1.062292
    157          1           0       25.069064    5.053955    2.204085
    158          1           0       23.815763    6.353560    1.900383
 ---------------------------------------------------------------------

 SCF Done:  E(RwB97XD) =  -4070.63763310     A.U. after   19 cycles

 Excitation energies and oscillator strengths:

 Excited State   1:      Singlet-A      1.6367 eV  757.53 nm  f=0.3936  <S**2>=0.000
     310 -> 316        0.18392
     312 -> 314        0.68417
     310 <- 316        0.11741
 This state for optimization and/or second-order correction.
 Total Energy, E(TD-HF/TD-DFT) =  -4070.57748590
 Copying the excited state density for this state as the 1-particle RhoCI density.

 Excited State   2:      Singlet-A      1.6894 eV  733.89 nm  f=0.3966  <S**2>=0.000
     309 -> 315        0.18338
     311 -> 313        0.68254
     309 <- 315        0.11554

 Excited State   3:      Singlet-A      2.1431 eV  578.52 nm  f=0.1501  <S**2>=0.000
     309 -> 313        0.65146
     311 -> 315       -0.25246

 Excited State   4:      Singlet-A      2.1545 eV  575.47 nm  f=0.1386  <S**2>=0.000
     310 -> 314        0.64882
     312 -> 316       -0.26855

 Excited State   5:      Singlet-A      3.1997 eV  387.49 nm  f=0.0021  <S**2>=0.000
     306 -> 313        0.29676
     308 -> 313        0.62296

 The electronic state is 1-A.
 Alpha  occ. eigenvalues --  -46.94896 -46.93566 -19.30900 -19.29079 -19.24957
 Alpha  occ. eigenvalues --  -19.24840 -19.24501 -19.24161 -19.24093 -19.23963
 Alpha  occ. eigenvalues --  -14.46815 -14.46699 -14.46116 -14.45895 -14.44208
 Alpha  occ. eigenvalues --  -14.43991 -14.43443 -14.43172 -10.43305 -10.42810
 Alpha  occ. eigenvalues --  -10.40380 -10.39294 -10.39062 -10.38717 -10.35937
 Alpha  occ. eigenvalues --  -10.35095 -10.34959 -10.34932 -10.34879 -10.34757
 Alpha  occ. eigenvalues --  -10.34712 -10.34675 -10.34443 -10.34375 -10.34232
 Alpha  occ. eigenvalues --  -10.34132 -10.34104 -10.34030 -10.33350 -10.33174
 Alpha  occ. eigenvalues --  -10.33103 -10.33103 -10.32970 -10.32940 -10.32901
 Alpha  occ. eigenvalues --  -10.32638 -10.32508 -10.32206 -10.32176 -10.32059
 Alpha  occ. eigenvalues --  -10.31871 -10.31853 -10.31842 -10.31797 -10.31720
 Alpha  occ. eigenvalues --  -10.31694 -10.31690 -10.31501 -10.31220 -10.31138
 Alpha  occ. eigenvalues --  -10.31051 -10.31036 -10.30919 -10.30881 -10.30851
 Alpha  occ. eigenvalues --  -10.30844 -10.30840 -10.30778 -10.30650 -10.30644
 Alpha  occ. eigenvalues --  -10.30444 -10.30374 -10.30032 -10.29995 -10.29981
 Alpha  occ. eigenvalues --  -10.29876 -10.29725 -10.29627 -10.29588 -10.29585
 Alpha  occ. eigenvalues --  -10.29472 -10.29373 -10.29206 -10.28743 -10.28459
 Alpha  occ. eigenvalues --  -10.28362  -3.20885  -3.19700  -1.94471  -1.93987
 Alpha  occ. eigenvalues --   -1.93874  -1.93302  -1.92818  -1.92701  -1.17958
 Alpha  occ. eigenvalues --   -1.17850  -1.13980  -1.13578  -1.13040  -1.12570
 Alpha  occ. eigenvalues --   -1.09656  -1.08541  -1.06975  -1.05813  -1.05372
 Alpha  occ. eigenvalues --   -1.05333  -1.04593  -1.04492  -1.03607  -1.03532
 Alpha  occ. eigenvalues --   -0.94994  -0.94567  -0.91096  -0.90821  -0.90576
 Alpha  occ. eigenvalues --   -0.90133  -0.89963  -0.89960  -0.89090  -0.88986
 Alpha  occ. eigenvalues --   -0.88756  -0.88405  -0.87967  -0.87790  -0.86240
 Alpha  occ. eigenvalues --   -0.85815  -0.85725  -0.85077  -0.84836  -0.84074
 Alpha  occ. eigenvalues --   -0.84062  -0.83956  -0.83166  -0.82658  -0.82653
 Alpha  occ. eigenvalues --   -0.82033  -0.80255  -0.80073  -0.79267  -0.78877
 Alpha  occ. eigenvalues --   -0.78712  -0.78561  -0.77673  -0.77466  -0.76852
 Alpha  occ. eigenvalues --   -0.76753  -0.74889  -0.74753  -0.73272  -0.72939
 Alpha  occ. eigenvalues --   -0.71562  -0.70661  -0.70627  -0.70048  -0.69719
 Alpha  occ. eigenvalues --   -0.69544  -0.68960  -0.68549  -0.67485  -0.67123
 Alpha  occ. eigenvalues --   -0.67000  -0.66609  -0.66561  -0.66348  -0.66075
 Alpha  occ. eigenvalues --   -0.65889  -0.63960  -0.63460  -0.62363  -0.62120
 Alpha  occ. eigenvalues --   -0.62067  -0.61460  -0.61278  -0.60800  -0.60256
 Alpha  occ. eigenvalues --   -0.60175  -0.59821  -0.59715  -0.59615  -0.58895
 Alpha  occ. eigenvalues --   -0.58209  -0.58089  -0.57668  -0.57662  -0.57446
 Alpha  occ. eigenvalues --   -0.56981  -0.56916  -0.56367  -0.56192  -0.56052
 Alpha  occ. eigenvalues --   -0.55741  -0.55604  -0.55559  -0.55413  -0.54613
 Alpha  occ. eigenvalues --   -0.54597  -0.54527  -0.54301  -0.53890  -0.53850
 Alpha  occ. eigenvalues --   -0.53771  -0.53553  -0.53538  -0.53280  -0.52995
 Alpha  occ. eigenvalues --   -0.52931  -0.52835  -0.52468  -0.52444  -0.52093
 Alpha  occ. eigenvalues --   -0.52081  -0.51769  -0.51720  -0.51609  -0.51412
 Alpha  occ. eigenvalues --   -0.51385  -0.51372  -0.51133  -0.51058  -0.50760
 Alpha  occ. eigenvalues --   -0.50672  -0.50338  -0.49917  -0.49910  -0.49735
 Alpha  occ. eigenvalues --   -0.49655  -0.49607  -0.49193  -0.48960  -0.48781
 Alpha  occ. eigenvalues --   -0.48670  -0.48596  -0.48411  -0.48280  -0.48089
 Alpha  occ. eigenvalues --   -0.47821  -0.47802  -0.47703  -0.47662  -0.47352
 Alpha  occ. eigenvalues --   -0.47343  -0.47212  -0.47110  -0.47015  -0.46957
 Alpha  occ. eigenvalues --   -0.46777  -0.46718  -0.46648  -0.46612  -0.46427
 Alpha  occ. eigenvalues --   -0.46311  -0.45954  -0.45773  -0.45454  -0.45378
 Alpha  occ. eigenvalues --   -0.45282  -0.45095  -0.44890  -0.44814  -0.44672
 Alpha  occ. eigenvalues --   -0.44598  -0.44473  -0.44325  -0.43989  -0.43901
 Alpha  occ. eigenvalues --   -0.43814  -0.43791  -0.43578  -0.43163  -0.43043
 Alpha  occ. eigenvalues --   -0.42906  -0.42805  -0.42690  -0.42388  -0.42372
 Alpha  occ. eigenvalues --   -0.41993  -0.41216  -0.41070  -0.40759  -0.40701
 Alpha  occ. eigenvalues --   -0.40300  -0.39984  -0.39925  -0.39782  -0.39669
 Alpha  occ. eigenvalues --   -0.38989  -0.38794  -0.38506  -0.38452  -0.38431
 Alpha  occ. eigenvalues --   -0.37945  -0.37731  -0.36563  -0.36261  -0.36131
 Alpha  occ. eigenvalues --   -0.35924  -0.35403  -0.34866  -0.33769  -0.33509
 Alpha  occ. eigenvalues --   -0.33471  -0.32858  -0.32829  -0.32569  -0.32286
 Alpha  occ. eigenvalues --   -0.32187  -0.31918  -0.31776  -0.25909  -0.25496
 Alpha  occ. eigenvalues --   -0.23366  -0.22758
 Alpha virt. eigenvalues --   -0.07397  -0.06887   0.00614   0.00805   0.02756
 Alpha virt. eigenvalues --    0.02944   0.04731   0.04846   0.05661   0.06448
 Alpha virt. eigenvalues --    0.06668   0.07499   0.08021   0.08145   0.08632

 Mulliken charges:
               1
     1  Mg   0.978571
     2  C   -0.032928
     3  C   -0.099747
     4  C   -0.063531
     5  C   -0.089463
     6  N   -0.322141
     7  C    0.015267
     8  C   -0.082474
     9  C   -0.128386
    10  C    0.030505
    11  C    0.020664
    12  C    0.044917
    13  C   -0.121149
    14  H    0.030810
    15  N   -0.522896
    16  C    0.241965
    17  C   -0.149261
    18  C   -0.081323
    19  C    0.154417
    20  C    0.041863
    21  C    0.076188
    22  O   -0.213762
    23  C   -0.007528
    24  N   -0.359283
    25  C    0.071718
    26  C   -0.108388
    27  C   -0.079665
    28  C    0.063481
    29  C    0.008318
    30  C    0.027444
    31  C   -0.074074
    32  N   -0.443857
    33  C    0.130245
    34  C   -0.214742
    35  C    0.007919
    36  C    0.121561
    37  C    0.094286
    38  C    0.108372
    39  O   -0.190842
    40  C   -0.041944
    41  C    0.275582
    42  O   -0.281963
    43  O   -0.372031
    44  C    0.141509
    45  H   -0.011126
    46  H    0.021689
    47  H   -0.003582
    48  H    0.026682
    49  H    0.025664
    50  H    0.045016
    51  H    0.043240
    52  H    0.033130
    53  H    0.030110
    54  H    0.030105
    55  H    0.065278
    56  H    0.054060
    57  H    0.051112
    58  H    0.023039
    59  H    0.045356
    60  H    0.070861
    61  H    0.046632
    62  H    0.048635
    63  H    0.037869
    64  H    0.037778
    65  H    0.044145
    66  H    0.029741
    67  H    0.037038
    68  H    0.035369
    69  H    0.037567
    70  H    0.038923
    71  H    0.028190
    72  H    0.026687
    73  H    0.030865
    74  H    0.066442
    75  H    0.049395
    76  H    0.057617
    77  H    0.060440
    78  H    0.064174
    79  H    0.067636
    80  Mg   0.976983
    81  C   -0.038668
    82  C   -0.071968
    83  C   -0.068578
    84  C   -0.096292
    85  N   -0.383176
    86  C   -0.009680
    87  C   -0.027087
    88  C   -0.121341
    89  C    0.109337
    90  C   -0.013722
    91  C   -0.019340
    92  C   -0.123096
    93  H    0.029458
    94  N   -0.491354
    95  C    0.111771
    96  C   -0.136116
    97  C   -0.128163
    98  C    0.164524
    99  C    0.081586
   100  C    0.041245
   101  O   -0.208223
   102  C   -0.027520
   103  N   -0.338927
   104  C    0.031403
   105  C   -0.031747
   106  C   -0.109746
   107  C    0.026872
   108  C    0.019860
   109  C   -0.035786
   110  C   -0.029324
   111  N   -0.401443
   112  C    0.165284
   113  C   -0.241999
   114  C    0.014044
   115  C    0.138349
   116  C    0.096234
   117  C    0.119931
   118  O   -0.173080
   119  C   -0.118360
   120  C    0.285229
   121  O   -0.233283
   122  O   -0.386723
   123  C    0.128167
   124  H   -0.028692
   125  H    0.025133
   126  H    0.001830
   127  H    0.050875
   128  H    0.047826
   129  H    0.031098
   130  H    0.050460
   131  H    0.042781
   132  H    0.033705
   133  H    0.059774
   134  H    0.061086
   135  H    0.063964
   136  H    0.057860
   137  H    0.039860
   138  H    0.047073
   139  H    0.079766
   140  H    0.047366
   141  H    0.039919
   142  H    0.038816
   143  H    0.032537
   144  H    0.032678
   145  H    0.039127
   146  H    0.051674
   147  H    0.028475
   148  H    0.032754
   149  H    0.031887
   150  H    0.042780
   151  H    0.037483
   152  H    0.058703
   153  H    0.027645
   154  H    0.045762
   155  H    0.081025
   156  H    0.063693
   157  H    0.072758
   158  H    0.054985
 Sum of Mulliken charges =  -0.00000

 Dipole moment (field-independent basis, Debye):
    X=             -4.5092    Y=              0.0975    Z=              5.3343  Tot=              6.9855
 Quadrupole moment (field-independent basis, Debye-Ang):
   XX=           -614.6799   YY=           -496.7985   ZZ=           -477.7387
   XY=             -5.3147   XZ=            -62.1936   YZ=             40.9394

 Normal termination of Gaussian 16 at Sat Sep 18 17:29:05 2021.
