 Gaussian 16, Revision A.03,
 Gaussian 16:  ES64L-G16RevA.03 25-Dec-2016

 --------------------------------
 #p wB97XD/Def2SVP td=(nstates=5)
 --------------------------------

 --------------------------------
 TDDFT excited states in gaussian
 --------------------------------
 Symbolic Z-matrix:
 Charge =  0 Multiplicity = 1

                         Standard orientation:
 ---------------------------------------------------------------------
 Center     Atomic      Atomic             Coordinates (Angstroms)
 Number     Number       Type             X           Y           Z
 ---------------------------------------------------------------------
      1         12           0      -13.290093   -0.431068    0.315282
      2          6           0      -13.254706    2.686691   -1.115837
      3          6           0      -11.624290    0.860729    3.019683
      4          6           0      -13.216145   -3.597740    1.727682
      5          6           0      -14.570031   -1.766147   -2.617240
      6          7           0      -12.456440    1.568520    0.899779
      7          6           0      -12.671145    2.691286    0.152300
      8          6           0      -12.131855    3.867351    0.810941
      9          6           0      -11.405903    3.346545    2.041297
     10          6           0      -11.802219    1.805839    2.010841
     11          6           0       -9.857157    3.563619    2.151764
     12          6           0      -13.250589    4.916014    1.132301
     13          6           0      -12.844051    6.429399    1.083693
     14          1           0      -11.375103    6.774500    1.397913
     15          7           0      -12.612840   -1.204658    2.191944
     16          6           0      -11.962501   -0.472735    3.170599
     17          6           0      -11.637327   -1.368187    4.299275
     18          6           0      -12.111006   -2.701457    3.933467
     19          6           0      -12.697455   -2.549687    2.590498
     20          6           0      -10.905917   -0.938992    5.560682
     21          6           0      -12.127498   -3.942142    4.795579
     22          8           0      -12.644736   -4.980938    4.348578
     23          6           0      -11.533437   -4.037765    6.150941
     24          7           0      -13.741774   -2.423255   -0.364196
     25          6           0      -13.676067   -3.502953    0.420079
     26          6           0      -14.280414   -4.727798   -0.286490
     27          6           0      -14.974460   -4.123239   -1.625720
     28          6           0      -14.459859   -2.647146   -1.487511
     29          6           0      -13.201515   -5.823868   -0.546443
     30          6           0      -16.526999   -4.165313   -1.651532
     31          6           0      -17.150137   -5.122705   -2.678414
     32          7           0      -13.762770    0.259978   -1.556430
     33          6           0      -14.267934   -0.399928   -2.679090
     34          6           0      -14.473370    0.561127   -3.785395
     35          6           0      -14.058734    1.769303   -3.176947
     36          6           0      -13.632883    1.532723   -1.842510
     37          6           0      -15.020916    0.315975   -5.104334
     38          6           0      -13.994210    3.230412   -3.387056
     39          8           0      -14.332926    3.920468   -4.311629
     40          6           0      -13.428425    3.864248   -2.066519
     41          6           0      -12.259753    4.689788   -2.410697
     42          8           0      -11.193660    4.154196   -2.754374
     43          8           0      -12.413608    6.023576   -2.185964
     44          6           0      -11.247569    6.893456   -2.303519
     45          1           0      -11.095147    1.303587    3.866060
     46          1           0      -13.150163   -4.592507    2.173806
     47          1           0      -15.090521   -2.207861   -3.469433
     48          1           0      -11.407909    4.325189    0.135978
     49          1           0      -11.895404    3.674124    2.959196
     50          1           0       -9.295078    4.101332    1.387507
     51          1           0       -9.390126    2.584644    2.256607
     52          1           0       -9.550218    4.033644    3.086416
     53          1           0      -13.725612    4.664683    2.080684
     54          1           0      -14.113699    4.712117    0.498885
     55          1           0      -13.472498    7.006186    1.762862
     56          1           0      -12.921892    6.857727    0.084843
     57          1           0      -10.749273    0.137273    5.624161
     58          1           0       -9.907911   -1.376080    5.603474
     59          1           0      -11.539812   -1.099229    6.432623
     60          1           0      -11.792648   -5.026152    6.529215
     61          1           0      -11.887173   -3.267405    6.837403
     62          1           0      -10.462389   -3.843478    6.091766
     63          1           0      -15.113029   -5.067068    0.329885
     64          1           0      -14.562580   -4.551772   -2.539335
     65          1           0      -13.507072   -6.819415   -0.224265
     66          1           0      -12.278457   -5.593463   -0.013787
     67          1           0      -13.007182   -5.751353   -1.616790
     68          1           0      -16.981020   -3.193768   -1.843028
     69          1           0      -16.941669   -4.445790   -0.683048
     70          1           0      -16.463341   -5.947650   -2.868176
     71          1           0      -17.289089   -4.572184   -3.608321
     72          1           0      -18.136420   -5.385867   -2.298419
     73          1           0      -15.377780    1.224415   -5.589097
     74          1           0      -15.838462   -0.404673   -5.104719
     75          1           0      -14.191177    0.054024   -5.761014
     76          1           0      -14.289007    4.445732   -1.734060
     77          1           0      -10.847903    6.973647   -3.314797
     78          1           0      -10.482775    6.621944   -1.575933
     79          1           0      -11.533420    7.916868   -2.061087
     80         12           0       12.597811   -0.854091   -0.372829
     81          6           0       14.843394    1.865144   -0.045534
     82          6           0       10.178378    1.297797    0.944108
     83          6           0       10.358101   -3.230821   -0.711045
     84          6           0       15.296615   -2.988442   -0.873759
     85          7           0       12.560217    1.324300    0.315811
     86          6           0       13.536573    2.269344    0.222268
     87          6           0       13.162988    3.675660    0.721378
     88          6           0       11.639634    3.361082    1.144702
     89          6           0       11.485269    1.912453    0.787163
     90          6           0       11.334921    3.568426    2.681035
     91          6           0       13.272746    4.768875   -0.391033
     92          6           0       14.298551    5.895583   -0.397288
     93          1           0       13.950465    7.278629   -0.931629
     94          7           0       10.522957   -0.961017   -0.022696
     95          6           0        9.713578    0.006031    0.590732
     96          6           0        8.403958   -0.579432    0.771537
     97          6           0        8.381233   -1.829110    0.157195
     98          6           0        9.777098   -2.034257   -0.276182
     99          6           0        7.313556    0.275578    1.321033
    100          6           0        7.272781   -2.873171    0.026981
    101          8           0        7.403007   -3.970672   -0.523654
    102          6           0        5.920069   -2.474404    0.469266
    103          7           0       12.768016   -2.858873   -0.637767
    104          6           0       11.697265   -3.643119   -0.966707
    105          6           0       12.162878   -4.983162   -1.630708
    106          6           0       13.681578   -4.889268   -1.561484
    107          6           0       13.960879   -3.505565   -0.911651
    108          6           0       11.524919   -6.256189   -0.984487
    109          6           0       14.273050   -5.037325   -2.971584
    110          6           0       15.463160   -5.908022   -3.150888
    111          7           0       14.664658   -0.688858   -0.355080
    112          6           0       15.638018   -1.623833   -0.601450
    113          6           0       16.945238   -1.039384   -0.565580
    114          6           0       16.733952    0.420710   -0.442561
    115          6           0       15.294019    0.549791   -0.325463
    116          6           0       18.275747   -1.800012   -0.697985
    117          6           0       17.351432    1.768813   -0.368003
    118          8           0       18.527610    2.123757   -0.555045
    119          6           0       16.127742    2.742111   -0.113423
    120          6           0       16.552763    3.356876    1.183413
    121          8           0       16.363848    2.944343    2.321349
    122          8           0       17.086150    4.531453    0.986610
    123          6           0       17.725533    5.247931    2.116852
    124          1           0        9.503904    2.112678    1.214020
    125          1           0        9.731290   -4.117066   -0.827147
    126          1           0       16.124780   -3.661525   -1.103602
    127          1           0       13.767501    3.883095    1.605236
    128          1           0       10.838474    3.867603    0.605591
    129          1           0       12.190481    3.638999    3.352146
    130          1           0       10.740109    2.735934    3.055240
    131          1           0       10.745932    4.478944    2.792758
    132          1           0       12.310084    5.279969   -0.411737
    133          1           0       13.441332    4.303162   -1.361175
    134          1           0       15.004437    5.510978   -1.133575
    135          1           0       14.629558    5.895216    0.641286
    136          1           0        6.500937    0.406807    0.607850
    137          1           0        7.685413    1.266485    1.582883
    138          1           0        6.852325   -0.137647    2.217522
    139          1           0        5.663914   -1.510144    0.030118
    140          1           0        5.882563   -2.236008    1.532312
    141          1           0        5.127717   -3.158953    0.168178
    142          1           0       11.768803   -4.872075   -2.640756
    143          1           0       14.102335   -5.723139   -0.999836
    144          1           0       10.725536   -6.045291   -0.274279
    145          1           0       12.235734   -6.875823   -0.439029
    146          1           0       11.219388   -6.951212   -1.766458
    147          1           0       14.534036   -4.010074   -3.222816
    148          1           0       13.585105   -5.441340   -3.713874
    149          1           0       16.202606   -5.263929   -3.626192
    150          1           0       15.190069   -6.813249   -3.693097
    151          1           0       15.955286   -6.209858   -2.226078
    152          1           0       18.617117   -2.091224    0.294690
    153          1           0       18.990503   -1.150208   -1.202713
    154          1           0       18.165465   -2.728351   -1.258879
    155          1           0       16.143182    3.478287   -0.916902
    156          1           0       17.047408    5.474527    2.938863
    157          1           0       18.229336    6.171260    1.831613
    158          1           0       18.560719    4.747777    2.606215
 ---------------------------------------------------------------------

 SCF Done:  E(RwB97XD) =  -4070.64239061     A.U. after   19 cycles

 Excitation energies and oscillator strengths:

 Excited State   1:      Singlet-A      1.6695 eV  742.63 nm  f=0.3911  <S**2>=0.000
     309 -> 316        0.19462
     312 -> 314        0.67994
     309 <- 316        0.11866
 This state for optimization and/or second-order correction.
 Total Energy, E(TD-HF/TD-DFT) =  -4070.58103629
 Copying the excited state density for this state as the 1-particle RhoCI density.

 Excited State   2:      Singlet-A      1.7238 eV  719.24 nm  f=0.3794  <S**2>=0.000
     310 -> 315        0.18627
     311 -> 313        0.68144
     310 <- 315        0.11191

 Excited State   3:      Singlet-A      2.1685 eV  571.76 nm  f=0.0993  <S**2>=0.000
     310 -> 313        0.63391
     311 -> 315       -0.29504

 Excited State   4:      Singlet-A      2.1970 eV  564.34 nm  f=0.0843  <S**2>=0.000
     309 -> 314        0.62402
     312 -> 316       -0.31823

 Excited State   5:      Singlet-A      3.7315 eV  332.26 nm  f=0.0000  <S**2>=0.000
     312 -> 313        0.70695

 The electronic state is 1-A.
 Alpha  occ. eigenvalues --  -46.95303 -46.94868 -19.31283 -19.30469 -19.24677
 Alpha  occ. eigenvalues --  -19.24354 -19.24172 -19.23879 -19.23488 -19.23110
 Alpha  occ. eigenvalues --  -14.47174 -14.46492 -14.46488 -14.46374 -14.44463
 Alpha  occ. eigenvalues --  -14.44206 -14.43914 -14.43550 -10.43512 -10.42456
 Alpha  occ. eigenvalues --  -10.40004 -10.39436 -10.39014 -10.38957 -10.36171
 Alpha  occ. eigenvalues --  -10.35751 -10.35684 -10.35472 -10.35285 -10.35004
 Alpha  occ. eigenvalues --  -10.34894 -10.34869 -10.34773 -10.34753 -10.34508
 Alpha  occ. eigenvalues --  -10.34495 -10.34201 -10.34156 -10.34035 -10.33664
 Alpha  occ. eigenvalues --  -10.33426 -10.33384 -10.33119 -10.32821 -10.32777
 Alpha  occ. eigenvalues --  -10.32762 -10.32714 -10.32654 -10.32604 -10.32425
 Alpha  occ. eigenvalues --  -10.32368 -10.32218 -10.32146 -10.32145 -10.32039
 Alpha  occ. eigenvalues --  -10.32024 -10.32005 -10.31978 -10.31752 -10.31740
 Alpha  occ. eigenvalues --  -10.31533 -10.31521 -10.31506 -10.31420 -10.31346
 Alpha  occ. eigenvalues --  -10.31114 -10.31062 -10.30994 -10.30611 -10.30437
 Alpha  occ. eigenvalues --  -10.30429 -10.30312 -10.30182 -10.30050 -10.30038
 Alpha  occ. eigenvalues --  -10.30002 -10.30000 -10.29900 -10.29726 -10.29703
 Alpha  occ. eigenvalues --  -10.29449 -10.29433 -10.29399 -10.29222 -10.29112
 Alpha  occ. eigenvalues --  -10.28640  -3.21173  -3.20898  -1.94784  -1.94490
 Alpha  occ. eigenvalues --   -1.94279  -1.94148  -1.94023  -1.93874  -1.19954
 Alpha  occ. eigenvalues --   -1.18710  -1.13273  -1.12357  -1.11213  -1.10574
 Alpha  occ. eigenvalues --   -1.09406  -1.08639  -1.07493  -1.07202  -1.06141
 Alpha  occ. eigenvalues --   -1.06115  -1.05478  -1.04777  -1.03331  -1.03089
 Alpha  occ. eigenvalues --   -0.94540  -0.93773  -0.91483  -0.91102  -0.90957
 Alpha  occ. eigenvalues --   -0.90693  -0.90247  -0.89705  -0.89670  -0.89210
 Alpha  occ. eigenvalues --   -0.88745  -0.88678  -0.88295  -0.87042  -0.86207
 Alpha  occ. eigenvalues --   -0.85974  -0.85530  -0.85356  -0.84771  -0.84663
 Alpha  occ. eigenvalues --   -0.84292  -0.83873  -0.83241  -0.82761  -0.82595
 Alpha  occ. eigenvalues --   -0.82495  -0.80792  -0.80488  -0.79578  -0.79407
 Alpha  occ. eigenvalues --   -0.79328  -0.78776  -0.78238  -0.78084  -0.77124
 Alpha  occ. eigenvalues --   -0.76902  -0.74681  -0.74190  -0.73803  -0.73574
 Alpha  occ. eigenvalues --   -0.71259  -0.71224  -0.70340  -0.70108  -0.70106
 Alpha  occ. eigenvalues --   -0.69592  -0.69009  -0.68966  -0.67865  -0.67772
 Alpha  occ. eigenvalues --   -0.67415  -0.67190  -0.67133  -0.66872  -0.66415
 Alpha  occ. eigenvalues --   -0.66192  -0.64800  -0.64366  -0.63012  -0.61924
 Alpha  occ. eigenvalues --   -0.61648  -0.61485  -0.61301  -0.60937  -0.60802
 Alpha  occ. eigenvalues --   -0.60461  -0.60300  -0.59775  -0.59640  -0.59360
 Alpha  occ. eigenvalues --   -0.58742  -0.58127  -0.57924  -0.57542  -0.57436
 Alpha  occ. eigenvalues --   -0.56929  -0.56763  -0.56211  -0.56123  -0.56009
 Alpha  occ. eigenvalues --   -0.55764  -0.55547  -0.55478  -0.54958  -0.54901
 Alpha  occ. eigenvalues --   -0.54812  -0.54586  -0.54489  -0.54428  -0.54233
 Alpha  occ. eigenvalues --   -0.54049  -0.53624  -0.53490  -0.53349  -0.53321
 Alpha  occ. eigenvalues --   -0.53160  -0.52549  -0.52408  -0.52209  -0.51994
 Alpha  occ. eigenvalues --   -0.51969  -0.51895  -0.51858  -0.51667  -0.51389
 Alpha  occ. eigenvalues --   -0.51381  -0.51042  -0.51015  -0.50594  -0.50539
 Alpha  occ. eigenvalues --   -0.50473  -0.50457  -0.50122  -0.50106  -0.50012
 Alpha  occ. eigenvalues --   -0.49930  -0.49726  -0.49491  -0.49331  -0.49242
 Alpha  occ. eigenvalues --   -0.49149  -0.48734  -0.48565  -0.48260  -0.48260
 Alpha  occ. eigenvalues --   -0.48004  -0.47897  -0.47765  -0.47714  -0.47533
 Alpha  occ. eigenvalues --   -0.47526  -0.47394  -0.47242  -0.47063  -0.46967
 Alpha  occ. eigenvalues --   -0.46928  -0.46558  -0.46549  -0.46338  -0.46299
 Alpha  occ. eigenvalues --   -0.46200  -0.45928  -0.45839  -0.45642  -0.45479
 Alpha  occ. eigenvalues --   -0.45179  -0.45170  -0.45042  -0.45003  -0.44749
 Alpha  occ. eigenvalues --   -0.44637  -0.44279  -0.44165  -0.43964  -0.43887
 Alpha  occ. eigenvalues --   -0.43625  -0.43450  -0.43297  -0.43222  -0.43150
 Alpha  occ. eigenvalues --   -0.42924  -0.42696  -0.42666  -0.42320  -0.42314
 Alpha  occ. eigenvalues --   -0.41973  -0.41951  -0.41724  -0.41486  -0.41408
 Alpha  occ. eigenvalues --   -0.40349  -0.40162  -0.39871  -0.39509  -0.39291
 Alpha  occ. eigenvalues --   -0.39276  -0.38865  -0.38798  -0.38701  -0.38369
 Alpha  occ. eigenvalues --   -0.38019  -0.37774  -0.36414  -0.36106  -0.36009
 Alpha  occ. eigenvalues --   -0.35522  -0.35450  -0.35148  -0.34126  -0.33815
 Alpha  occ. eigenvalues --   -0.33363  -0.32973  -0.32786  -0.32606  -0.32487
 Alpha  occ. eigenvalues --   -0.32314  -0.31783  -0.30824  -0.25882  -0.25861
 Alpha  occ. eigenvalues --   -0.23009  -0.22689
 Alpha virt. eigenvalues --   -0.06859  -0.06738   0.00059   0.00101   0.01856
 Alpha virt. eigenvalues --    0.02504   0.04170   0.04602   0.05784   0.06040
 Alpha virt. eigenvalues --    0.06518   0.07698   0.07843   0.08338   0.08538

 Mulliken charges:
               1
     1  Mg   0.952316
     2  C   -0.030082
     3  C   -0.087707
     4  C   -0.053737
     5  C   -0.078977
     6  N   -0.317044
     7  C   -0.009080
     8  C   -0.054042
     9  C   -0.041488
    10  C   -0.009112
    11  C    0.020090
    12  C    0.021154
    13  C   -0.115041
    14  H    0.015336
    15  N   -0.461389
    16  C    0.197456
    17  C   -0.169721
    18  C   -0.061093
    19  C    0.119897
    20  C    0.061203
    21  C    0.038476
    22  O   -0.262704
    23  C    0.013393
    24  N   -0.333132
    25  C    0.064233
    26  C   -0.091917
    27  C   -0.098965
    28  C    0.041374
    29  C    0.031123
    30  C   -0.015311
    31  C   -0.053814
    32  N   -0.449195
    33  C    0.129859
    34  C   -0.162171
    35  C   -0.055513
    36  C    0.145065
    37  C    0.075953
    38  C    0.096408
    39  O   -0.183810
    40  C   -0.042158
    41  C    0.280550
    42  O   -0.276188
    43  O   -0.352371
    44  C    0.141065
    45  H   -0.024001
    46  H    0.028293
    47  H   -0.002270
    48  H    0.045823
    49  H    0.034504
    50  H    0.048639
    51  H    0.030946
    52  H    0.026726
    53  H    0.018710
    54  H    0.024910
    55  H    0.055170
    56  H    0.067014
    57  H    0.025533
    58  H    0.064003
    59  H    0.051519
    60  H    0.063809
    61  H    0.041649
    62  H    0.052961
    63  H    0.040649
    64  H    0.038420
    65  H    0.048366
    66  H    0.045983
    67  H    0.029757
    68  H    0.031780
    69  H    0.025805
    70  H    0.040642
    71  H    0.032201
    72  H    0.041645
    73  H    0.049827
    74  H    0.047632
    75  H    0.057524
    76  H    0.066963
    77  H    0.067198
    78  H    0.052299
    79  H    0.050184
    80  Mg   0.972628
    81  C    0.039471
    82  C   -0.094942
    83  C   -0.084733
    84  C   -0.089045
    85  N   -0.280156
    86  C   -0.033570
    87  C   -0.039562
    88  C   -0.125310
    89  C    0.009576
    90  C    0.001886
    91  C   -0.006318
    92  C   -0.125521
    93  H    0.045815
    94  N   -0.445395
    95  C    0.189229
    96  C   -0.135335
    97  C   -0.078151
    98  C    0.174128
    99  C    0.050714
   100  C    0.084297
   101  O   -0.232367
   102  C   -0.006930
   103  N   -0.424711
   104  C    0.030626
   105  C   -0.065404
   106  C   -0.064814
   107  C    0.113757
   108  C    0.012592
   109  C   -0.040726
   110  C   -0.047846
   111  N   -0.454657
   112  C    0.145725
   113  C   -0.198922
   114  C   -0.045535
   115  C    0.123287
   116  C    0.077670
   117  C    0.112804
   118  O   -0.226555
   119  C   -0.112943
   120  C    0.233057
   121  O   -0.268698
   122  O   -0.310148
   123  C    0.148291
   124  H    0.001823
   125  H    0.016118
   126  H   -0.006125
   127  H    0.060579
   128  H    0.045623
   129  H    0.052639
   130  H    0.037731
   131  H    0.037402
   132  H    0.038471
   133  H    0.032749
   134  H    0.062057
   135  H    0.051760
   136  H    0.054721
   137  H    0.035352
   138  H    0.048220
   139  H    0.039758
   140  H    0.049650
   141  H    0.061473
   142  H    0.054061
   143  H    0.031665
   144  H    0.057293
   145  H    0.025251
   146  H    0.035251
   147  H    0.036545
   148  H    0.031315
   149  H    0.037267
   150  H    0.043647
   151  H    0.025442
   152  H    0.056322
   153  H    0.061407
   154  H    0.025382
   155  H    0.075645
   156  H    0.050708
   157  H    0.052450
   158  H    0.053086
 Sum of Mulliken charges =  -0.00000

 Dipole moment (field-independent basis, Debye):
    X=             -5.2294    Y=              2.4715    Z=              3.6359  Tot=              6.8318
 Quadrupole moment (field-independent basis, Debye-Ang):
   XX=           -635.6257   YY=           -481.0372   ZZ=           -504.1813
   XY=             -8.2250   XZ=            -41.4280   YZ=             40.6850

 Normal termination of Gaussian 16 at Mon Sep 20 00:55:45 2021.
