 Gaussian 16, Revision A.03,
 Gaussian 16:  ES64L-G16RevA.03 25-Dec-2016

 --------------------------------
 #p wB97XD/Def2SVP td=(nstates=5)
 --------------------------------

 --------------------------------
 TDDFT excited states in gaussian
 --------------------------------
 Symbolic Z-matrix:
 Charge =  0 Multiplicity = 1

                         Standard orientation:
 ---------------------------------------------------------------------
 Center     Atomic      Atomic             Coordinates (Angstroms)
 Number     Number       Type             X           Y           Z
 ---------------------------------------------------------------------
      1         12           0       23.205514   -0.598115    0.102301
      2          6           0       20.973604    1.773211    1.025398
      3          6           0       25.531463    1.875691   -0.629127
      4          6           0       25.435495   -2.969913   -0.826800
      5          6           0       20.743404   -3.017794    0.359627
      6          7           0       23.219007    1.497086    0.310872
      7          6           0       22.196741    2.311102    0.676575
      8          6           0       22.636919    3.739782    0.862365
      9          6           0       23.999278    3.800989    0.072591
     10          6           0       24.287742    2.270447   -0.068790
     11          6           0       24.109337    4.633749   -1.272459
     12          6           0       22.880297    4.088788    2.399478
     13          6           0       22.744224    5.611802    2.694007
     14          1           0       23.023285    6.675209    1.618630
     15          7           0       25.210330   -0.591846   -0.715655
     16          6           0       25.980978    0.582893   -0.918835
     17          6           0       27.275878    0.223425   -1.413115
     18          6           0       27.276723   -1.214379   -1.500701
     19          6           0       25.924740   -1.628233   -0.980343
     20          6           0       28.383542    1.184643   -1.667815
     21          6           0       28.382769   -2.153163   -1.969452
     22          8           0       28.271364   -3.404226   -2.128235
     23          6           0       29.749850   -1.583017   -2.307422
     24          7           0       23.098894   -2.671031   -0.259295
     25          6           0       24.213634   -3.487220   -0.457689
     26          6           0       23.951721   -5.006014   -0.243358
     27          6           0       22.383816   -4.929296    0.196603
     28          6           0       22.036571   -3.487051    0.132980
     29          6           0       24.206444   -5.748970   -1.561150
     30          6           0       22.077189   -5.585205    1.510639
     31          6           0       21.012667   -6.640878    1.419502
     32          7           0       21.283964   -0.711058    0.456243
     33          6           0       20.363007   -1.745018    0.570420
     34          6           0       19.090480   -1.229550    0.916706
     35          6           0       19.227160    0.175737    1.075248
     36          6           0       20.599735    0.445881    0.891956
     37          6           0       17.818959   -1.954060    1.140841
     38          6           0       18.512070    1.416171    1.281173
     39          8           0       17.345003    1.722456    1.428152
     40          6           0       19.696969    2.493614    1.321945
     41          6           0       19.335915    3.758471    0.629868
     42          8           0       18.771816    3.863367   -0.429190
     43          8           0       19.668816    4.857639    1.324284
     44          6           0       19.331109    6.141112    0.645562
     45          1           0       26.115262    2.726054   -0.987970
     46          1           0       26.116798   -3.708707   -1.253760
     47          1           0       19.941434   -3.727457    0.573000
     48          1           0       21.993083    4.445450    0.337649
     49          1           0       24.770197    4.164355    0.751353
     50          1           0       23.164153    5.160695   -1.403583
     51          1           0       24.341458    4.089633   -2.186596
     52          1           0       24.950091    5.315865   -1.144742
     53          1           0       23.875037    3.694480    2.607857
     54          1           0       22.136107    3.538623    2.975456
     55          1           0       23.429629    5.745019    3.531211
     56          1           0       21.756600    5.746887    3.134183
     57          1           0       28.963352    1.483084   -0.794343
     58          1           0       27.914290    2.040086   -2.152117
     59          1           0       29.041825    0.875402   -2.479144
     60          1           0       29.675616   -1.221203   -3.332824
     61          1           0       30.424081   -2.438465   -2.273981
     62          1           0       30.060484   -0.760647   -1.662729
     63          1           0       24.692841   -5.337825    0.483888
     64          1           0       21.791161   -5.457928   -0.550758
     65          1           0       24.376202   -5.121847   -2.436613
     66          1           0       23.428559   -6.499773   -1.698006
     67          1           0       25.159280   -6.262672   -1.430193
     68          1           0       21.685250   -4.893026    2.255988
     69          1           0       22.936244   -6.040219    2.003841
     70          1           0       21.292424   -7.574258    1.907170
     71          1           0       20.783198   -6.884995    0.382609
     72          1           0       20.120118   -6.150836    1.809605
     73          1           0       17.678058   -2.865784    0.559556
     74          1           0       17.083338   -1.319413    0.645851
     75          1           0       17.676353   -2.135927    2.206112
     76          1           0       19.653315    2.686024    2.394334
     77          1           0       18.269127    6.378686    0.722215
     78          1           0       19.737967    6.187581   -0.364729
     79          1           0       19.847485    6.946201    1.168906
     80         12           0      -23.243834   -0.689451    0.071445
     81          6           0      -22.359574    2.509552   -1.157783
     82          6           0      -23.167651    0.594331    3.191599
     83          6           0      -23.926992   -3.700405    1.160368
     84          6           0      -22.534662   -1.963100   -3.206167
     85          7           0      -22.706151    1.335836    0.973115
     86          6           0      -22.638745    2.499252    0.224988
     87          6           0      -22.748510    3.635713    1.183226
     88          6           0      -22.438075    3.024678    2.550005
     89          6           0      -22.806879    1.544898    2.277356
     90          6           0      -20.907112    3.160697    2.892579
     91          6           0      -24.153707    4.446774    1.196873
     92          6           0      -24.167291    6.003690    1.284531
     93          1           0      -23.293415    6.650332    2.397928
     94          7           0      -23.496068   -1.426472    1.966234
     95          6           0      -23.441527   -0.744695    3.072255
     96          6           0      -23.656139   -1.671814    4.196836
     97          6           0      -24.099569   -2.911456    3.644204
     98          6           0      -23.827568   -2.734826    2.189395
     99          6           0      -23.500071   -1.400672    5.737463
    100          6           0      -24.687637   -4.162871    4.295356
    101          8           0      -24.921488   -5.225305    3.688144
    102          6           0      -24.795932   -4.200617    5.745634
    103          7           0      -23.052869   -2.626113   -0.912681
    104          6           0      -23.528750   -3.740853   -0.227355
    105          6           0      -23.653297   -4.945983   -1.237504
    106          6           0      -23.337182   -4.295658   -2.607439
    107          6           0      -22.986844   -2.851457   -2.242134
    108          6           0      -22.817977   -6.158866   -0.826737
    109          6           0      -24.411372   -4.468138   -3.710702
    110          6           0      -23.924982   -4.728925   -5.155406
    111          7           0      -22.572166    0.055162   -1.808115
    112          6           0      -22.283373   -0.568845   -3.017623
    113          6           0      -22.014924    0.446316   -4.004204
    114          6           0      -21.978497    1.654482   -3.306384
    115          6           0      -22.337555    1.397293   -1.954513
    116          6           0      -21.845719    0.261121   -5.385271
    117          6           0      -21.810782    3.110629   -3.422592
    118          8           0      -21.588456    3.846748   -4.370790
    119          6           0      -22.082516    3.724543   -2.010271
    120          6           0      -20.851412    4.523558   -1.621426
    121          8           0      -19.791981    4.227133   -1.117103
    122          8           0      -21.253617    5.800424   -1.887894
    123          6           0      -20.449115    6.909355   -1.321739
    124          1           0      -23.233490    1.013924    4.197993
    125          1           0      -24.355554   -4.633131    1.532769
    126          1           0      -22.535060   -2.294703   -4.246154
    127          1           0      -22.044769    4.455298    1.035742
    128          1           0      -23.131391    3.351585    3.324570
    129          1           0      -20.701115    3.277892    3.955966
    130          1           0      -20.454725    4.066723    2.488642
    131          1           0      -20.464110    2.220127    2.566990
    132          1           0      -24.812504    4.011504    1.947568
    133          1           0      -24.715895    4.214840    0.291537
    134          1           0      -25.198659    6.206118    1.575598
    135          1           0      -23.879435    6.281750    0.270637
    136          1           0      -24.429021   -1.395488    6.307211
    137          1           0      -23.011844   -0.431054    5.839270
    138          1           0      -22.957205   -2.166621    6.291349
    139          1           0      -25.358554   -3.343624    6.116870
    140          1           0      -23.808666   -4.216594    6.207492
    141          1           0      -25.447109   -5.039312    5.989978
    142          1           0      -24.715911   -5.184121   -1.287176
    143          1           0      -22.368043   -4.631331   -2.975973
    144          1           0      -21.821357   -6.067785   -1.259910
    145          1           0      -23.180608   -7.111019   -1.212728
    146          1           0      -22.593422   -6.089840    0.237135
    147          1           0      -25.153663   -3.670514   -3.736394
    148          1           0      -25.079108   -5.298456   -3.477017
    149          1           0      -23.960027   -3.746857   -5.627242
    150          1           0      -24.705622   -5.345602   -5.601997
    151          1           0      -22.922900   -5.156759   -5.143595
    152          1           0      -21.301794    1.000717   -5.972412
    153          1           0      -22.839425    0.090901   -5.800802
    154          1           0      -21.246661   -0.643730   -5.481015
    155          1           0      -22.969689    4.356709   -2.042721
    156          1           0      -21.186540    7.614923   -0.940091
    157          1           0      -19.813424    7.450198   -2.022340
    158          1           0      -19.850317    6.545921   -0.487011
 ---------------------------------------------------------------------

 SCF Done:  E(RwB97XD) =  -4070.60469956     A.U. after   19 cycles

 Excitation energies and oscillator strengths:

 Excited State   1:      Singlet-A      1.5874 eV  781.03 nm  f=0.3907  <S**2>=0.000
     309 -> 316       -0.17577
     311 -> 313        0.68654
     309 <- 316       -0.11664
 This state for optimization and/or second-order correction.
 Total Energy, E(TD-HF/TD-DFT) =  -4070.54636222
 Copying the excited state density for this state as the 1-particle RhoCI density.

 Excited State   2:      Singlet-A      1.6742 eV  740.54 nm  f=0.3807  <S**2>=0.000
     310 -> 315       -0.19699
     312 -> 314        0.67926
     310 <- 315       -0.11758

 Excited State   3:      Singlet-A      2.1692 eV  571.57 nm  f=0.1093  <S**2>=0.000
     309 -> 313        0.63605
     311 -> 316        0.29407

 Excited State   4:      Singlet-A      2.2066 eV  561.88 nm  f=0.0674  <S**2>=0.000
     310 -> 314        0.62036
     312 -> 315        0.32386

 Excited State   5:      Singlet-A      3.3097 eV  374.61 nm  f=0.0147  <S**2>=0.000
     306 -> 313        0.10143
     307 -> 313        0.67086
     311 -> 316       -0.11080

 The electronic state is 1-A.
 Alpha  occ. eigenvalues --  -46.95683 -46.93497 -19.30356 -19.29576 -19.24944
 Alpha  occ. eigenvalues --  -19.24279 -19.24267 -19.23701 -19.23679 -19.23540
 Alpha  occ. eigenvalues --  -14.47448 -14.46339 -14.46282 -14.45975 -14.44406
 Alpha  occ. eigenvalues --  -14.44097 -14.43531 -14.43392 -10.43058 -10.42402
 Alpha  occ. eigenvalues --  -10.39470 -10.39208 -10.39159 -10.38805 -10.35799
 Alpha  occ. eigenvalues --  -10.35749 -10.35367 -10.35171 -10.34938 -10.34805
 Alpha  occ. eigenvalues --  -10.34794 -10.34704 -10.34503 -10.34301 -10.34108
 Alpha  occ. eigenvalues --  -10.34017 -10.33965 -10.33883 -10.33811 -10.33625
 Alpha  occ. eigenvalues --  -10.33536 -10.33319 -10.32950 -10.32879 -10.32823
 Alpha  occ. eigenvalues --  -10.32292 -10.32175 -10.32173 -10.32086 -10.31936
 Alpha  occ. eigenvalues --  -10.31903 -10.31900 -10.31895 -10.31806 -10.31797
 Alpha  occ. eigenvalues --  -10.31746 -10.31616 -10.31591 -10.31585 -10.31577
 Alpha  occ. eigenvalues --  -10.31556 -10.31554 -10.31529 -10.31323 -10.31274
 Alpha  occ. eigenvalues --  -10.31226 -10.31130 -10.30740 -10.30666 -10.30542
 Alpha  occ. eigenvalues --  -10.30278 -10.30201 -10.29958 -10.29897 -10.29695
 Alpha  occ. eigenvalues --  -10.29619 -10.29607 -10.29533 -10.29485 -10.29444
 Alpha  occ. eigenvalues --  -10.29429 -10.29314 -10.29267 -10.29065 -10.28903
 Alpha  occ. eigenvalues --  -10.28811  -3.21528  -3.19746  -1.95111  -1.94649
 Alpha  occ. eigenvalues --   -1.94486  -1.93335  -1.92861  -1.92768  -1.19462
 Alpha  occ. eigenvalues --   -1.18260  -1.12371  -1.11798  -1.11557  -1.09937
 Alpha  occ. eigenvalues --   -1.09612  -1.09436  -1.07161  -1.06506  -1.05919
 Alpha  occ. eigenvalues --   -1.05589  -1.05022  -1.04714  -1.04065  -1.03410
 Alpha  occ. eigenvalues --   -0.95344  -0.94718  -0.91569  -0.90738  -0.90714
 Alpha  occ. eigenvalues --   -0.90433  -0.90339  -0.89851  -0.89582  -0.89461
 Alpha  occ. eigenvalues --   -0.89157  -0.89048  -0.88780  -0.88347  -0.86223
 Alpha  occ. eigenvalues --   -0.86111  -0.85709  -0.85456  -0.84585  -0.84381
 Alpha  occ. eigenvalues --   -0.84366  -0.83577  -0.83418  -0.82989  -0.82540
 Alpha  occ. eigenvalues --   -0.82452  -0.80320  -0.80296  -0.79695  -0.79345
 Alpha  occ. eigenvalues --   -0.79258  -0.78924  -0.78449  -0.77758  -0.77143
 Alpha  occ. eigenvalues --   -0.77021  -0.74864  -0.74467  -0.73802  -0.73762
 Alpha  occ. eigenvalues --   -0.71062  -0.70834  -0.70641  -0.70578  -0.70131
 Alpha  occ. eigenvalues --   -0.69668  -0.69299  -0.68667  -0.67774  -0.67401
 Alpha  occ. eigenvalues --   -0.67290  -0.67258  -0.66940  -0.66761  -0.66298
 Alpha  occ. eigenvalues --   -0.66069  -0.64314  -0.63909  -0.62460  -0.62319
 Alpha  occ. eigenvalues --   -0.61874  -0.61531  -0.61203  -0.60923  -0.60351
 Alpha  occ. eigenvalues --   -0.60263  -0.59951  -0.59867  -0.59707  -0.59469
 Alpha  occ. eigenvalues --   -0.58133  -0.58065  -0.57831  -0.57342  -0.57143
 Alpha  occ. eigenvalues --   -0.57107  -0.56974  -0.56375  -0.55844  -0.55612
 Alpha  occ. eigenvalues --   -0.55481  -0.55269  -0.55157  -0.55109  -0.54944
 Alpha  occ. eigenvalues --   -0.54850  -0.54796  -0.54443  -0.54351  -0.54306
 Alpha  occ. eigenvalues --   -0.54092  -0.54008  -0.53892  -0.53577  -0.53477
 Alpha  occ. eigenvalues --   -0.53232  -0.53124  -0.53071  -0.52692  -0.52319
 Alpha  occ. eigenvalues --   -0.52225  -0.52001  -0.51915  -0.51870  -0.51585
 Alpha  occ. eigenvalues --   -0.51568  -0.51302  -0.50933  -0.50906  -0.50783
 Alpha  occ. eigenvalues --   -0.50705  -0.50296  -0.50121  -0.50073  -0.49889
 Alpha  occ. eigenvalues --   -0.49740  -0.49544  -0.49284  -0.49241  -0.49115
 Alpha  occ. eigenvalues --   -0.49002  -0.48828  -0.48619  -0.48546  -0.48529
 Alpha  occ. eigenvalues --   -0.48285  -0.48163  -0.47830  -0.47827  -0.47437
 Alpha  occ. eigenvalues --   -0.47132  -0.46939  -0.46837  -0.46788  -0.46697
 Alpha  occ. eigenvalues --   -0.46578  -0.46463  -0.46276  -0.45982  -0.45974
 Alpha  occ. eigenvalues --   -0.45813  -0.45740  -0.45591  -0.45450  -0.45194
 Alpha  occ. eigenvalues --   -0.45108  -0.44919  -0.44863  -0.44660  -0.44352
 Alpha  occ. eigenvalues --   -0.44240  -0.44200  -0.44062  -0.43966  -0.43895
 Alpha  occ. eigenvalues --   -0.43826  -0.43472  -0.43318  -0.43175  -0.42940
 Alpha  occ. eigenvalues --   -0.42822  -0.42772  -0.42489  -0.42410  -0.42311
 Alpha  occ. eigenvalues --   -0.42265  -0.42097  -0.41911  -0.41736  -0.41455
 Alpha  occ. eigenvalues --   -0.40643  -0.40193  -0.39871  -0.39664  -0.39620
 Alpha  occ. eigenvalues --   -0.39301  -0.39157  -0.38972  -0.38629  -0.38547
 Alpha  occ. eigenvalues --   -0.38442  -0.37809  -0.36620  -0.36607  -0.36193
 Alpha  occ. eigenvalues --   -0.35887  -0.35417  -0.35285  -0.33669  -0.33659
 Alpha  occ. eigenvalues --   -0.33337  -0.32802  -0.32704  -0.32631  -0.32407
 Alpha  occ. eigenvalues --   -0.32122  -0.31742  -0.31394  -0.26219  -0.25863
 Alpha  occ. eigenvalues --   -0.22823  -0.22747
 Alpha virt. eigenvalues --   -0.07310  -0.06594  -0.00118   0.00309   0.01953
 Alpha virt. eigenvalues --    0.02181   0.04312   0.04350   0.05046   0.06136
 Alpha virt. eigenvalues --    0.07450   0.07862   0.07880   0.08044   0.08072

 Mulliken charges:
               1
     1  Mg   0.985578
     2  C    0.012858
     3  C   -0.095470
     4  C   -0.062346
     5  C   -0.128130
     6  N   -0.378368
     7  C   -0.008513
     8  C   -0.043505
     9  C   -0.122011
    10  C    0.058046
    11  C    0.021183
    12  C    0.005451
    13  C   -0.092464
    14  H    0.043458
    15  N   -0.389483
    16  C    0.163977
    17  C   -0.155426
    18  C   -0.073802
    19  C    0.099955
    20  C    0.064888
    21  C    0.052945
    22  O   -0.274745
    23  C   -0.022264
    24  N   -0.391952
    25  C    0.057938
    26  C   -0.092104
    27  C   -0.027214
    28  C    0.108817
    29  C    0.008964
    30  C   -0.008498
    31  C   -0.062957
    32  N   -0.527686
    33  C    0.190002
    34  C   -0.191373
    35  C   -0.055020
    36  C    0.141499
    37  C    0.072743
    38  C    0.153147
    39  O   -0.183083
    40  C   -0.107308
    41  C    0.224562
    42  O   -0.229860
    43  O   -0.358833
    44  C    0.140841
    45  H   -0.003559
    46  H    0.017254
    47  H   -0.016865
    48  H    0.024613
    49  H    0.035422
    50  H    0.042338
    51  H    0.048437
    52  H    0.037233
    53  H    0.035703
    54  H    0.041451
    55  H    0.044225
    56  H    0.060618
    57  H    0.073809
    58  H    0.034847
    59  H    0.031887
    60  H    0.066675
    61  H    0.059191
    62  H    0.050473
    63  H    0.056025
    64  H    0.035282
    65  H    0.060734
    66  H    0.037235
    67  H    0.041367
    68  H    0.033215
    69  H    0.028277
    70  H    0.043802
    71  H    0.022325
    72  H    0.037639
    73  H    0.026975
    74  H    0.061520
    75  H    0.068392
    76  H    0.069232
    77  H    0.070841
    78  H    0.058564
    79  H    0.040383
    80  Mg   0.942209
    81  C   -0.052046
    82  C   -0.101205
    83  C   -0.067626
    84  C   -0.090835
    85  N   -0.320438
    86  C    0.052458
    87  C   -0.094572
    88  C   -0.080722
    89  C   -0.005990
    90  C    0.041929
    91  C   -0.020851
    92  C   -0.113913
    93  H    0.029621
    94  N   -0.428058
    95  C    0.195024
    96  C   -0.167348
    97  C   -0.070997
    98  C    0.113771
    99  C    0.058645
   100  C    0.067002
   101  O   -0.250780
   102  C   -0.004287
   103  N   -0.356306
   104  C    0.033251
   105  C   -0.062128
   106  C   -0.056324
   107  C    0.068506
   108  C    0.048403
   109  C   -0.039088
   110  C   -0.040931
   111  N   -0.439556
   112  C    0.135370
   113  C   -0.196884
   114  C   -0.015705
   115  C    0.167629
   116  C    0.061231
   117  C    0.109535
   118  O   -0.199656
   119  C   -0.077103
   120  C    0.279480
   121  O   -0.226411
   122  O   -0.373860
   123  C    0.131569
   124  H   -0.012457
   125  H    0.026157
   126  H   -0.012806
   127  H    0.024527
   128  H    0.020060
   129  H    0.029359
   130  H    0.045944
   131  H    0.057457
   132  H    0.021553
   133  H    0.024507
   134  H    0.065185
   135  H    0.071801
   136  H    0.043678
   137  H    0.041001
   138  H    0.041545
   139  H    0.037721
   140  H    0.075211
   141  H    0.054582
   142  H    0.039179
   143  H    0.033369
   144  H    0.015988
   145  H    0.046676
   146  H    0.047941
   147  H    0.025297
   148  H    0.022952
   149  H    0.043259
   150  H    0.039839
   151  H    0.045467
   152  H    0.060033
   153  H    0.054147
   154  H    0.037969
   155  H    0.081362
   156  H    0.047516
   157  H    0.063841
   158  H    0.058132
 Sum of Mulliken charges =  -0.00000

 Dipole moment (field-independent basis, Debye):
    X=              0.9735    Y=              1.7049    Z=              5.4101  Tot=              5.7553
 Quadrupole moment (field-independent basis, Debye-Ang):
   XX=           -210.5100   YY=           -474.6348   ZZ=           -493.8423
   XY=             64.4728   XZ=            -16.2422   YZ=             24.1471

 Normal termination of Gaussian 16 at Sun Sep 19 23:17:41 2021.
