 Gaussian 16, Revision A.03,
 Gaussian 16:  ES64L-G16RevA.03 25-Dec-2016

 --------------------------------
 #p wB97XD/Def2SVP td=(nstates=5)
 --------------------------------

 --------------------------------
 TDDFT excited states in gaussian
 --------------------------------
 Symbolic Z-matrix:
 Charge =  0 Multiplicity = 1

                         Standard orientation:
 ---------------------------------------------------------------------
 Center     Atomic      Atomic             Coordinates (Angstroms)
 Number     Number       Type             X           Y           Z
 ---------------------------------------------------------------------
      1         12           0       13.698340   -0.724732   -0.073158
      2          6           0       12.294746    2.201883   -1.616981
      3          6           0       15.951442    1.482570    1.546172
      4          6           0       15.299529   -3.439053    1.431824
      5          6           0       11.792913   -2.730364   -1.945882
      6          7           0       14.175522    1.642567   -0.242222
      7          6           0       13.393011    2.572249   -0.831011
      8          6           0       14.012484    4.001274   -0.625282
      9          6           0       15.289678    3.640202    0.214389
     10          6           0       15.113892    2.158209    0.617793
     11          6           0       16.618568    3.926281   -0.568413
     12          6           0       13.078954    4.968243    0.102566
     13          6           0       12.996122    6.351404   -0.454754
     14          1           0       12.001983    7.341403    0.169334
     15          7           0       15.213048   -0.965792    1.420729
     16          6           0       16.000681    0.063064    1.926420
     17          6           0       16.906482   -0.503803    2.905795
     18          6           0       16.689507   -1.869753    2.979763
     19          6           0       15.743186   -2.170350    1.853040
     20          6           0       17.999851    0.256062    3.600244
     21          6           0       17.392296   -2.991844    3.848331
     22          8           0       17.151574   -4.174231    3.859614
     23          6           0       18.372686   -2.567677    4.920322
     24          7           0       13.701942   -2.735561   -0.311119
     25          6           0       14.399565   -3.697152    0.372295
     26          6           0       14.200745   -5.105746   -0.234487
     27          6           0       12.907398   -4.914163   -1.135554
     28          6           0       12.773164   -3.343956   -1.102614
     29          6           0       15.467745   -5.634286   -0.980084
     30          6           0       11.634427   -5.640327   -0.603710
     31          6           0       11.051842   -5.088716    0.695570
     32          7           0       12.361057   -0.423834   -1.493748
     33          6           0       11.552385   -1.371654   -2.180757
     34          6           0       10.654030   -0.698142   -3.115936
     35          6           0       10.879361    0.670215   -2.881568
     36          6           0       11.895343    0.805594   -1.898726
     37          6           0        9.704784   -1.345371   -4.013733
     38          6           0       10.434063    1.987221   -3.325304
     39          8           0        9.544748    2.283254   -4.105667
     40          6           0       11.400307    3.060691   -2.585988
     41          6           0       10.339727    3.960926   -1.947677
     42          8           0        9.598294    3.714960   -0.979223
     43          8           0       10.263081    5.084032   -2.640175
     44          6           0        9.499782    6.263162   -2.061427
     45          1           0       16.589895    2.177671    2.094860
     46          1           0       15.744555   -4.347590    1.845004
     47          1           0       11.150809   -3.440868   -2.470046
     48          1           0       14.140298    4.383675   -1.637411
     49          1           0       15.322428    4.191635    1.155001
     50          1           0       17.335237    4.579314   -0.070385
     51          1           0       16.468745    4.201857   -1.612476
     52          1           0       17.301869    3.083844   -0.677983
     53          1           0       13.679934    5.214426    0.978140
     54          1           0       12.128055    4.516178    0.386729
     55          1           0       12.862923    6.499532   -1.527622
     56          1           0       13.983163    6.759451   -0.236876
     57          1           0       17.917891    1.327032    3.416541
     58          1           0       19.014719   -0.040131    3.330359
     59          1           0       17.998072    0.195209    4.688666
     60          1           0       17.916177   -1.918359    5.667294
     61          1           0       19.155465   -2.100198    4.322893
     62          1           0       18.787508   -3.515265    5.264027
     63          1           0       14.108180   -5.750349    0.640305
     64          1           0       13.029421   -5.008384   -2.214823
     65          1           0       15.939958   -6.470880   -0.465148
     66          1           0       16.234050   -4.914876   -1.266616
     67          1           0       15.029384   -5.954467   -1.925468
     68          1           0       11.810019   -6.712440   -0.693363
     69          1           0       10.843780   -5.482914   -1.337134
     70          1           0       11.638049   -4.314809    1.189743
     71          1           0       11.009437   -5.937642    1.377486
     72          1           0       10.109787   -4.549783    0.601433
     73          1           0        9.127390   -0.666602   -4.641744
     74          1           0        9.041386   -1.911500   -3.360016
     75          1           0       10.263630   -2.057421   -4.622659
     76          1           0       11.912908    3.712542   -3.293377
     77          1           0        9.837718    7.135051   -2.621959
     78          1           0        9.758269    6.467311   -1.022828
     79          1           0        8.417079    6.134114   -2.084958
     80         12           0      -13.695700   -0.564843   -0.282223
     81          6           0      -11.992044    2.326008    0.502997
     82          6           0      -16.585997    1.260738   -0.139100
     83          6           0      -15.396306   -3.442560   -0.762944
     84          6           0      -10.783780   -2.408962    0.175028
     85          7           0      -14.163425    1.583349    0.289990
     86          6           0      -13.350779    2.566116    0.362608
     87          6           0      -14.005674    4.036658    0.492992
     88          6           0      -15.519451    3.594069    0.583575
     89          6           0      -15.461779    2.017214    0.307037
     90          6           0      -16.214144    3.817112    2.027439
     91          6           0      -13.695666    5.031802   -0.707795
     92          6           0      -13.612396    6.565501   -0.383063
     93          1           0      -14.083223    6.991261    0.974757
     94          7           0      -15.647068   -1.016511   -0.503242
     95          6           0      -16.760865   -0.087738   -0.499449
     96          6           0      -17.968306   -0.853288   -0.791517
     97          6           0      -17.656279   -2.233847   -0.863262
     98          6           0      -16.180691   -2.279974   -0.753107
     99          6           0      -19.227842   -0.084695   -0.970624
    100          6           0      -18.549622   -3.467252   -1.133290
    101          8           0      -18.199989   -4.608523   -1.074342
    102          6           0      -20.048089   -3.154885   -1.320621
    103          7           0      -13.239479   -2.682958   -0.199509
    104          6           0      -14.062168   -3.659382   -0.418718
    105          6           0      -13.420195   -5.037717   -0.092685
    106          6           0      -11.919214   -4.711381    0.095427
    107          6           0      -11.941386   -3.167292    0.005664
    108          6           0      -14.082880   -5.679592    1.144788
    109          6           0      -11.015521   -5.427606   -0.954588
    110          6           0      -10.872021   -6.945725   -0.759906
    111          7           0      -11.739256   -0.165232    0.236740
    112          6           0      -10.651662   -1.019400    0.278921
    113          6           0       -9.498337   -0.201224    0.546972
    114          6           0       -9.930103    1.150804    0.695675
    115          6           0      -11.327060    1.062208    0.447775
    116          6           0       -8.176381   -0.686232    0.703977
    117          6           0       -9.569827    2.519217    0.889251
    118          8           0       -8.434810    3.001195    1.180817
    119          6           0      -10.936078    3.308627    0.884628
    120          6           0      -11.066035    3.953339    2.173908
    121          8           0      -11.471973    3.395185    3.192941
    122          8           0      -10.515952    5.204438    2.056930
    123          6           0      -10.342074    5.885124    3.357527
    124          1           0      -17.526311    1.811423   -0.075130
    125          1           0      -16.009458   -4.328201   -0.945967
    126          1           0       -9.884672   -3.026259    0.237691
    127          1           0      -13.657824    4.381848    1.466950
    128          1           0      -16.116069    4.151331   -0.138376
    129          1           0      -15.421417    3.909282    2.770402
    130          1           0      -16.846930    2.962371    2.265896
    131          1           0      -16.861655    4.689300    2.123266
    132          1           0      -14.536517    4.882020   -1.384500
    133          1           0      -12.910152    4.725843   -1.399635
    134          1           0      -14.145457    7.195127   -1.095363
    135          1           0      -12.565736    6.869941   -0.380900
    136          1           0      -19.699495    0.110138   -0.007035
    137          1           0      -19.879404   -0.506379   -1.736099
    138          1           0      -18.949450    0.876202   -1.402727
    139          1           0      -20.302113   -2.703941   -2.280410
    140          1           0      -20.232390   -2.487158   -0.479638
    141          1           0      -20.729942   -3.991855   -1.173073
    142          1           0      -13.587773   -5.595833   -1.013529
    143          1           0      -11.615246   -4.965916    1.110740
    144          1           0      -14.560073   -4.987454    1.838916
    145          1           0      -13.444554   -6.216084    1.847583
    146          1           0      -14.830647   -6.364713    0.745449
    147          1           0      -10.006296   -5.025096   -0.879521
    148          1           0      -11.385791   -5.222911   -1.959699
    149          1           0      -11.537724   -7.236963    0.052586
    150          1           0       -9.902117   -7.150816   -0.306531
    151          1           0      -10.952161   -7.599603   -1.627975
    152          1           0       -8.052627   -1.404032   -0.107009
    153          1           0       -7.965066   -1.223660    1.628288
    154          1           0       -7.495689    0.165566    0.720114
    155          1           0      -10.772415    4.069895    0.121426
    156          1           0       -9.589384    5.311432    3.899033
    157          1           0      -11.292693    6.039316    3.866991
    158          1           0       -9.929826    6.872971    3.151241
 ---------------------------------------------------------------------

 SCF Done:  E(RwB97XD) =  -4070.60819993     A.U. after   20 cycles

 Excitation energies and oscillator strengths:

 Excited State   1:      Singlet-A      1.5887 eV  780.39 nm  f=0.3809  <S**2>=0.000
     309 -> 315       -0.18990
     312 -> 313        0.68297
     309 <- 315       -0.12268
 This state for optimization and/or second-order correction.
 Total Energy, E(TD-HF/TD-DFT) =  -4070.54981450
 Copying the excited state density for this state as the 1-particle RhoCI density.

 Excited State   2:      Singlet-A      1.7217 eV  720.12 nm  f=0.3744  <S**2>=0.000
     310 -> 316       -0.20379
     311 -> 314        0.67752
     310 <- 316       -0.11871

 Excited State   3:      Singlet-A      2.1587 eV  574.35 nm  f=0.0609  <S**2>=0.000
     309 -> 313        0.61735
     312 -> 315        0.31844

 Excited State   4:      Singlet-A      2.1614 eV  573.63 nm  f=0.1344  <S**2>=0.000
     310 -> 314        0.63354
     311 -> 316        0.28051

 Excited State   5:      Singlet-A      3.4490 eV  359.48 nm  f=0.5307  <S**2>=0.000
     304 -> 313       -0.26860
     309 -> 313       -0.26890
     312 -> 315        0.57288
     309 <- 313        0.11087

 The electronic state is 1-A.
 Alpha  occ. eigenvalues --  -46.94661 -46.94549 -19.30045 -19.29917 -19.25129
 Alpha  occ. eigenvalues --  -19.24470 -19.24319 -19.24146 -19.23195 -19.22871
 Alpha  occ. eigenvalues --  -14.46995 -14.46711 -14.46057 -14.46025 -14.44656
 Alpha  occ. eigenvalues --  -14.44258 -14.44223 -14.43415 -10.42290 -10.42227
 Alpha  occ. eigenvalues --  -10.40197 -10.39506 -10.39335 -10.38687 -10.35880
 Alpha  occ. eigenvalues --  -10.35848 -10.35388 -10.35310 -10.35190 -10.35058
 Alpha  occ. eigenvalues --  -10.35054 -10.34897 -10.34726 -10.34681 -10.34620
 Alpha  occ. eigenvalues --  -10.34385 -10.34355 -10.34226 -10.33958 -10.33864
 Alpha  occ. eigenvalues --  -10.33544 -10.33072 -10.32984 -10.32924 -10.32849
 Alpha  occ. eigenvalues --  -10.32818 -10.32800 -10.32644 -10.32584 -10.32428
 Alpha  occ. eigenvalues --  -10.32399 -10.32397 -10.32343 -10.32320 -10.32163
 Alpha  occ. eigenvalues --  -10.32157 -10.32050 -10.31766 -10.31651 -10.31577
 Alpha  occ. eigenvalues --  -10.31562 -10.31506 -10.31265 -10.31077 -10.31063
 Alpha  occ. eigenvalues --  -10.31058 -10.30951 -10.30780 -10.30697 -10.30604
 Alpha  occ. eigenvalues --  -10.30586 -10.30403 -10.30099 -10.30021 -10.29954
 Alpha  occ. eigenvalues --  -10.29939 -10.29858 -10.29798 -10.29535 -10.29448
 Alpha  occ. eigenvalues --  -10.29384 -10.29295 -10.29136 -10.29122 -10.28374
 Alpha  occ. eigenvalues --  -10.28364  -3.20704  -3.20678  -1.94288  -1.94256
 Alpha  occ. eigenvalues --   -1.93835  -1.93819  -1.93678  -1.93651  -1.18032
 Alpha  occ. eigenvalues --   -1.17582  -1.14691  -1.13615  -1.12186  -1.09307
 Alpha  occ. eigenvalues --   -1.08850  -1.07376  -1.07312  -1.06220  -1.05706
 Alpha  occ. eigenvalues --   -1.05386  -1.05044  -1.04187  -1.03668  -1.02859
 Alpha  occ. eigenvalues --   -0.94404  -0.92742  -0.91113  -0.91019  -0.90534
 Alpha  occ. eigenvalues --   -0.90191  -0.89858  -0.89639  -0.89303  -0.89222
 Alpha  occ. eigenvalues --   -0.88822  -0.88810  -0.88709  -0.88321  -0.85962
 Alpha  occ. eigenvalues --   -0.85767  -0.85389  -0.85265  -0.84190  -0.84141
 Alpha  occ. eigenvalues --   -0.83569  -0.83371  -0.82903  -0.82888  -0.82158
 Alpha  occ. eigenvalues --   -0.82054  -0.80453  -0.80030  -0.79214  -0.79138
 Alpha  occ. eigenvalues --   -0.78802  -0.78204  -0.77818  -0.77577  -0.76993
 Alpha  occ. eigenvalues --   -0.76686  -0.74505  -0.74104  -0.73549  -0.73360
 Alpha  occ. eigenvalues --   -0.71897  -0.71232  -0.70654  -0.70650  -0.70075
 Alpha  occ. eigenvalues --   -0.69419  -0.68924  -0.68180  -0.67666  -0.67348
 Alpha  occ. eigenvalues --   -0.67226  -0.66993  -0.66683  -0.66520  -0.65994
 Alpha  occ. eigenvalues --   -0.65992  -0.63686  -0.63448  -0.61965  -0.61529
 Alpha  occ. eigenvalues --   -0.61281  -0.61216  -0.60998  -0.60839  -0.60178
 Alpha  occ. eigenvalues --   -0.59770  -0.59633  -0.59540  -0.59292  -0.58101
 Alpha  occ. eigenvalues --   -0.57906  -0.57568  -0.57503  -0.57330  -0.57080
 Alpha  occ. eigenvalues --   -0.56966  -0.56510  -0.56361  -0.55812  -0.55803
 Alpha  occ. eigenvalues --   -0.55234  -0.55205  -0.55075  -0.55041  -0.54824
 Alpha  occ. eigenvalues --   -0.54748  -0.54603  -0.54567  -0.54255  -0.53984
 Alpha  occ. eigenvalues --   -0.53928  -0.53719  -0.53381  -0.53163  -0.52995
 Alpha  occ. eigenvalues --   -0.52820  -0.52768  -0.52759  -0.52570  -0.52283
 Alpha  occ. eigenvalues --   -0.51987  -0.51676  -0.51485  -0.51235  -0.51143
 Alpha  occ. eigenvalues --   -0.51085  -0.50982  -0.50831  -0.50757  -0.50480
 Alpha  occ. eigenvalues --   -0.50406  -0.50294  -0.50286  -0.50045  -0.50001
 Alpha  occ. eigenvalues --   -0.49671  -0.49617  -0.49367  -0.49289  -0.48889
 Alpha  occ. eigenvalues --   -0.48600  -0.48505  -0.48493  -0.48285  -0.48210
 Alpha  occ. eigenvalues --   -0.48064  -0.48044  -0.47878  -0.47672  -0.47451
 Alpha  occ. eigenvalues --   -0.47353  -0.47124  -0.46992  -0.46753  -0.46679
 Alpha  occ. eigenvalues --   -0.46262  -0.46232  -0.46123  -0.45994  -0.45993
 Alpha  occ. eigenvalues --   -0.45815  -0.45661  -0.45520  -0.45387  -0.45383
 Alpha  occ. eigenvalues --   -0.45088  -0.44990  -0.44873  -0.44827  -0.44800
 Alpha  occ. eigenvalues --   -0.44591  -0.44474  -0.44440  -0.44130  -0.43987
 Alpha  occ. eigenvalues --   -0.43708  -0.43568  -0.43543  -0.43301  -0.43217
 Alpha  occ. eigenvalues --   -0.43009  -0.42745  -0.42444  -0.42197  -0.42033
 Alpha  occ. eigenvalues --   -0.42032  -0.41622  -0.41392  -0.41188  -0.41005
 Alpha  occ. eigenvalues --   -0.40458  -0.40053  -0.39902  -0.39810  -0.39462
 Alpha  occ. eigenvalues --   -0.39448  -0.38969  -0.38635  -0.38465  -0.38151
 Alpha  occ. eigenvalues --   -0.37949  -0.37565  -0.36206  -0.35823  -0.35784
 Alpha  occ. eigenvalues --   -0.35531  -0.35261  -0.34620  -0.33740  -0.33525
 Alpha  occ. eigenvalues --   -0.33268  -0.32916  -0.32723  -0.32435  -0.32356
 Alpha  occ. eigenvalues --   -0.32179  -0.32073  -0.31214  -0.25947  -0.25510
 Alpha  occ. eigenvalues --   -0.22969  -0.22681
 Alpha virt. eigenvalues --   -0.06988  -0.06681  -0.00050   0.00306   0.02112
 Alpha virt. eigenvalues --    0.02784   0.04286   0.04558   0.05788   0.06590
 Alpha virt. eigenvalues --    0.07672   0.07741   0.08060   0.08373   0.08612

 Mulliken charges:
               1
     1  Mg   0.988033
     2  C    0.030714
     3  C   -0.071669
     4  C   -0.057295
     5  C   -0.105014
     6  N   -0.311490
     7  C   -0.008413
     8  C   -0.088628
     9  C   -0.082829
    10  C    0.047523
    11  C    0.016152
    12  C    0.051618
    13  C   -0.150355
    14  H    0.031753
    15  N   -0.450296
    16  C    0.180670
    17  C   -0.160777
    18  C   -0.081990
    19  C    0.134159
    20  C    0.055120
    21  C    0.057003
    22  O   -0.216071
    23  C   -0.009417
    24  N   -0.398436
    25  C    0.036488
    26  C   -0.083100
    27  C   -0.076599
    28  C    0.060800
    29  C    0.027375
    30  C   -0.006044
    31  C   -0.051496
    32  N   -0.527454
    33  C    0.158737
    34  C   -0.163670
    35  C   -0.041647
    36  C    0.162151
    37  C    0.081443
    38  C    0.128712
    39  O   -0.198597
    40  C   -0.130111
    41  C    0.252088
    42  O   -0.286698
    43  O   -0.341722
    44  C    0.147776
    45  H   -0.001436
    46  H    0.022865
    47  H   -0.006062
    48  H    0.039076
    49  H    0.035202
    50  H    0.032996
    51  H    0.038259
    52  H    0.025580
    53  H    0.023383
    54  H    0.069217
    55  H    0.048314
    56  H    0.037431
    57  H    0.022340
    58  H    0.055680
    59  H    0.037819
    60  H    0.076532
    61  H    0.034992
    62  H    0.053094
    63  H    0.040809
    64  H    0.042914
    65  H    0.048187
    66  H    0.047146
    67  H    0.024175
    68  H    0.039391
    69  H    0.022315
    70  H    0.040730
    71  H    0.045418
    72  H    0.042586
    73  H    0.065397
    74  H    0.051955
    75  H    0.044307
    76  H    0.067479
    77  H    0.057564
    78  H    0.052505
    79  H    0.073345
    80  Mg   0.972702
    81  C    0.036690
    82  C   -0.076530
    83  C   -0.083525
    84  C   -0.099860
    85  N   -0.274834
    86  C   -0.096963
    87  C   -0.014333
    88  C   -0.137519
    89  C    0.065814
    90  C    0.000642
    91  C    0.023675
    92  C   -0.131692
    93  H    0.035125
    94  N   -0.532017
    95  C    0.160569
    96  C   -0.146916
    97  C   -0.100107
    98  C    0.147751
    99  C    0.050441
   100  C    0.084695
   101  O   -0.192629
   102  C   -0.045319
   103  N   -0.332404
   104  C    0.040071
   105  C   -0.054353
   106  C   -0.067642
   107  C    0.054761
   108  C    0.016590
   109  C   -0.022539
   110  C   -0.039110
   111  N   -0.427698
   112  C    0.163654
   113  C   -0.180085
   114  C    0.016164
   115  C    0.116774
   116  C    0.057316
   117  C    0.086339
   118  O   -0.253459
   119  C   -0.075884
   120  C    0.267985
   121  O   -0.262160
   122  O   -0.366831
   123  C    0.144968
   124  H   -0.003136
   125  H    0.012619
   126  H   -0.006146
   127  H    0.049124
   128  H    0.040194
   129  H    0.048175
   130  H    0.038205
   131  H    0.039742
   132  H    0.016248
   133  H    0.039618
   134  H    0.057596
   135  H    0.064825
   136  H    0.067721
   137  H    0.043681
   138  H    0.042618
   139  H    0.070866
   140  H    0.053243
   141  H    0.049555
   142  H    0.038164
   143  H    0.035326
   144  H    0.043579
   145  H    0.033975
   146  H    0.050445
   147  H    0.028897
   148  H    0.032095
   149  H    0.024384
   150  H    0.026150
   151  H    0.050494
   152  H    0.038383
   153  H    0.050128
   154  H    0.058250
   155  H    0.063465
   156  H    0.068207
   157  H    0.055936
   158  H    0.049054
 Sum of Mulliken charges =  -0.00000

 Dipole moment (field-independent basis, Debye):
    X=             -0.1762    Y=              1.0779    Z=             -1.6532  Tot=              1.9814
 Quadrupole moment (field-independent basis, Debye-Ang):
   XX=           -289.7055   YY=           -463.5627   ZZ=           -518.9849
   XY=             -9.7405   XZ=             34.2577   YZ=             14.9276

 Normal termination of Gaussian 16 at Sun Sep 19 11:23:17 2021.
