 Gaussian 16, Revision A.03,
 Gaussian 16:  ES64L-G16RevA.03 25-Dec-2016

 --------------------------------
 #p wB97XD/Def2SVP td=(nstates=5)
 --------------------------------

 --------------------------------
 TDDFT excited states in gaussian
 --------------------------------
 Symbolic Z-matrix:
 Charge =  0 Multiplicity = 1

                         Standard orientation:
 ---------------------------------------------------------------------
 Center     Atomic      Atomic             Coordinates (Angstroms)
 Number     Number       Type             X           Y           Z
 ---------------------------------------------------------------------
      1         12           0       -8.868369   -0.278747   -0.180765
      2          6           0       -7.119327    2.444167    0.942693
      3          6           0      -10.929538    1.731013   -1.887170
      4          6           0      -10.628810   -3.034188   -1.000242
      5          6           0       -6.928690   -2.344203    2.097569
      6          7           0       -9.146864    1.919791   -0.208252
      7          6           0       -8.265694    2.833172    0.216995
      8          6           0       -8.712134    4.314026   -0.245018
      9          6           0       -9.942955    3.952071   -1.157734
     10          6           0      -10.075402    2.418179   -1.071573
     11          6           0      -11.217955    4.750719   -0.823838
     12          6           0       -7.596524    5.103067   -0.987408
     13          6           0       -8.002011    6.381307   -1.791520
     14          1           0       -7.685667    7.783423   -1.145543
     15          7           0      -10.594234   -0.600588   -1.263710
     16          6           0      -11.233148    0.313142   -1.964321
     17          6           0      -12.320119   -0.330995   -2.685964
     18          6           0      -12.351047   -1.723998   -2.376354
     19          6           0      -11.154394   -1.841370   -1.514375
     20          6           0      -13.380215    0.384448   -3.506931
     21          6           0      -13.350147   -2.808873   -2.764841
     22          8           0      -13.380143   -3.883612   -2.172333
     23          6           0      -14.299668   -2.541106   -3.879670
     24          7           0       -8.809765   -2.389155    0.502671
     25          6           0       -9.605684   -3.309673   -0.028346
     26          6           0       -9.219902   -4.731319    0.412786
     27          6           0       -7.942032   -4.449593    1.198780
     28          6           0       -7.920545   -2.969673    1.294216
     29          6           0      -10.266955   -5.560446    1.171264
     30          6           0       -6.729416   -5.186068    0.688370
     31          6           0       -6.082860   -6.224305    1.673285
     32          7           0       -7.343701   -0.056970    1.163015
     33          6           0       -6.584818   -0.975680    1.963049
     34          6           0       -5.487016   -0.307346    2.626535
     35          6           0       -5.696733    1.034954    2.204339
     36          6           0       -6.807861    1.118159    1.355783
     37          6           0       -4.329099   -0.835563    3.397586
     38          6           0       -5.004928    2.298835    2.234820
     39          8           0       -3.885072    2.663052    2.623563
     40          6           0       -5.897993    3.310528    1.561195
     41          6           0       -6.488634    4.237800    2.646183
     42          8           0       -6.933605    3.914604    3.758195
     43          8           0       -6.448019    5.512148    2.163552
     44          6           0       -6.937267    6.610669    3.055648
     45          1           0      -11.589182    2.258927   -2.579018
     46          1           0      -11.248450   -3.932088   -1.048029
     47          1           0       -6.302895   -3.046403    2.651307
     48          1           0       -9.029192    4.788550    0.682929
     49          1           0       -9.656891    4.160421   -2.188661
     50          1           0      -11.658536    5.052722   -1.773364
     51          1           0      -10.993954    5.667501   -0.278353
     52          1           0      -11.918482    4.143803   -0.250111
     53          1           0       -7.264342    4.437996   -1.784534
     54          1           0       -6.826557    5.412758   -0.280857
     55          1           0       -9.091386    6.389122   -1.840085
     56          1           0       -7.494436    6.361886   -2.755317
     57          1           0      -13.210406    1.460977   -3.524267
     58          1           0      -14.363543    0.196917   -3.076341
     59          1           0      -13.405901    0.027990   -4.535896
     60          1           0      -13.681318   -2.162594   -4.694077
     61          1           0      -15.135312   -1.847097   -3.794652
     62          1           0      -14.822274   -3.436879   -4.213454
     63          1           0       -8.973817   -5.297708   -0.484756
     64          1           0       -8.096180   -4.830081    2.208360
     65          1           0      -10.142292   -6.567269    0.773451
     66          1           0      -11.260966   -5.131223    1.046371
     67          1           0      -10.170771   -5.522857    2.256316
     68          1           0       -5.981284   -4.401391    0.580338
     69          1           0       -6.904727   -5.725026   -0.242254
     70          1           0       -6.624647   -6.227432    2.619471
     71          1           0       -5.063243   -5.890665    1.868503
     72          1           0       -5.959244   -7.232063    1.276487
     73          1           0       -4.290187   -1.921707    3.318961
     74          1           0       -4.570472   -0.639695    4.441687
     75          1           0       -3.458025   -0.345952    2.959750
     76          1           0       -5.230240    3.846449    0.886396
     77          1           0       -7.889351    6.417221    3.550432
     78          1           0       -6.988065    7.588836    2.578553
     79          1           0       -6.215927    6.660759    3.871104
     80         12           0        8.247703   -0.928655   -0.152146
     81          6           0       10.214354    1.974409   -0.292037
     82          6           0        5.526134    0.864788    0.553645
     83          6           0        6.617352   -3.719322    0.014443
     84          6           0       11.376911   -2.725501    0.108760
     85          7           0        7.984807    1.181431    0.195284
     86          6           0        8.820909    2.194649   -0.063824
     87          6           0        8.200318    3.531833    0.248648
     88          6           0        6.826093    3.120565    0.914327
     89          6           0        6.751069    1.655507    0.530179
     90          6           0        6.641199    3.356581    2.448492
     91          6           0        7.924967    4.358783   -1.109204
     92          6           0        8.418394    5.841427   -1.045594
     93          1           0        8.409206    6.537153   -2.512656
     94          7           0        6.351356   -1.336861   -0.023980
     95          6           0        5.317506   -0.452296    0.231871
     96          6           0        4.071109   -1.133257    0.013133
     97          6           0        4.316494   -2.552082   -0.195065
     98          6           0        5.828564   -2.606763   -0.192984
     99          6           0        2.741954   -0.347094    0.201907
    100          6           0        3.454531   -3.789049   -0.420556
    101          8           0        3.862218   -4.936993   -0.674085
    102          6           0        1.999744   -3.477768   -0.424931
    103          7           0        8.972546   -2.875365    0.190055
    104          6           0        7.999805   -3.844092    0.214285
    105          6           0        8.600820   -5.215137    0.526039
    106          6           0       10.104362   -4.959930    0.242084
    107          6           0       10.195281   -3.432706    0.236959
    108          6           0        8.169726   -5.677606    1.974289
    109          6           0       10.681008   -5.599318   -1.091794
    110          6           0       12.193917   -5.867694   -1.132783
    111          7           0       10.383161   -0.516599   -0.135592
    112          6           0       11.462700   -1.340179   -0.029236
    113          6           0       12.697511   -0.609167   -0.205768
    114          6           0       12.214544    0.700242   -0.383568
    115          6           0       10.817055    0.722535   -0.270710
    116          6           0       14.176760   -1.058556   -0.213599
    117          6           0       12.647854    2.044392   -0.645244
    118          8           0       13.700788    2.525024   -0.973742
    119          6           0       11.333181    2.957604   -0.423143
    120          6           0       11.438742    3.868821   -1.565778
    121          8           0       11.082475    3.688642   -2.757692
    122          8           0       12.028209    4.972698   -1.075024
    123          6           0       12.312871    6.073922   -1.996070
    124          1           0        4.614987    1.450245    0.694349
    125          1           0        6.071617   -4.665176   -0.005192
    126          1           0       12.287286   -3.328437    0.096927
    127          1           0        8.801521    4.186642    0.880038
    128          1           0        5.929984    3.553804    0.469634
    129          1           0        6.622094    2.380498    2.933225
    130          1           0        5.669148    3.840116    2.543922
    131          1           0        7.393707    3.935431    2.982850
    132          1           0        6.895988    4.351651   -1.470659
    133          1           0        8.398283    3.789959   -1.909602
    134          1           0        9.433592    5.890058   -0.652297
    135          1           0        7.790614    6.514987   -0.462729
    136          1           0        2.471511    0.087496   -0.759444
    137          1           0        2.857756    0.580459    0.763910
    138          1           0        1.954377   -0.834578    0.776048
    139          1           0        1.685514   -2.785797   -1.205499
    140          1           0        1.847559   -3.101606    0.587458
    141          1           0        1.363134   -4.359469   -0.503873
    142          1           0        8.151740   -5.894505   -0.198572
    143          1           0       10.699549   -5.401805    1.041156
    144          1           0        9.015681   -5.611374    2.658332
    145          1           0        7.797774   -6.692760    2.110468
    146          1           0        7.442911   -5.051918    2.492739
    147          1           0       10.536519   -4.800183   -1.819353
    148          1           0       10.212500   -6.513299   -1.457450
    149          1           0       12.702555   -5.241199   -1.866663
    150          1           0       12.549429   -6.877856   -1.336999
    151          1           0       12.574105   -5.506639   -0.178199
    152          1           0       14.208004   -1.977666    0.371519
    153          1           0       14.821646   -0.294899    0.223212
    154          1           0       14.424410   -1.273527   -1.253045
    155          1           0       11.445617    3.543812    0.489069
    156          1           0       11.652605    6.906169   -1.752740
    157          1           0       12.302464    5.754199   -3.037529
    158          1           0       13.309502    6.454000   -1.771987
 ---------------------------------------------------------------------

 SCF Done:  E(RwB97XD) =  -4070.60358666     A.U. after   19 cycles

 Excitation energies and oscillator strengths:

 Excited State   1:      Singlet-A      1.6547 eV  749.27 nm  f=0.7166  <S**2>=0.000
     309 -> 316        0.14631
     310 -> 315        0.11495
     311 -> 313        0.55571
     312 -> 314       -0.39450
 This state for optimization and/or second-order correction.
 Total Energy, E(TD-HF/TD-DFT) =  -4070.54277628
 Copying the excited state density for this state as the 1-particle RhoCI density.

 Excited State   2:      Singlet-A      1.6787 eV  738.59 nm  f=0.0949  <S**2>=0.000
     309 -> 316        0.10738
     310 -> 315       -0.16691
     311 -> 313        0.39482
     312 -> 314        0.55245

 Excited State   3:      Singlet-A      2.1934 eV  565.25 nm  f=0.0522  <S**2>=0.000
     310 -> 314        0.61541
     312 -> 315        0.33548

 Excited State   4:      Singlet-A      2.2222 eV  557.95 nm  f=0.1120  <S**2>=0.000
     309 -> 313        0.63663
     311 -> 316       -0.28833

 Excited State   5:      Singlet-A      3.4129 eV  363.28 nm  f=0.0000  <S**2>=0.000
     312 -> 313        0.70647

 The electronic state is 1-A.
 Alpha  occ. eigenvalues --  -46.95737 -46.93764 -19.31059 -19.29952 -19.24747
 Alpha  occ. eigenvalues --  -19.24618 -19.24613 -19.23923 -19.23269 -19.23006
 Alpha  occ. eigenvalues --  -14.47019 -14.46863 -14.46469 -14.46160 -14.44889
 Alpha  occ. eigenvalues --  -14.44092 -14.43934 -14.42843 -10.43638 -10.42289
 Alpha  occ. eigenvalues --  -10.40246 -10.39870 -10.38516 -10.37615 -10.36136
 Alpha  occ. eigenvalues --  -10.35919 -10.35587 -10.35212 -10.35026 -10.34699
 Alpha  occ. eigenvalues --  -10.34686 -10.34649 -10.34622 -10.34571 -10.34524
 Alpha  occ. eigenvalues --  -10.34223 -10.34163 -10.34103 -10.34082 -10.33984
 Alpha  occ. eigenvalues --  -10.33527 -10.33296 -10.33062 -10.32996 -10.32944
 Alpha  occ. eigenvalues --  -10.32628 -10.32607 -10.32531 -10.32399 -10.32393
 Alpha  occ. eigenvalues --  -10.32345 -10.32204 -10.31995 -10.31867 -10.31832
 Alpha  occ. eigenvalues --  -10.31774 -10.31726 -10.31655 -10.31637 -10.31632
 Alpha  occ. eigenvalues --  -10.31496 -10.31363 -10.31223 -10.31187 -10.31141
 Alpha  occ. eigenvalues --  -10.30920 -10.30914 -10.30812 -10.30589 -10.30550
 Alpha  occ. eigenvalues --  -10.30420 -10.30414 -10.30390 -10.30353 -10.30251
 Alpha  occ. eigenvalues --  -10.30211 -10.30109 -10.30106 -10.29826 -10.29720
 Alpha  occ. eigenvalues --  -10.29691 -10.29662 -10.29616 -10.29094 -10.28653
 Alpha  occ. eigenvalues --  -10.28324  -3.21704  -3.20007  -1.95285  -1.94819
 Alpha  occ. eigenvalues --   -1.94688  -1.93590  -1.93152  -1.92997  -1.17985
 Alpha  occ. eigenvalues --   -1.17948  -1.12860  -1.12782  -1.11513  -1.10457
 Alpha  occ. eigenvalues --   -1.08949  -1.07928  -1.07585  -1.07035  -1.06615
 Alpha  occ. eigenvalues --   -1.06153  -1.06115  -1.05461  -1.05190  -1.04312
 Alpha  occ. eigenvalues --   -0.94538  -0.93458  -0.91952  -0.90896  -0.90782
 Alpha  occ. eigenvalues --   -0.90303  -0.89930  -0.89776  -0.89690  -0.89284
 Alpha  occ. eigenvalues --   -0.89214  -0.89174  -0.88759  -0.88062  -0.86305
 Alpha  occ. eigenvalues --   -0.86291  -0.85592  -0.85406  -0.84447  -0.84252
 Alpha  occ. eigenvalues --   -0.84251  -0.84014  -0.83246  -0.83077  -0.82206
 Alpha  occ. eigenvalues --   -0.82090  -0.80706  -0.79995  -0.79653  -0.79089
 Alpha  occ. eigenvalues --   -0.78884  -0.78661  -0.78213  -0.77686  -0.77473
 Alpha  occ. eigenvalues --   -0.77165  -0.74843  -0.74614  -0.73951  -0.73859
 Alpha  occ. eigenvalues --   -0.71533  -0.71248  -0.71065  -0.70595  -0.69905
 Alpha  occ. eigenvalues --   -0.69765  -0.69684  -0.69050  -0.67960  -0.67812
 Alpha  occ. eigenvalues --   -0.67331  -0.67099  -0.66717  -0.66615  -0.66287
 Alpha  occ. eigenvalues --   -0.66101  -0.64834  -0.63617  -0.62918  -0.62103
 Alpha  occ. eigenvalues --   -0.61826  -0.61623  -0.61077  -0.60988  -0.60812
 Alpha  occ. eigenvalues --   -0.60463  -0.60190  -0.59841  -0.59592  -0.58964
 Alpha  occ. eigenvalues --   -0.58506  -0.58152  -0.57834  -0.57702  -0.57295
 Alpha  occ. eigenvalues --   -0.57283  -0.56653  -0.56274  -0.56141  -0.55880
 Alpha  occ. eigenvalues --   -0.55711  -0.55543  -0.55214  -0.55009  -0.54905
 Alpha  occ. eigenvalues --   -0.54655  -0.54604  -0.54343  -0.54329  -0.53993
 Alpha  occ. eigenvalues --   -0.53821  -0.53394  -0.53363  -0.53246  -0.53173
 Alpha  occ. eigenvalues --   -0.52846  -0.52832  -0.52637  -0.52485  -0.52172
 Alpha  occ. eigenvalues --   -0.52050  -0.51989  -0.51917  -0.51830  -0.51827
 Alpha  occ. eigenvalues --   -0.51456  -0.51207  -0.51179  -0.51069  -0.50842
 Alpha  occ. eigenvalues --   -0.50690  -0.50663  -0.50327  -0.50229  -0.49984
 Alpha  occ. eigenvalues --   -0.49898  -0.49818  -0.49734  -0.49440  -0.49181
 Alpha  occ. eigenvalues --   -0.49034  -0.48931  -0.48671  -0.48516  -0.48272
 Alpha  occ. eigenvalues --   -0.48267  -0.48108  -0.48091  -0.47667  -0.47502
 Alpha  occ. eigenvalues --   -0.47311  -0.47123  -0.46915  -0.46859  -0.46694
 Alpha  occ. eigenvalues --   -0.46634  -0.46542  -0.46236  -0.46109  -0.45983
 Alpha  occ. eigenvalues --   -0.45819  -0.45759  -0.45540  -0.45345  -0.45263
 Alpha  occ. eigenvalues --   -0.45026  -0.44907  -0.44860  -0.44642  -0.44610
 Alpha  occ. eigenvalues --   -0.44419  -0.44348  -0.44162  -0.44088  -0.44000
 Alpha  occ. eigenvalues --   -0.43948  -0.43879  -0.43713  -0.43645  -0.43338
 Alpha  occ. eigenvalues --   -0.43117  -0.43013  -0.42911  -0.42550  -0.42539
 Alpha  occ. eigenvalues --   -0.42334  -0.42051  -0.41359  -0.41351  -0.41177
 Alpha  occ. eigenvalues --   -0.40602  -0.40363  -0.39988  -0.39613  -0.39381
 Alpha  occ. eigenvalues --   -0.39311  -0.38889  -0.38789  -0.38408  -0.38073
 Alpha  occ. eigenvalues --   -0.37381  -0.37051  -0.36475  -0.36206  -0.35999
 Alpha  occ. eigenvalues --   -0.35822  -0.35778  -0.34819  -0.34091  -0.33591
 Alpha  occ. eigenvalues --   -0.33530  -0.33348  -0.32987  -0.32466  -0.32312
 Alpha  occ. eigenvalues --   -0.32215  -0.32058  -0.31620  -0.26044  -0.25960
 Alpha  occ. eigenvalues --   -0.23123  -0.22772
 Alpha virt. eigenvalues --   -0.07111  -0.06627  -0.00237  -0.00042   0.01901
 Alpha virt. eigenvalues --    0.02424   0.04394   0.04707   0.04862   0.06361
 Alpha virt. eigenvalues --    0.07291   0.07528   0.07602   0.07763   0.08383

 Mulliken charges:
               1
     1  Mg   0.970308
     2  C   -0.074916
     3  C   -0.078905
     4  C   -0.049078
     5  C   -0.066329
     6  N   -0.355746
     7  C   -0.026081
     8  C   -0.008833
     9  C   -0.153634
    10  C    0.120374
    11  C    0.024239
    12  C   -0.009776
    13  C   -0.131434
    14  H    0.015208
    15  N   -0.438476
    16  C    0.117139
    17  C   -0.186792
    18  C   -0.058643
    19  C    0.131328
    20  C    0.069482
    21  C    0.087875
    22  O   -0.226864
    23  C   -0.033372
    24  N   -0.274176
    25  C   -0.007062
    26  C   -0.114995
    27  C   -0.055374
    28  C    0.009563
    29  C    0.035973
    30  C    0.000472
    31  C   -0.068009
    32  N   -0.456569
    33  C    0.123039
    34  C   -0.171113
    35  C   -0.077348
    36  C    0.205918
    37  C    0.109170
    38  C    0.102101
    39  O   -0.241874
    40  C   -0.055375
    41  C    0.293554
    42  O   -0.265801
    43  O   -0.365333
    44  C    0.138460
    45  H   -0.019426
    46  H    0.030009
    47  H    0.003991
    48  H    0.040592
    49  H    0.037294
    50  H    0.034340
    51  H    0.041650
    52  H    0.049840
    53  H    0.031767
    54  H    0.073071
    55  H    0.048650
    56  H    0.065726
    57  H    0.032001
    58  H    0.051898
    59  H    0.041754
    60  H    0.048882
    61  H    0.063448
    62  H    0.052952
    63  H    0.039273
    64  H    0.021563
    65  H    0.047023
    66  H    0.044416
    67  H    0.030009
    68  H    0.029606
    69  H    0.037397
    70  H    0.033247
    71  H    0.032897
    72  H    0.042779
    73  H    0.019304
    74  H    0.065795
    75  H    0.078284
    76  H    0.068686
    77  H    0.058982
    78  H    0.063806
    79  H    0.056199
    80  Mg   0.993960
    81  C    0.048532
    82  C   -0.082327
    83  C   -0.069113
    84  C   -0.109110
    85  N   -0.341530
    86  C    0.045882
    87  C   -0.121762
    88  C   -0.075984
    89  C    0.029072
    90  C    0.026546
    91  C    0.023913
    92  C   -0.140147
    93  H    0.017986
    94  N   -0.559145
    95  C    0.189527
    96  C   -0.126074
    97  C   -0.131011
    98  C    0.181294
    99  C    0.042635
   100  C    0.088909
   101  O   -0.241528
   102  C   -0.020544
   103  N   -0.364048
   104  C    0.073282
   105  C   -0.083695
   106  C   -0.059508
   107  C    0.063169
   108  C    0.017276
   109  C   -0.011275
   110  C   -0.064734
   111  N   -0.360369
   112  C    0.130738
   113  C   -0.203066
   114  C   -0.017987
   115  C    0.091958
   116  C    0.097799
   117  C    0.101478
   118  O   -0.185567
   119  C   -0.133172
   120  C    0.263550
   121  O   -0.285221
   122  O   -0.350070
   123  C    0.138447
   124  H   -0.012524
   125  H    0.026086
   126  H   -0.019799
   127  H    0.037130
   128  H    0.029818
   129  H    0.042311
   130  H    0.039419
   131  H    0.042733
   132  H    0.031826
   133  H    0.057854
   134  H    0.053068
   135  H    0.057010
   136  H    0.054300
   137  H    0.031382
   138  H    0.055764
   139  H    0.074772
   140  H    0.050959
   141  H    0.045711
   142  H    0.042853
   143  H    0.027090
   144  H    0.021148
   145  H    0.043508
   146  H    0.041264
   147  H    0.036362
   148  H    0.042855
   149  H    0.035105
   150  H    0.044268
   151  H    0.027611
   152  H    0.034010
   153  H    0.066061
   154  H    0.064067
   155  H    0.073500
   156  H    0.048570
   157  H    0.075743
   158  H    0.049196
 Sum of Mulliken charges =  -0.00000

 Dipole moment (field-independent basis, Debye):
    X=             -6.6946    Y=              0.5434    Z=             -1.0679  Tot=              6.8010
 Quadrupole moment (field-independent basis, Debye-Ang):
   XX=           -525.7197   YY=           -473.2634   ZZ=           -516.7741
   XY=            -46.3822   XZ=             70.4607   YZ=             -8.8408

 Normal termination of Gaussian 16 at Sun Sep 19 06:21:03 2021.
