 Gaussian 16, Revision A.03,
 Gaussian 16:  ES64L-G16RevA.03 25-Dec-2016

 --------------------------------
 #p wB97XD/Def2SVP td=(nstates=5)
 --------------------------------

 --------------------------------
 TDDFT excited states in gaussian
 --------------------------------
 Symbolic Z-matrix:
 Charge =  0 Multiplicity = 1

                         Standard orientation:
 ---------------------------------------------------------------------
 Center     Atomic      Atomic             Coordinates (Angstroms)
 Number     Number       Type             X           Y           Z
 ---------------------------------------------------------------------
      1         12           0       -0.731818    0.085937   -0.367333
      2          6           0        2.749173    0.093407    0.158108
      3          6           0       -0.634029   -3.325703    0.299720
      4          6           0       -4.061446    0.021636   -0.399026
      5          6           0       -0.671232    3.543461   -0.075352
      6          7           0        0.913141   -1.371650    0.331882
      7          6           0        2.284700   -1.211542    0.364790
      8          6           0        3.088269   -2.494930    0.379776
      9          6           0        1.999454   -3.594132    0.401422
     10          6           0        0.675389   -2.762996    0.359082
     11          6           0        2.104472   -4.640306   -0.781392
     12          6           0        4.108782   -2.681552    1.589680
     13          6           0        3.745571   -2.049312    2.943178
     14          1           0        3.231451   -2.981576    4.079901
     15          7           0       -2.114360   -1.412712   -0.102145
     16          6           0       -1.884726   -2.743949    0.099854
     17          6           0       -3.156990   -3.479556    0.085552
     18          6           0       -4.183785   -2.508627   -0.123491
     19          6           0       -3.447683   -1.209940   -0.207909
     20          6           0       -3.259773   -4.991570    0.246862
     21          6           0       -5.689674   -2.966127   -0.090135
     22          8           0       -5.925807   -4.141754    0.151101
     23          6           0       -6.852657   -1.902593   -0.272920
     24          7           0       -2.127397    1.543921   -0.128545
     25          6           0       -3.483126    1.304468   -0.340923
     26          6           0       -4.317943    2.706193   -0.366954
     27          6           0       -3.118179    3.765778   -0.094792
     28          6           0       -1.908433    2.887809   -0.109574
     29          6           0       -5.070920    2.931482   -1.711136
     30          6           0       -3.230788    4.584753    1.261983
     31          6           0       -3.121728    6.116800    1.217883
     32          7           0        0.737050    1.587200   -0.148838
     33          6           0        0.647696    2.950540   -0.030631
     34          6           0        2.008445    3.495051    0.161256
     35          6           0        2.870289    2.366434    0.117960
     36          6           0        2.014278    1.238768   -0.024354
     37          6           0        2.403140    4.929658    0.377929
     38          6           0        4.284749    1.977383    0.272171
     39          8           0        5.334641    2.631838    0.351403
     40          6           0        4.251947    0.466281    0.098115
     41          6           0        4.947255    0.026417   -1.064327
     42          8           0        4.437964    0.096682   -2.212800
     43          8           0        6.210873   -0.506056   -0.740149
     44          6           0        6.982179   -1.149000   -1.799150
     45          1           0       -0.647670   -4.416913    0.329400
     46          1           0       -5.139318    0.025154   -0.571632
     47          1           0       -0.732813    4.633075   -0.052724
     48          1           0        3.633660   -2.441524   -0.561693
     49          1           0        2.022788   -4.006289    1.409577
     50          1           0        2.401732   -5.609978   -0.382147
     51          1           0        2.859312   -4.246089   -1.462296
     52          1           0        1.146762   -4.767112   -1.287275
     53          1           0        4.983359   -2.153170    1.208056
     54          1           0        4.350011   -3.739859    1.691762
     55          1           0        3.000749   -1.263632    2.812211
     56          1           0        4.617698   -1.507696    3.307053
     57          1           0       -3.591660   -5.324701    1.230236
     58          1           0       -2.372202   -5.488797   -0.144595
     59          1           0       -3.981410   -5.406243   -0.456757
     60          1           0       -6.591659   -1.297747   -1.141666
     61          1           0       -6.891359   -1.304635    0.637212
     62          1           0       -7.854108   -2.332325   -0.249984
     63          1           0       -5.106963    2.595074    0.376225
     64          1           0       -3.072680    4.421254   -0.964789
     65          1           0       -4.427558    3.539951   -2.346365
     66          1           0       -6.070522    3.343583   -1.572562
     67          1           0       -5.312430    2.013011   -2.245845
     68          1           0       -2.490639    4.161001    1.941501
     69          1           0       -4.239532    4.325434    1.583347
     70          1           0       -2.865403    6.537484    2.190601
     71          1           0       -4.126645    6.409676    0.914635
     72          1           0       -2.344109    6.305894    0.477550
     73          1           0        1.517374    5.381516    0.823592
     74          1           0        2.502421    5.297632   -0.643249
     75          1           0        3.349195    5.079536    0.898972
     76          1           0        4.747067    0.136218    1.011093
     77          1           0        7.324432   -0.521430   -2.622065
     78          1           0        6.410347   -1.972520   -2.227852
     79          1           0        7.785684   -1.694389   -1.303873
 ---------------------------------------------------------------------

 SCF Done:  E(RwB97XD) =  -2035.29774256     A.U. after   20 cycles

 Excitation energies and oscillator strengths:

 Excited State   1:      Singlet-A      1.6636 eV  745.27 nm  f=0.3739  <S**2>=0.000
     155 ->158         0.18693
     156 ->157         0.68288
     155 <-158         0.11708
 This state for optimization and/or second-order correction.
 Total Energy, E(TD-HF/TD-DFT) =  -2035.23660546
 Copying the excited state density for this state as the 1-particle RhoCI density.

 Excited State   2:      Singlet-A      2.2612 eV  548.32 nm  f=0.0697  <S**2>=0.000
     155 ->157         0.61502
     156 ->158        -0.33672

 Excited State   3:      Singlet-A      3.5233 eV  351.90 nm  f=0.5692  <S**2>=0.000
     152 ->157        -0.15058
     154 ->157         0.24406
     155 ->157         0.28509
     156 ->158         0.55946
     155 <-157        -0.10524

 Excited State   4:      Singlet-A      3.6232 eV  342.20 nm  f=0.0791  <S**2>=0.000
     153 ->157        -0.36957
     154 ->157         0.54137
     156 ->158        -0.15205

 Excited State   5:      Singlet-A      3.6681 eV  338.01 nm  f=0.0209  <S**2>=0.000
     150 ->157         0.11118
     151 ->157        -0.15322
     151 ->159        -0.12186
     152 ->157         0.43759
     152 ->159         0.35160
     152 ->160         0.16535
     153 ->157         0.17548
     154 ->157         0.14030

 The electronic state is 1-A.
 Alpha  occ. eigenvalues --  -46.95298 -19.31033 -19.25210 -19.24655 -19.24268
 Alpha  occ. eigenvalues --  -14.47301 -14.46668 -14.44568 -14.43903 -10.43900
 Alpha  occ. eigenvalues --  -10.40517 -10.39395 -10.35983 -10.35855 -10.35431
 Alpha  occ. eigenvalues --  -10.35016 -10.34628 -10.34593 -10.34114 -10.33907
 Alpha  occ. eigenvalues --  -10.33374 -10.32980 -10.32570 -10.32528 -10.32368
 Alpha  occ. eigenvalues --  -10.32358 -10.32272 -10.32139 -10.31895 -10.31814
 Alpha  occ. eigenvalues --  -10.31624 -10.31369 -10.31262 -10.31033 -10.30766
 Alpha  occ. eigenvalues --  -10.30689 -10.30674 -10.30496 -10.30451 -10.29869
 Alpha  occ. eigenvalues --  -10.29709 -10.29428 -10.29237  -3.21363  -1.94908
 Alpha  occ. eigenvalues --   -1.94503  -1.94338  -1.17152  -1.12654  -1.11302
 Alpha  occ. eigenvalues --   -1.09228  -1.06161  -1.05605  -1.04616  -1.03912
 Alpha  occ. eigenvalues --   -0.95140  -0.91067  -0.90724  -0.89963  -0.88734
 Alpha  occ. eigenvalues --   -0.88022  -0.87547  -0.86469  -0.85793  -0.84696
 Alpha  occ. eigenvalues --   -0.83582  -0.82962  -0.82055  -0.80104  -0.79166
 Alpha  occ. eigenvalues --   -0.78706  -0.78455  -0.76870  -0.74330  -0.73737
 Alpha  occ. eigenvalues --   -0.71244  -0.70880  -0.70377  -0.68834  -0.67701
 Alpha  occ. eigenvalues --   -0.67197  -0.66591  -0.66195  -0.64443  -0.62249
 Alpha  occ. eigenvalues --   -0.61609  -0.61037  -0.60654  -0.59729  -0.59209
 Alpha  occ. eigenvalues --   -0.58119  -0.57541  -0.56889  -0.56373  -0.56159
 Alpha  occ. eigenvalues --   -0.55723  -0.54996  -0.54507  -0.54309  -0.54064
 Alpha  occ. eigenvalues --   -0.53492  -0.53163  -0.52892  -0.52663  -0.52245
 Alpha  occ. eigenvalues --   -0.51953  -0.51327  -0.51261  -0.51192  -0.50913
 Alpha  occ. eigenvalues --   -0.50485  -0.50272  -0.50082  -0.49278  -0.49199
 Alpha  occ. eigenvalues --   -0.48558  -0.48386  -0.48175  -0.48089  -0.47688
 Alpha  occ. eigenvalues --   -0.47303  -0.46904  -0.46731  -0.46579  -0.46473
 Alpha  occ. eigenvalues --   -0.46128  -0.45878  -0.45164  -0.45023  -0.44890
 Alpha  occ. eigenvalues --   -0.44655  -0.44361  -0.44183  -0.44056  -0.43555
 Alpha  occ. eigenvalues --   -0.42965  -0.42495  -0.42153  -0.41769  -0.41605
 Alpha  occ. eigenvalues --   -0.40850  -0.39607  -0.39468  -0.39163  -0.38993
 Alpha  occ. eigenvalues --   -0.38648  -0.36748  -0.36319  -0.35481  -0.33544
 Alpha  occ. eigenvalues --   -0.33244  -0.33025  -0.32451  -0.31772  -0.26076
 Alpha  occ. eigenvalues --   -0.22644
 Alpha virt. eigenvalues --   -0.06514   0.00106   0.02335   0.04098   0.04916
 Alpha virt. eigenvalues --    0.05572   0.07485   0.07798   0.09888   0.10515
 Alpha virt. eigenvalues --    0.11361   0.12011   0.12470   0.12792   0.13632

 Mulliken charges:
               1
     1  Mg   0.986898
     2  C   -0.108935
     3  C   -0.085634
     4  C   -0.110539
     5  C   -0.095962
     6  N   -0.342024
     7  C   -0.038106
     8  C   -0.062563
     9  C   -0.058507
    10  C    0.026663
    11  C    0.027358
    12  C   -0.015057
    13  C   -0.118741
    14  H    0.036882
    15  N   -0.448426
    16  C    0.153376
    17  C   -0.157823
    18  C   -0.113641
    19  C    0.206816
    20  C    0.095493
    21  C    0.069672
    22  O   -0.226550
    23  C   -0.026075
    24  N   -0.421953
    25  C    0.079313
    26  C   -0.103112
    27  C   -0.075615
    28  C    0.085822
    29  C    0.009850
    30  C   -0.024361
    31  C   -0.038117
    32  N   -0.406465
    33  C    0.119579
    34  C   -0.211642
    35  C   -0.096332
    36  C    0.263456
    37  C    0.092520
    38  C    0.145460
    39  O   -0.217863
    40  C   -0.059423
    41  C    0.315838
    42  O   -0.277626
    43  O   -0.382230
    44  C    0.152242
    45  H   -0.009095
    46  H   -0.035050
    47  H   -0.015846
    48  H    0.049470
    49  H    0.045649
    50  H    0.043695
    51  H    0.040414
    52  H    0.046393
    53  H    0.038286
    54  H    0.048327
    55  H    0.063098
    56  H    0.056416
    57  H    0.065365
    58  H    0.023013
    59  H    0.044083
    60  H    0.073612
    61  H    0.060910
    62  H    0.052777
    63  H    0.044426
    64  H    0.036120
    65  H    0.037587
    66  H    0.038512
    67  H    0.031781
    68  H    0.048518
    69  H    0.025122
    70  H    0.051621
    71  H    0.041623
    72  H    0.037710
    73  H    0.034753
    74  H    0.054939
    75  H    0.066670
    76  H    0.059823
    77  H    0.069371
    78  H    0.033791
    79  H    0.052203
 Sum of Mulliken charges =  -0.00000

 Dipole moment (field-independent basis, Debye):
    X=             -2.3205    Y=             -0.3569    Z=             -0.8952  Tot=              2.5127
 Quadrupole moment (field-independent basis, Debye-Ang):
   XX=           -253.2788   YY=           -246.7524   ZZ=           -259.6379
   XY=            -48.2337   XZ=              1.0503   YZ=              4.0553

 Normal termination of Gaussian 16 at Sun Sep 19 17:01:10 2021.
