 Gaussian 16, Revision A.03,
 Gaussian 16:  ES64L-G16RevA.03 25-Dec-2016

 --------------------------------
 #p wB97XD/Def2SVP td=(nstates=5)
 --------------------------------

 --------------------------------
 TDDFT excited states in gaussian
 --------------------------------
 Symbolic Z-matrix:
 Charge =  0 Multiplicity = 1

                         Standard orientation:
 ---------------------------------------------------------------------
 Center     Atomic      Atomic             Coordinates (Angstroms)
 Number     Number       Type             X           Y           Z
 ---------------------------------------------------------------------
      1         12           0       25.667173   -0.193250   -0.313723
      2          6           0       22.372217   -0.435156    0.656346
      3          6           0       24.711871    1.979682   -2.769341
      4          6           0       28.776765    0.921507   -0.335396
      5          6           0       26.475324   -2.407229    2.288712
      6          7           0       23.780882    0.993741   -0.626802
      7          6           0       22.543781    0.549948   -0.285277
      8          6           0       21.446587    1.284741   -0.997080
      9          6           0       22.198296    1.681668   -2.308730
     10          6           0       23.654328    1.473675   -1.919113
     11          6           0       21.720441    0.878290   -3.552213
     12          6           0       20.955295    2.584340   -0.182453
     13          6           0       19.395810    2.917647   -0.298244
     14          1           0       19.258575    4.290985   -0.907464
     15          7           0       26.640137    1.117501   -1.550056
     16          6           0       26.119866    1.990911   -2.440018
     17          6           0       27.170416    2.807428   -3.034857
     18          6           0       28.363878    2.484216   -2.357060
     19          6           0       27.945147    1.464622   -1.354578
     20          6           0       26.851163    3.844385   -4.138973
     21          6           0       29.640828    3.256234   -2.539473
     22          8           0       29.687836    4.140484   -3.354417
     23          6           0       30.922076    3.038136   -1.712169
     24          7           0       27.470551   -0.748440    0.727604
     25          6           0       28.559776   -0.144302    0.547547
     26          6           0       29.624395   -0.548074    1.499314
     27          6           0       28.903114   -1.653314    2.366579
     28          6           0       27.554301   -1.620792    1.790914
     29          6           0       30.936254   -0.972328    0.756445
     30          6           0       28.915417   -1.297150    3.924998
     31          6           0       28.653762   -2.468306    4.937544
     32          7           0       24.687041   -1.294442    1.130609
     33          6           0       25.145561   -2.227008    2.043292
     34          6           0       24.044516   -2.880794    2.694618
     35          6           0       22.892734   -2.228026    2.131035
     36          6           0       23.343304   -1.228183    1.290853
     37          6           0       24.098553   -3.976153    3.710304
     38          6           0       21.470532   -2.226252    2.131129
     39          8           0       20.593953   -2.866445    2.725952
     40          6           0       21.076044   -0.942355    1.328626
     41          6           0       19.961909   -1.335336    0.416787
     42          8           0       18.757005   -1.209467    0.676735
     43          8           0       20.471450   -1.904690   -0.717459
     44          6           0       19.344154   -2.333670   -1.592126
     45          1           0       24.508870    2.570989   -3.665084
     46          1           0       29.780088    1.351157   -0.326150
     47          1           0       26.732715   -2.987116    3.178348
     48          1           0       20.701380    0.514982   -1.193662
     49          1           0       21.971722    2.721112   -2.546625
     50          1           0       21.263398    1.561329   -4.267640
     51          1           0       20.921920    0.215684   -3.216817
     52          1           0       22.574715    0.313851   -3.924701
     53          1           0       21.521402    3.500636   -0.349176
     54          1           0       21.139109    2.452962    0.883388
     55          1           0       19.062179    2.981248    0.737598
     56          1           0       18.721381    2.198946   -0.763910
     57          1           0       27.121465    4.871975   -3.896160
     58          1           0       25.813754    3.830939   -4.475030
     59          1           0       27.391578    3.527932   -5.030489
     60          1           0       31.367339    2.054717   -1.859342
     61          1           0       30.791654    3.221416   -0.645336
     62          1           0       31.568001    3.872518   -1.987155
     63          1           0       29.776302    0.350554    2.097072
     64          1           0       29.209981   -2.691682    2.243492
     65          1           0       31.727523   -0.314460    1.115225
     66          1           0       30.830744   -0.905814   -0.326545
     67          1           0       31.345482   -1.927740    1.084439
     68          1           0       28.172320   -0.528372    4.137918
     69          1           0       29.898354   -0.866437    4.110154
     70          1           0       29.397747   -2.743637    5.684558
     71          1           0       28.515248   -3.408614    4.405691
     72          1           0       27.740424   -2.280252    5.501972
     73          1           0       25.071600   -4.435628    3.882872
     74          1           0       23.377717   -4.660386    3.264547
     75          1           0       23.631754   -3.468404    4.554434
     76          1           0       20.777799   -0.098049    1.951072
     77          1           0       18.832141   -3.178236   -1.132086
     78          1           0       19.682531   -2.789061   -2.522862
     79          1           0       18.715387   -1.460917   -1.769582
     80         12           0      -25.581436    0.215530    0.337276
     81          6           0      -22.518459   -1.096697   -0.831679
     82          6           0      -27.249020   -2.359608   -1.168044
     83          6           0      -28.385529    1.861210    0.883982
     84          6           0      -23.791190    3.077378    1.428469
     85          7           0      -24.907266   -1.590204   -0.768049
     86          6           0      -23.663501   -1.887606   -1.088627
     87          6           0      -23.619635   -3.340306   -1.526962
     88          6           0      -25.083382   -3.601641   -2.053196
     89          6           0      -25.829832   -2.440541   -1.296336
     90          6           0      -25.137545   -3.597457   -3.628251
     91          6           0      -23.320732   -4.306725   -0.352161
     92          6           0      -22.759979   -5.739011   -0.762062
     93          1           0      -22.565091   -6.144196   -2.225620
     94          7           0      -27.514844   -0.276267    0.107604
     95          6           0      -28.065857   -1.442875   -0.481925
     96          6           0      -29.539243   -1.382307   -0.338474
     97          6           0      -29.873022   -0.086581    0.196794
     98          6           0      -28.588248    0.604074    0.441634
     99          6           0      -30.453912   -2.497356   -0.704750
    100          6           0      -31.245652    0.605476    0.554376
    101          8           0      -31.343506    1.711666    1.102823
    102          6           0      -32.513666   -0.044874    0.082231
    103          7           0      -26.037595    2.263403    0.959211
    104          6           0      -27.262969    2.671161    1.157571
    105          6           0      -27.394745    4.062278    1.711234
    106          6           0      -25.894631    4.486290    1.890623
    107          6           0      -25.166006    3.164672    1.488645
    108          6           0      -28.309999    4.934768    0.847187
    109          6           0      -25.517801    4.915233    3.303121
    110          6           0      -24.544333    6.141209    3.431779
    111          7           0      -23.527776    0.912763    0.408049
    112          6           0      -22.962587    2.093031    0.929473
    113          6           0      -21.545599    1.970947    0.901300
    114          6           0      -21.292847    0.834177    0.069034
    115          6           0      -22.496341    0.214629   -0.154214
    116          6           0      -20.575598    2.846257    1.641824
    117          6           0      -20.312477   -0.099947   -0.534893
    118          8           0      -19.100752   -0.044724   -0.568541
    119          6           0      -21.132883   -1.215757   -1.340926
    120          6           0      -20.388195   -2.510472   -1.356650
    121          8           0      -20.080655   -3.169595   -0.407628
    122          8           0      -19.978453   -2.849220   -2.659805
    123          6           0      -18.724437   -3.623041   -2.778516
    124          1           0      -27.855737   -3.032010   -1.778846
    125          1           0      -29.247500    2.432061    1.233807
    126          1           0      -23.266457    3.940404    1.843732
    127          1           0      -22.760413   -3.364227   -2.197152
    128          1           0      -25.467946   -4.562198   -1.708706
    129          1           0      -24.148733   -3.396626   -4.039224
    130          1           0      -25.711293   -2.699525   -3.857774
    131          1           0      -25.478343   -4.531012   -4.076124
    132          1           0      -24.287040   -4.438399    0.136392
    133          1           0      -22.637076   -3.789198    0.320707
    134          1           0      -23.440546   -6.443371   -0.281308
    135          1           0      -21.812017   -5.825265   -0.230442
    136          1           0      -30.033422   -3.474909   -0.937952
    137          1           0      -31.034070   -2.279270   -1.600949
    138          1           0      -31.075267   -2.621222    0.182548
    139          1           0      -32.913896   -0.789824    0.769792
    140          1           0      -32.156592   -0.454275   -0.863551
    141          1           0      -33.214356    0.768469   -0.104462
    142          1           0      -27.858365    3.871548    2.679021
    143          1           0      -25.580714    5.292968    1.229324
    144          1           0      -28.367025    4.618705   -0.194878
    145          1           0      -27.847578    5.921021    0.850988
    146          1           0      -29.328715    4.986482    1.232066
    147          1           0      -25.044427    4.098850    3.848328
    148          1           0      -26.476628    4.997647    3.814720
    149          1           0      -24.151372    6.442567    2.460917
    150          1           0      -23.720733    5.767816    4.039996
    151          1           0      -24.903002    7.049338    3.917412
    152          1           0      -20.889541    3.864715    1.412662
    153          1           0      -19.535231    2.730289    1.337484
    154          1           0      -20.697102    2.708154    2.716663
    155          1           0      -21.112711   -0.960081   -2.399841
    156          1           0      -18.973991   -4.598002   -3.197435
    157          1           0      -18.208632   -3.725860   -1.823170
    158          1           0      -18.105888   -3.056450   -3.474510
 ---------------------------------------------------------------------

 SCF Done:  E(RwB97XD) =  -4070.58789687     A.U. after   19 cycles

 Excitation energies and oscillator strengths:

 Excited State   1:      Singlet-A      1.6575 eV  748.00 nm  f=0.3604  <S**2>=0.000
     309 -> 316       -0.16766
     312 -> 313        0.68564
     309 <- 316       -0.10881
 This state for optimization and/or second-order correction.
 Total Energy, E(TD-HF/TD-DFT) =  -4070.52698314
 Copying the excited state density for this state as the 1-particle RhoCI density.

 Excited State   2:      Singlet-A      1.7663 eV  701.95 nm  f=0.3732  <S**2>=0.000
     310 -> 315       -0.19126
     311 -> 314        0.67833
     310 <- 315       -0.11017

 Excited State   3:      Singlet-A      2.1196 eV  584.95 nm  f=0.0966  <S**2>=0.000
     310 -> 314        0.63986
     311 -> 315        0.27487

 Excited State   4:      Singlet-A      2.1684 eV  571.77 nm  f=0.1043  <S**2>=0.000
     309 -> 313        0.63811
     312 -> 316        0.28225

 Excited State   5:      Singlet-A      3.2678 eV  379.41 nm  f=0.0032  <S**2>=0.000
     304 -> 314        0.16871
     305 -> 314       -0.15479
     308 -> 314        0.64117
     308 -> 317        0.10641

 The electronic state is 1-A.
 Alpha  occ. eigenvalues --  -46.95544 -46.94841 -19.30705 -19.28436 -19.25396
 Alpha  occ. eigenvalues --  -19.24580 -19.24416 -19.23949 -19.23292 -19.22856
 Alpha  occ. eigenvalues --  -14.46655 -14.46494 -14.46476 -14.46289 -14.44941
 Alpha  occ. eigenvalues --  -14.44410 -14.43111 -14.42534 -10.42462 -10.42331
 Alpha  occ. eigenvalues --  -10.40833 -10.39769 -10.38729 -10.37991 -10.36425
 Alpha  occ. eigenvalues --  -10.36310 -10.35853 -10.35698 -10.35410 -10.35134
 Alpha  occ. eigenvalues --  -10.34927 -10.34872 -10.34666 -10.34621 -10.34548
 Alpha  occ. eigenvalues --  -10.34142 -10.34031 -10.33902 -10.33634 -10.33624
 Alpha  occ. eigenvalues --  -10.33405 -10.32700 -10.32417 -10.32240 -10.32228
 Alpha  occ. eigenvalues --  -10.32226 -10.32150 -10.32145 -10.32086 -10.31956
 Alpha  occ. eigenvalues --  -10.31954 -10.31922 -10.31829 -10.31822 -10.31780
 Alpha  occ. eigenvalues --  -10.31715 -10.31709 -10.31662 -10.31629 -10.31624
 Alpha  occ. eigenvalues --  -10.31584 -10.31486 -10.31362 -10.31358 -10.31275
 Alpha  occ. eigenvalues --  -10.31219 -10.30867 -10.30796 -10.30716 -10.30643
 Alpha  occ. eigenvalues --  -10.30632 -10.30573 -10.30570 -10.30111 -10.30097
 Alpha  occ. eigenvalues --  -10.30083 -10.30063 -10.29988 -10.29929 -10.29888
 Alpha  occ. eigenvalues --  -10.29690 -10.29665 -10.29510 -10.29376 -10.28352
 Alpha  occ. eigenvalues --  -10.28341  -3.21556  -3.20752  -1.95132  -1.94694
 Alpha  occ. eigenvalues --   -1.94517  -1.94354  -1.93874  -1.93713  -1.18051
 Alpha  occ. eigenvalues --   -1.17275  -1.14221  -1.12753  -1.11669  -1.10235
 Alpha  occ. eigenvalues --   -1.09136  -1.09032  -1.08569  -1.07076  -1.06662
 Alpha  occ. eigenvalues --   -1.06482  -1.05950  -1.04785  -1.03627  -1.03049
 Alpha  occ. eigenvalues --   -0.94395  -0.93701  -0.91582  -0.91128  -0.90822
 Alpha  occ. eigenvalues --   -0.90587  -0.90106  -0.89641  -0.89510  -0.89217
 Alpha  occ. eigenvalues --   -0.89151  -0.88912  -0.88498  -0.87285  -0.86187
 Alpha  occ. eigenvalues --   -0.85880  -0.85651  -0.85549  -0.84816  -0.84152
 Alpha  occ. eigenvalues --   -0.83720  -0.83570  -0.82802  -0.82543  -0.82254
 Alpha  occ. eigenvalues --   -0.81770  -0.80591  -0.80323  -0.79796  -0.79053
 Alpha  occ. eigenvalues --   -0.78690  -0.78252  -0.77843  -0.77420  -0.77261
 Alpha  occ. eigenvalues --   -0.77059  -0.74618  -0.74426  -0.74192  -0.73656
 Alpha  occ. eigenvalues --   -0.72360  -0.71717  -0.71303  -0.70575  -0.70111
 Alpha  occ. eigenvalues --   -0.69650  -0.69201  -0.68723  -0.68608  -0.67919
 Alpha  occ. eigenvalues --   -0.67278  -0.67077  -0.66836  -0.66519  -0.66435
 Alpha  occ. eigenvalues --   -0.65410  -0.64355  -0.62984  -0.62552  -0.62239
 Alpha  occ. eigenvalues --   -0.61542  -0.61160  -0.61057  -0.60745  -0.60543
 Alpha  occ. eigenvalues --   -0.59985  -0.59967  -0.59504  -0.58944  -0.58741
 Alpha  occ. eigenvalues --   -0.58556  -0.58436  -0.58081  -0.57621  -0.57370
 Alpha  occ. eigenvalues --   -0.56984  -0.56903  -0.56119  -0.56044  -0.55648
 Alpha  occ. eigenvalues --   -0.55520  -0.55104  -0.55026  -0.54905  -0.54724
 Alpha  occ. eigenvalues --   -0.54636  -0.54306  -0.54106  -0.53914  -0.53892
 Alpha  occ. eigenvalues --   -0.53640  -0.53587  -0.53244  -0.53132  -0.53092
 Alpha  occ. eigenvalues --   -0.53086  -0.52830  -0.52505  -0.52418  -0.52390
 Alpha  occ. eigenvalues --   -0.52144  -0.52036  -0.51907  -0.51820  -0.51634
 Alpha  occ. eigenvalues --   -0.51147  -0.51034  -0.50816  -0.50803  -0.50610
 Alpha  occ. eigenvalues --   -0.50576  -0.50216  -0.50213  -0.49910  -0.49722
 Alpha  occ. eigenvalues --   -0.49679  -0.49541  -0.49443  -0.49330  -0.49196
 Alpha  occ. eigenvalues --   -0.48900  -0.48861  -0.48714  -0.48523  -0.48408
 Alpha  occ. eigenvalues --   -0.48179  -0.48137  -0.48052  -0.47785  -0.47653
 Alpha  occ. eigenvalues --   -0.47464  -0.47312  -0.47302  -0.47058  -0.46921
 Alpha  occ. eigenvalues --   -0.46727  -0.46536  -0.46322  -0.46224  -0.46130
 Alpha  occ. eigenvalues --   -0.46106  -0.45911  -0.45856  -0.45612  -0.45292
 Alpha  occ. eigenvalues --   -0.45259  -0.45084  -0.44983  -0.44851  -0.44681
 Alpha  occ. eigenvalues --   -0.44501  -0.44494  -0.44179  -0.44051  -0.43905
 Alpha  occ. eigenvalues --   -0.43807  -0.43787  -0.43580  -0.43427  -0.43317
 Alpha  occ. eigenvalues --   -0.43232  -0.43081  -0.43028  -0.42869  -0.42638
 Alpha  occ. eigenvalues --   -0.41990  -0.41948  -0.41860  -0.41484  -0.40939
 Alpha  occ. eigenvalues --   -0.40658  -0.40548  -0.40199  -0.39682  -0.39587
 Alpha  occ. eigenvalues --   -0.39567  -0.38860  -0.38734  -0.38379  -0.38345
 Alpha  occ. eigenvalues --   -0.37642  -0.37313  -0.36946  -0.36183  -0.35778
 Alpha  occ. eigenvalues --   -0.35751  -0.35299  -0.35178  -0.33948  -0.33892
 Alpha  occ. eigenvalues --   -0.33562  -0.33379  -0.32764  -0.32478  -0.31996
 Alpha  occ. eigenvalues --   -0.31980  -0.31001  -0.30357  -0.26118  -0.25634
 Alpha  occ. eigenvalues --   -0.23122  -0.22957
 Alpha virt. eigenvalues --   -0.07088  -0.06785  -0.00064   0.00164   0.01918
 Alpha virt. eigenvalues --    0.02323   0.04178   0.04916   0.05166   0.06068
 Alpha virt. eigenvalues --    0.06996   0.07022   0.08142   0.08158   0.08951

 Mulliken charges:
               1
     1  Mg   0.966953
     2  C    0.015791
     3  C   -0.089451
     4  C   -0.073401
     5  C   -0.081712
     6  N   -0.340963
     7  C   -0.050025
     8  C   -0.024452
     9  C   -0.146536
    10  C    0.111170
    11  C    0.045264
    12  C    0.022916
    13  C   -0.129972
    14  H    0.028902
    15  N   -0.460577
    16  C    0.119201
    17  C   -0.139273
    18  C   -0.060659
    19  C    0.168537
    20  C    0.086746
    21  C    0.018659
    22  O   -0.211083
    23  C   -0.019663
    24  N   -0.295358
    25  C    0.031505
    26  C   -0.087896
    27  C   -0.051461
    28  C    0.005329
    29  C    0.018794
    30  C   -0.018447
    31  C   -0.065418
    32  N   -0.451092
    33  C    0.151411
    34  C   -0.200797
    35  C   -0.007499
    36  C    0.105819
    37  C    0.098586
    38  C    0.085815
    39  O   -0.226170
    40  C   -0.061177
    41  C    0.241409
    42  O   -0.258030
    43  O   -0.370150
    44  C    0.138449
    45  H    0.002871
    46  H   -0.045521
    47  H   -0.027203
    48  H    0.026114
    49  H    0.042461
    50  H    0.041627
    51  H    0.029837
    52  H    0.040797
    53  H    0.040674
    54  H    0.032336
    55  H    0.057577
    56  H    0.062944
    57  H    0.069793
    58  H    0.019245
    59  H    0.052813
    60  H    0.067208
    61  H    0.060701
    62  H    0.051508
    63  H    0.046677
    64  H    0.041942
    65  H    0.030558
    66  H    0.057212
    67  H    0.038702
    68  H    0.041071
    69  H    0.036529
    70  H    0.040094
    71  H    0.033041
    72  H    0.044214
    73  H    0.043239
    74  H    0.065020
    75  H    0.064744
    76  H    0.078474
    77  H    0.064907
    78  H    0.047281
    79  H    0.060514
    80  Mg   0.949623
    81  C    0.045813
    82  C   -0.095119
    83  C   -0.065617
    84  C   -0.086078
    85  N   -0.314079
    86  C    0.001019
    87  C   -0.120530
    88  C   -0.103148
    89  C    0.089350
    90  C    0.035017
    91  C   -0.006436
    92  C   -0.094858
    93  H    0.041419
    94  N   -0.554555
    95  C    0.176003
    96  C   -0.150895
    97  C   -0.082884
    98  C    0.208142
    99  C    0.034942
   100  C    0.082049
   101  O   -0.237333
   102  C   -0.013262
   103  N   -0.304624
   104  C   -0.029765
   105  C   -0.047664
   106  C   -0.103721
   107  C    0.058393
   108  C    0.030148
   109  C   -0.003912
   110  C   -0.057121
   111  N   -0.438207
   112  C    0.134168
   113  C   -0.193234
   114  C   -0.035326
   115  C    0.077363
   116  C    0.080560
   117  C    0.135361
   118  O   -0.202566
   119  C   -0.093363
   120  C    0.221008
   121  O   -0.208193
   122  O   -0.410344
   123  C    0.136730
   124  H    0.001457
   125  H    0.012923
   126  H   -0.022010
   127  H    0.032010
   128  H    0.036177
   129  H    0.038428
   130  H    0.032932
   131  H    0.048352
   132  H    0.023399
   133  H    0.054553
   134  H    0.041785
   135  H    0.065448
   136  H    0.043006
   137  H    0.065276
   138  H    0.060771
   139  H    0.079992
   140  H    0.041679
   141  H    0.065148
   142  H    0.042228
   143  H    0.040182
   144  H    0.046660
   145  H    0.033111
   146  H    0.056274
   147  H    0.030830
   148  H    0.022355
   149  H    0.035972
   150  H    0.038548
   151  H    0.045670
   152  H    0.035932
   153  H    0.058458
   154  H    0.050957
   155  H    0.080257
   156  H    0.051953
   157  H    0.069293
   158  H    0.055724
 Sum of Mulliken charges =  -0.00000

 Dipole moment (field-independent basis, Debye):
    X=             -0.0127    Y=             -0.8625    Z=             -2.3904  Tot=              2.5413
 Quadrupole moment (field-independent basis, Debye-Ang):
   XX=             57.7054   YY=           -494.0432   ZZ=           -498.6695
   XY=              2.1227   XZ=             20.9449   YZ=             26.4282

 Normal termination of Gaussian 16 at Mon Sep 20 05:39:17 2021.
