 Gaussian 16, Revision A.03,
 Gaussian 16:  ES64L-G16RevA.03 25-Dec-2016

 --------------------------------
 #p wB97XD/Def2SVP td=(nstates=5)
 --------------------------------

 --------------------------------
 TDDFT excited states in gaussian
 --------------------------------
 Symbolic Z-matrix:
 Charge =  0 Multiplicity = 1

                         Standard orientation:
 ---------------------------------------------------------------------
 Center     Atomic      Atomic             Coordinates (Angstroms)
 Number     Number       Type             X           Y           Z
 ---------------------------------------------------------------------
      1         12           0      -26.362615   -0.476390   -0.050797
      2          6           0      -24.848839    2.726225    0.085098
      3          6           0      -23.497874   -1.752325    1.250307
      4          6           0      -28.091930   -3.335836    0.575638
      5          6           0      -29.347132    1.083270   -0.871077
      6          7           0      -24.487967    0.529846    0.710618
      7          6           0      -24.010155    1.807982    0.591687
      8          6           0      -22.601819    1.920535    1.044313
      9          6           0      -22.111972    0.397131    1.088705
     10          6           0      -23.415415   -0.323642    1.030965
     11          6           0      -21.169349    0.071028   -0.058511
     12          6           0      -22.609017    2.699572    2.368953
     13          6           0      -21.685413    3.985943    2.469548
     14          1           0      -20.631994    4.139881    3.607668
     15          7           0      -25.914151   -2.325006    0.744220
     16          6           0      -24.617292   -2.672870    1.146913
     17          6           0      -24.607682   -4.080098    1.412558
     18          6           0      -25.940454   -4.592423    1.261344
     19          6           0      -26.701011   -3.412529    0.769465
     20          6           0      -23.313216   -4.797178    1.773872
     21          6           0      -26.451781   -5.996459    1.494760
     22          8           0      -25.535661   -6.829142    1.755225
     23          6           0      -27.922031   -6.498535    1.558776
     24          7           0      -28.456500   -1.081350   -0.138499
     25          6           0      -28.902765   -2.326283    0.138806
     26          6           0      -30.442020   -2.468032    0.003463
     27          6           0      -30.825222   -1.061876   -0.574080
     28          6           0      -29.435895   -0.273139   -0.471320
     29          6           0      -30.768865   -3.630677   -0.916521
     30          6           0      -31.905050   -0.334982    0.167785
     31          6           0      -33.185132   -0.189024   -0.609398
     32          7           0      -26.993915    1.395752   -0.507345
     33          6           0      -28.228612    1.938223   -0.885517
     34          6           0      -28.111489    3.238105   -1.312904
     35          6           0      -26.785532    3.588333   -0.986099
     36          6           0      -26.180195    2.462928   -0.431612
     37          6           0      -29.191467    3.970413   -2.080838
     38          6           0      -25.781495    4.679593   -1.098349
     39          8           0      -25.897569    5.765967   -1.574584
     40          6           0      -24.545173    4.105632   -0.308188
     41          6           0      -23.305618    4.504953   -1.078698
     42          8           0      -22.538413    5.409791   -0.749897
     43          8           0      -23.127824    3.656700   -2.198567
     44          6           0      -21.874966    3.921425   -2.905321
     45          1           0      -22.525857   -2.206521    1.454877
     46          1           0      -28.668544   -4.259293    0.667244
     47          1           0      -30.268483    1.666886   -0.912082
     48          1           0      -22.029048    2.486039    0.309195
     49          1           0      -21.572976    0.241958    2.022940
     50          1           0      -21.439630    0.565095   -0.990747
     51          1           0      -21.256048   -0.993356   -0.279381
     52          1           0      -20.118410    0.244292    0.172911
     53          1           0      -22.314899    1.999956    3.151208
     54          1           0      -23.605638    2.979814    2.710003
     55          1           0      -22.449349    4.752162    2.604021
     56          1           0      -21.278537    4.245423    1.492903
     57          1           0      -22.793344   -4.284111    2.582958
     58          1           0      -22.683733   -4.747633    0.885473
     59          1           0      -23.392058   -5.809966    2.171405
     60          1           0      -28.257084   -6.413208    0.525556
     61          1           0      -28.487159   -5.833314    2.211728
     62          1           0      -28.001960   -7.511737    1.953543
     63          1           0      -30.954795   -2.666599    0.944258
     64          1           0      -31.005729   -1.137996   -1.646024
     65          1           0      -30.214069   -4.499025   -0.560770
     66          1           0      -30.441543   -3.368325   -1.923080
     67          1           0      -31.810491   -3.891077   -1.100577
     68          1           0      -31.641714    0.689607    0.430423
     69          1           0      -32.197940   -0.745017    1.134119
     70          1           0      -33.993536   -0.590215    0.000610
     71          1           0      -33.199991   -0.793149   -1.516544
     72          1           0      -33.393515    0.828611   -0.941414
     73          1           0      -28.697444    4.817337   -2.558122
     74          1           0      -29.988165    4.332363   -1.431379
     75          1           0      -29.573528    3.234636   -2.788133
     76          1           0      -24.516812    4.759025    0.564573
     77          1           0      -21.529228    3.024180   -3.418838
     78          1           0      -21.058420    4.110092   -2.209803
     79          1           0      -21.939942    4.768921   -3.588247
     80         12           0       26.211461    0.474806    0.427802
     81          6           0       25.315692   -2.110739   -1.943048
     82          6           0       26.771151    2.345956   -2.145703
     83          6           0       27.246989    2.593680    2.730105
     84          6           0       26.309926   -2.003766    3.084234
     85          7           0       25.926255    0.149349   -1.828416
     86          6           0       25.571695   -0.939316   -2.597795
     87          6           0       25.636865   -0.594503   -4.042001
     88          6           0       26.559935    0.650650   -4.076053
     89          6           0       26.465752    1.074622   -2.591340
     90          6           0       28.022566    0.349581   -4.470215
     91          6           0       24.218526   -0.194563   -4.551207
     92          6           0       23.780784   -0.785458   -5.947212
     93          1           0       22.249930   -0.844746   -6.335796
     94          7           0       26.898612    2.337650    0.261578
     95          6           0       26.964115    3.005840   -0.859101
     96          6           0       27.356291    4.368232   -0.551257
     97          6           0       27.357624    4.421027    0.862566
     98          6           0       27.186168    3.072380    1.330548
     99          6           0       27.490844    5.423755   -1.663809
    100          6           0       27.570176    5.645343    1.708662
    101          8           0       27.580570    5.558099    2.900150
    102          6           0       27.665190    6.981385    1.046962
    103          7           0       26.983185    0.190302    2.609137
    104          6           0       27.178345    1.322676    3.281652
    105          6           0       27.212445    1.102325    4.747388
    106          6           0       27.101015   -0.454035    4.808479
    107          6           0       26.772568   -0.843721    3.391443
    108          6           0       28.397059    1.738533    5.559901
    109          6           0       26.028015   -0.906793    5.874114
    110          6           0       26.494137   -1.515426    7.226051
    111          7           0       25.913919   -1.530453    0.621706
    112          6           0       25.898016   -2.412080    1.725576
    113          6           0       25.496099   -3.759516    1.271779
    114          6           0       25.259801   -3.647095   -0.091804
    115          6           0       25.551642   -2.347399   -0.469585
    116          6           0       25.512929   -5.037189    2.145481
    117          6           0       24.831796   -4.456685   -1.277699
    118          8           0       24.468634   -5.599772   -1.424764
    119          6           0       25.018169   -3.522373   -2.575799
    120          6           0       23.915229   -3.622987   -3.459435
    121          8           0       22.949322   -2.849626   -3.396360
    122          8           0       23.943889   -4.663949   -4.382244
    123          6           0       22.912563   -4.700904   -5.464124
    124          1           0       26.953141    3.093882   -2.919457
    125          1           0       27.528038    3.311186    3.503706
    126          1           0       26.325399   -2.758036    3.872457
    127          1           0       26.155188   -1.382695   -4.588701
    128          1           0       26.262265    1.458666   -4.744054
    129          1           0       28.294250    0.894669   -5.374678
    130          1           0       28.087784   -0.723705   -4.646400
    131          1           0       28.757233    0.569609   -3.695140
    132          1           0       24.252018    0.891938   -4.633857
    133          1           0       23.530374   -0.461267   -3.749330
    134          1           0       24.216899   -1.780300   -6.033579
    135          1           0       24.290019   -0.119897   -6.645227
    136          1           0       26.718137    6.179232   -1.515601
    137          1           0       27.471301    5.045934   -2.685470
    138          1           0       28.399198    6.007672   -1.518152
    139          1           0       26.752099    7.249664    0.516203
    140          1           0       28.389865    7.079041    0.238700
    141          1           0       27.787596    7.743990    1.816492
    142          1           0       26.296057    1.521357    5.163038
    143          1           0       28.089368   -0.878161    4.986935
    144          1           0       28.951298    2.356834    4.854533
    145          1           0       29.032877    1.061724    6.131750
    146          1           0       27.974821    2.368277    6.343179
    147          1           0       25.397664   -1.679184    5.432624
    148          1           0       25.315112   -0.083061    5.910480
    149          1           0       25.937106   -1.063581    8.046652
    150          1           0       27.566085   -1.356851    7.345099
    151          1           0       26.287984   -2.585979    7.257010
    152          1           0       25.274635   -4.742041    3.166959
    153          1           0       26.530975   -5.424840    2.189636
    154          1           0       24.808859   -5.788619    1.787323
    155          1           0       25.920967   -3.846728   -3.092506
    156          1           0       22.997524   -3.831136   -6.117105
    157          1           0       21.930021   -4.960189   -5.071640
    158          1           0       23.234295   -5.467482   -6.168955
 ---------------------------------------------------------------------

 SCF Done:  E(RwB97XD) =  -4070.57736589     A.U. after   19 cycles

 Excitation energies and oscillator strengths:

 Excited State   1:      Singlet-A      1.6248 eV  763.06 nm  f=0.3586  <S**2>=0.000
     309 -> 315        0.17974
     311 -> 313        0.68480
     309 <- 315        0.11750
 This state for optimization and/or second-order correction.
 Total Energy, E(TD-HF/TD-DFT) =  -4070.51765449
 Copying the excited state density for this state as the 1-particle RhoCI density.

 Excited State   2:      Singlet-A      1.6949 eV  731.53 nm  f=0.3820  <S**2>=0.000
     310 -> 316       -0.16834
     312 -> 314        0.68668
     310 <- 316       -0.11048

 Excited State   3:      Singlet-A      2.1227 eV  584.09 nm  f=0.2214  <S**2>=0.000
     310 -> 314        0.67196
     312 -> 316        0.20545

 Excited State   4:      Singlet-A      2.1634 eV  573.09 nm  f=0.1554  <S**2>=0.000
     309 -> 313        0.64647
     311 -> 315       -0.27022

 Excited State   5:      Singlet-A      3.2313 eV  383.70 nm  f=0.0021  <S**2>=0.000
     306 -> 313        0.25037
     306 -> 317       -0.10063
     307 -> 313        0.63486

 The electronic state is 1-A.
 Alpha  occ. eigenvalues --  -46.95786 -46.95367 -19.30865 -19.29192 -19.25972
 Alpha  occ. eigenvalues --  -19.24887 -19.24627 -19.24317 -19.23455 -19.23369
 Alpha  occ. eigenvalues --  -14.46994 -14.46824 -14.46387 -14.44735 -14.44706
 Alpha  occ. eigenvalues --  -14.44417 -14.44373 -14.43621 -10.44255 -10.42325
 Alpha  occ. eigenvalues --  -10.39934 -10.39682 -10.39497 -10.39126 -10.36066
 Alpha  occ. eigenvalues --  -10.35409 -10.35372 -10.35295 -10.35126 -10.35097
 Alpha  occ. eigenvalues --  -10.34892 -10.34743 -10.34740 -10.34718 -10.34558
 Alpha  occ. eigenvalues --  -10.34076 -10.34028 -10.33832 -10.33586 -10.33357
 Alpha  occ. eigenvalues --  -10.33069 -10.32962 -10.32873 -10.32850 -10.32715
 Alpha  occ. eigenvalues --  -10.32593 -10.32585 -10.32448 -10.32434 -10.32372
 Alpha  occ. eigenvalues --  -10.32274 -10.32269 -10.32244 -10.32135 -10.32040
 Alpha  occ. eigenvalues --  -10.31976 -10.31900 -10.31865 -10.31571 -10.31400
 Alpha  occ. eigenvalues --  -10.31317 -10.31301 -10.31301 -10.31261 -10.31093
 Alpha  occ. eigenvalues --  -10.30934 -10.30857 -10.30818 -10.30563 -10.30464
 Alpha  occ. eigenvalues --  -10.30395 -10.30379 -10.30276 -10.30185 -10.30169
 Alpha  occ. eigenvalues --  -10.30021 -10.29880 -10.29878 -10.29599 -10.29549
 Alpha  occ. eigenvalues --  -10.29398 -10.29348 -10.29322 -10.29138 -10.29083
 Alpha  occ. eigenvalues --  -10.29011  -3.21764  -3.21373  -1.95339  -1.94943
 Alpha  occ. eigenvalues --   -1.94896  -1.94726  -1.94501  -1.94346  -1.17760
 Alpha  occ. eigenvalues --   -1.16323  -1.14428  -1.14287  -1.13046  -1.10177
 Alpha  occ. eigenvalues --   -1.09860  -1.08533  -1.07829  -1.07264  -1.06975
 Alpha  occ. eigenvalues --   -1.06918  -1.06302  -1.05402  -1.04814  -1.02964
 Alpha  occ. eigenvalues --   -0.95295  -0.93191  -0.91786  -0.91267  -0.91148
 Alpha  occ. eigenvalues --   -0.90957  -0.90817  -0.89883  -0.89804  -0.89771
 Alpha  occ. eigenvalues --   -0.89623  -0.88975  -0.87917  -0.87128  -0.86783
 Alpha  occ. eigenvalues --   -0.86276  -0.86212  -0.84946  -0.84574  -0.84078
 Alpha  occ. eigenvalues --   -0.83917  -0.83873  -0.82877  -0.82670  -0.82460
 Alpha  occ. eigenvalues --   -0.82379  -0.80775  -0.79781  -0.79385  -0.79039
 Alpha  occ. eigenvalues --   -0.78834  -0.78605  -0.78432  -0.78132  -0.77471
 Alpha  occ. eigenvalues --   -0.77386  -0.75531  -0.74728  -0.74220  -0.73091
 Alpha  occ. eigenvalues --   -0.71385  -0.71209  -0.70929  -0.70720  -0.69972
 Alpha  occ. eigenvalues --   -0.69672  -0.69283  -0.69263  -0.68251  -0.68057
 Alpha  occ. eigenvalues --   -0.67682  -0.67535  -0.67388  -0.66982  -0.66954
 Alpha  occ. eigenvalues --   -0.66239  -0.65121  -0.63494  -0.63051  -0.62537
 Alpha  occ. eigenvalues --   -0.62075  -0.62072  -0.61616  -0.61061  -0.60977
 Alpha  occ. eigenvalues --   -0.60095  -0.60033  -0.59530  -0.59173  -0.58832
 Alpha  occ. eigenvalues --   -0.58576  -0.58239  -0.57797  -0.57639  -0.57639
 Alpha  occ. eigenvalues --   -0.57482  -0.56864  -0.56326  -0.55920  -0.55844
 Alpha  occ. eigenvalues --   -0.55834  -0.55531  -0.55369  -0.55177  -0.55021
 Alpha  occ. eigenvalues --   -0.54642  -0.54599  -0.54379  -0.54250  -0.54016
 Alpha  occ. eigenvalues --   -0.53932  -0.53776  -0.53683  -0.53224  -0.53057
 Alpha  occ. eigenvalues --   -0.52827  -0.52533  -0.52479  -0.52256  -0.52186
 Alpha  occ. eigenvalues --   -0.52074  -0.52007  -0.51838  -0.51800  -0.51640
 Alpha  occ. eigenvalues --   -0.51612  -0.51538  -0.51173  -0.50863  -0.50759
 Alpha  occ. eigenvalues --   -0.50651  -0.50573  -0.50276  -0.50237  -0.49945
 Alpha  occ. eigenvalues --   -0.49942  -0.49699  -0.49681  -0.49469  -0.49352
 Alpha  occ. eigenvalues --   -0.49171  -0.48853  -0.48562  -0.48434  -0.48377
 Alpha  occ. eigenvalues --   -0.48146  -0.47964  -0.47843  -0.47713  -0.47699
 Alpha  occ. eigenvalues --   -0.47458  -0.47447  -0.47307  -0.47262  -0.47139
 Alpha  occ. eigenvalues --   -0.46880  -0.46826  -0.46734  -0.46524  -0.46431
 Alpha  occ. eigenvalues --   -0.45997  -0.45942  -0.45898  -0.45662  -0.45427
 Alpha  occ. eigenvalues --   -0.45276  -0.45211  -0.44909  -0.44731  -0.44664
 Alpha  occ. eigenvalues --   -0.44638  -0.44431  -0.44382  -0.44331  -0.44161
 Alpha  occ. eigenvalues --   -0.43992  -0.43777  -0.43664  -0.43483  -0.43420
 Alpha  occ. eigenvalues --   -0.43205  -0.43045  -0.42913  -0.42555  -0.42271
 Alpha  occ. eigenvalues --   -0.42094  -0.42048  -0.41788  -0.41764  -0.40973
 Alpha  occ. eigenvalues --   -0.40690  -0.40259  -0.40164  -0.39756  -0.39568
 Alpha  occ. eigenvalues --   -0.39507  -0.39279  -0.39101  -0.38471  -0.38383
 Alpha  occ. eigenvalues --   -0.38172  -0.37721  -0.37388  -0.36691  -0.35559
 Alpha  occ. eigenvalues --   -0.35487  -0.35041  -0.34763  -0.33990  -0.33977
 Alpha  occ. eigenvalues --   -0.33622  -0.33282  -0.33127  -0.32766  -0.32559
 Alpha  occ. eigenvalues --   -0.32175  -0.31965  -0.31796  -0.26333  -0.25467
 Alpha  occ. eigenvalues --   -0.23471  -0.23467
 Alpha virt. eigenvalues --   -0.07702  -0.07426   0.00071   0.01572   0.02308
 Alpha virt. eigenvalues --    0.03039   0.04427   0.04710   0.04992   0.05484
 Alpha virt. eigenvalues --    0.06267   0.06731   0.07434   0.07723   0.08149

 Mulliken charges:
               1
     1  Mg   0.972272
     2  C    0.037596
     3  C   -0.077604
     4  C   -0.047311
     5  C   -0.093007
     6  N   -0.359375
     7  C   -0.051817
     8  C   -0.053752
     9  C   -0.081862
    10  C    0.068550
    11  C    0.030557
    12  C    0.005025
    13  C   -0.116294
    14  H    0.047989
    15  N   -0.473448
    16  C    0.150637
    17  C   -0.148672
    18  C   -0.063177
    19  C    0.180233
    20  C    0.070442
    21  C    0.021596
    22  O   -0.276232
    23  C    0.023525
    24  N   -0.303436
    25  C    0.005092
    26  C   -0.045801
    27  C   -0.064935
    28  C    0.055451
    29  C    0.009448
    30  C   -0.002938
    31  C   -0.061503
    32  N   -0.466671
    33  C    0.108522
    34  C   -0.190690
    35  C   -0.079730
    36  C    0.147860
    37  C    0.086718
    38  C    0.122350
    39  O   -0.159469
    40  C   -0.057415
    41  C    0.245334
    42  O   -0.241419
    43  O   -0.390665
    44  C    0.140120
    45  H    0.005755
    46  H   -0.060421
    47  H    0.006937
    48  H    0.035223
    49  H    0.038511
    50  H    0.038046
    51  H    0.024527
    52  H    0.047557
    53  H    0.031368
    54  H    0.047672
    55  H    0.050616
    56  H    0.054801
    57  H    0.034305
    58  H    0.046830
    59  H    0.065076
    60  H    0.062908
    61  H    0.064275
    62  H    0.063561
    63  H    0.043474
    64  H    0.043081
    65  H    0.033453
    66  H    0.024384
    67  H    0.040179
    68  H    0.030986
    69  H    0.026662
    70  H    0.031339
    71  H    0.020866
    72  H    0.039946
    73  H    0.062282
    74  H    0.052046
    75  H    0.046473
    76  H    0.069832
    77  H    0.047271
    78  H    0.043962
    79  H    0.064122
    80  Mg   0.974001
    81  C   -0.021017
    82  C   -0.054192
    83  C   -0.053565
    84  C   -0.109940
    85  N   -0.301967
    86  C   -0.007139
    87  C   -0.073257
    88  C   -0.132822
    89  C    0.070307
    90  C    0.036914
    91  C    0.034120
    92  C   -0.096335
    93  H    0.049870
    94  N   -0.460733
    95  C    0.091473
    96  C   -0.147384
    97  C   -0.078582
    98  C    0.134421
    99  C    0.063144
   100  C    0.051966
   101  O   -0.201385
   102  C   -0.020780
   103  N   -0.271177
   104  C    0.014506
   105  C   -0.095339
   106  C   -0.044758
   107  C    0.058213
   108  C    0.023264
   109  C   -0.029557
   110  C   -0.028127
   111  N   -0.485540
   112  C    0.125943
   113  C   -0.223669
   114  C   -0.055362
   115  C    0.152312
   116  C    0.077604
   117  C    0.163243
   118  O   -0.174814
   119  C   -0.083139
   120  C    0.267143
   121  O   -0.273038
   122  O   -0.390007
   123  C    0.157545
   124  H   -0.025728
   125  H    0.021062
   126  H   -0.000275
   127  H    0.020579
   128  H    0.035029
   129  H    0.041929
   130  H    0.027854
   131  H    0.045275
   132  H    0.025027
   133  H    0.073846
   134  H    0.043883
   135  H    0.037069
   136  H    0.048554
   137  H    0.053701
   138  H    0.042067
   139  H    0.049896
   140  H    0.042977
   141  H    0.056150
   142  H    0.045874
   143  H    0.031651
   144  H    0.049296
   145  H    0.037543
   146  H    0.032025
   147  H    0.020892
   148  H    0.014740
   149  H    0.040151
   150  H    0.034904
   151  H    0.038242
   152  H    0.028661
   153  H    0.052701
   154  H    0.061909
   155  H    0.080213
   156  H    0.043698
   157  H    0.073798
   158  H    0.042443
 Sum of Mulliken charges =  -0.00000

 Dipole moment (field-independent basis, Debye):
    X=              0.1560    Y=              1.2110    Z=             -3.0553  Tot=              3.2902
 Quadrupole moment (field-independent basis, Debye-Ang):
   XX=           -234.3705   YY=           -575.6362   ZZ=           -475.0493
   XY=            190.9097   XZ=            -32.1287   YZ=             -7.9273

 Normal termination of Gaussian 16 at Sun Sep 19 19:39:10 2021.
