 Gaussian 16, Revision A.03,
 Gaussian 16:  ES64L-G16RevA.03 25-Dec-2016

 --------------------------------
 #p wB97XD/Def2SVP td=(nstates=5)
 --------------------------------

 --------------------------------
 TDDFT excited states in gaussian
 --------------------------------
 Symbolic Z-matrix:
 Charge =  0 Multiplicity = 1

                         Standard orientation:
 ---------------------------------------------------------------------
 Center     Atomic      Atomic             Coordinates (Angstroms)
 Number     Number       Type             X           Y           Z
 ---------------------------------------------------------------------
      1         12           0      -26.709770   -0.410415   -0.203479
      2          6           0      -24.980382    2.642658   -0.521064
      3          6           0      -28.081348    0.719046    2.690271
      4          6           0      -28.253703   -3.403162    0.112244
      5          6           0      -24.919205   -1.632204   -2.916347
      6          7           0      -26.481015    1.392796    0.988336
      7          6           0      -25.810687    2.559036    0.609241
      8          6           0      -26.136869    3.656775    1.576788
      9          6           0      -26.695492    2.876312    2.790291
     10          6           0      -27.124079    1.552898    2.105544
     11          6           0      -25.712444    2.565764    3.962879
     12          6           0      -27.123576    4.766200    1.050915
     13          6           0      -26.678435    6.168472    1.319781
     14          1           0      -27.746967    7.138152    1.858246
     15          7           0      -28.036957   -1.150774    1.125880
     16          6           0      -28.578686   -0.493299    2.242931
     17          6           0      -29.526444   -1.320084    2.877070
     18          6           0      -29.619848   -2.584607    2.125684
     19          6           0      -28.647835   -2.417984    1.083104
     20          6           0      -30.212932   -1.029222    4.179552
     21          6           0      -30.451377   -3.919128    2.363385
     22          8           0      -30.381720   -4.840429    1.584892
     23          6           0      -31.434739   -4.034332    3.519368
     24          7           0      -26.513855   -2.292956   -1.195002
     25          6           0      -27.263712   -3.370672   -0.847524
     26          6           0      -26.883668   -4.627869   -1.766972
     27          6           0      -26.030006   -3.966979   -2.935989
     28          6           0      -25.787773   -2.522529   -2.322401
     29          6           0      -26.112958   -5.783080   -1.070115
     30          6           0      -26.763807   -3.919373   -4.323404
     31          6           0      -25.940129   -4.514927   -5.386683
     32          7           0      -25.215964    0.307900   -1.442493
     33          6           0      -24.657750   -0.270278   -2.581566
     34          6           0      -23.750501    0.654944   -3.204077
     35          6           0      -23.826300    1.787162   -2.418768
     36          6           0      -24.711886    1.566232   -1.411546
     37          6           0      -23.004403    0.331083   -4.524685
     38          6           0      -23.307081    3.129737   -2.233213
     39          8           0      -22.407292    3.671458   -2.836696
     40          6           0      -24.040792    3.748137   -0.941815
     41          6           0      -23.021988    4.099245    0.064477
     42          8           0      -22.200709    3.284957    0.562006
     43          8           0      -23.108348    5.437438    0.314675
     44          6           0      -21.921959    6.009313    1.004935
     45          1           0      -28.449002    1.132185    3.631826
     46          1           0      -28.694454   -4.401394    0.149570
     47          1           0      -24.314256   -2.053679   -3.721233
     48          1           0      -25.261392    4.163182    1.985026
     49          1           0      -27.539543    3.368847    3.273390
     50          1           0      -24.964034    3.341534    4.129838
     51          1           0      -25.241180    1.609354    3.734929
     52          1           0      -26.176254    2.340724    4.922924
     53          1           0      -28.080824    4.534072    1.517317
     54          1           0      -27.325682    4.650907   -0.014362
     55          1           0      -26.303207    6.458023    0.338092
     56          1           0      -25.919899    6.166918    2.102437
     57          1           0      -31.268124   -0.764359    4.108826
     58          1           0      -29.769462   -0.139586    4.624928
     59          1           0      -30.182575   -1.787589    4.961434
     60          1           0      -31.961329   -4.974806    3.361849
     61          1           0      -32.052624   -3.140740    3.612481
     62          1           0      -30.902565   -3.934290    4.465803
     63          1           0      -27.791568   -5.130503   -2.100802
     64          1           0      -25.085476   -4.507091   -3.016385
     65          1           0      -25.823077   -5.617177   -0.032027
     66          1           0      -25.184896   -6.045784   -1.578456
     67          1           0      -26.763006   -6.657624   -1.107763
     68          1           0      -26.914929   -2.875078   -4.599266
     69          1           0      -27.711693   -4.456231   -4.354595
     70          1           0      -26.288958   -5.532295   -5.565778
     71          1           0      -24.855328   -4.503744   -5.287027
     72          1           0      -26.039265   -3.920031   -6.294699
     73          1           0      -23.493143   -0.515458   -5.007563
     74          1           0      -21.929402    0.236610   -4.364541
     75          1           0      -23.197078    1.197953   -5.155658
     76          1           0      -24.628613    4.630106   -1.197434
     77          1           0      -21.998521    7.095539    1.050521
     78          1           0      -21.087849    5.821642    0.328464
     79          1           0      -21.835615    5.491451    1.960576
     80         12           0       25.976822   -0.827183    0.117653
     81          6           0       26.307366    2.430440   -0.950313
     82          6           0       25.378564    0.422090    3.411539
     83          6           0       26.003506   -3.894213    1.281823
     84          6           0       26.731984   -1.997336   -3.079848
     85          7           0       25.866331    1.214600    1.030071
     86          6           0       25.999319    2.384645    0.398496
     87          6           0       25.712188    3.541279    1.410635
     88          6           0       25.555044    2.818380    2.826252
     89          6           0       25.657665    1.339023    2.407454
     90          6           0       26.660429    3.041414    3.840412
     91          6           0       24.544904    4.461862    1.023814
     92          6           0       24.952216    5.924800    1.074821
     93          1           0       23.915830    7.027392    1.336191
     94          7           0       25.645077   -1.609242    2.067194
     95          6           0       25.373484   -0.981863    3.248796
     96          6           0       25.153048   -1.883091    4.289999
     97          6           0       25.445481   -3.183659    3.749314
     98          6           0       25.706306   -2.943726    2.287823
     99          6           0       24.754414   -1.476313    5.701202
    100          6           0       25.529921   -4.520939    4.466881
    101          8           0       25.967418   -5.504460    3.838684
    102          6           0       25.225530   -4.657900    5.902825
    103          7           0       26.285142   -2.621275   -0.789097
    104          6           0       26.189335   -3.823499   -0.118831
    105          6           0       26.469902   -5.092470   -1.006521
    106          6           0       26.416314   -4.415797   -2.442461
    107          6           0       26.502946   -2.917739   -2.097733
    108          6           0       27.776629   -5.959835   -0.817913
    109          6           0       25.273036   -4.872030   -3.458392
    110          6           0       23.906116   -4.296041   -3.198640
    111          7           0       26.557688   -0.041750   -1.617187
    112          6           0       26.842246   -0.588260   -2.854115
    113          6           0       27.143493    0.392755   -3.814760
    114          6           0       26.904400    1.575619   -3.105767
    115          6           0       26.541639    1.283059   -1.758733
    116          6           0       27.445273    0.055575   -5.212683
    117          6           0       27.034882    2.970106   -3.286958
    118          8           0       27.467530    3.564179   -4.276564
    119          6           0       26.621649    3.649595   -1.878942
    120          6           0       27.723885    4.468207   -1.405477
    121          8           0       28.760579    4.078245   -0.918865
    122          8           0       27.500494    5.747477   -1.680031
    123          6           0       28.525927    6.707806   -1.404231
    124          1           0       25.248160    0.811706    4.422872
    125          1           0       26.046038   -4.958796    1.519863
    126          1           0       26.966352   -2.406111   -4.065000
    127          1           0       26.671846    4.056551    1.385396
    128          1           0       24.666358    3.262702    3.275883
    129          1           0       27.413978    3.768901    3.537215
    130          1           0       27.215936    2.117713    4.000311
    131          1           0       26.227408    3.232635    4.822725
    132          1           0       23.638658    4.329593    1.615107
    133          1           0       24.238158    4.194943    0.012769
    134          1           0       25.302697    6.169780    0.071546
    135          1           0       25.730290    5.991387    1.835026
    136          1           0       24.454352   -0.429480    5.749275
    137          1           0       25.638810   -1.510943    6.337779
    138          1           0       24.041280   -2.181478    6.126512
    139          1           0       25.691226   -5.554180    6.314144
    140          1           0       24.147929   -4.803660    5.984025
    141          1           0       25.577950   -3.784018    6.450224
    142          1           0       25.616082   -5.769850   -1.042094
    143          1           0       27.294214   -4.732389   -3.004252
    144          1           0       28.348478   -5.522036   -0.000682
    145          1           0       28.448396   -5.768888   -1.655738
    146          1           0       27.668267   -7.035215   -0.673850
    147          1           0       25.158932   -5.946261   -3.315170
    148          1           0       25.537937   -4.752825   -4.508280
    149          1           0       23.415724   -4.202495   -4.166962
    150          1           0       23.783103   -3.367724   -2.642199
    151          1           0       23.383576   -5.019833   -2.573179
    152          1           0       26.985900   -0.831445   -5.648148
    153          1           0       28.492803    0.117778   -5.505014
    154          1           0       27.033857    0.925556   -5.723883
    155          1           0       25.749551    4.278043   -2.058462
    156          1           0       28.456011    7.110580   -0.393145
    157          1           0       28.358190    7.548776   -2.076835
    158          1           0       29.506623    6.247655   -1.525994
 ---------------------------------------------------------------------

 SCF Done:  E(RwB97XD) =  -4070.64326689     A.U. after   19 cycles

 Excitation energies and oscillator strengths:

 Excited State   1:      Singlet-A      1.6476 eV  752.50 nm  f=0.4122  <S**2>=0.000
     309 -> 315       -0.17814
     312 -> 313        0.68444
     309 <- 315       -0.11441
 This state for optimization and/or second-order correction.
 Total Energy, E(TD-HF/TD-DFT) =  -4070.58271752
 Copying the excited state density for this state as the 1-particle RhoCI density.

 Excited State   2:      Singlet-A      1.6895 eV  733.87 nm  f=0.3966  <S**2>=0.000
     310 -> 316       -0.18340
     311 -> 314        0.68255
     310 <- 316       -0.11555

 Excited State   3:      Singlet-A      2.1431 eV  578.52 nm  f=0.1529  <S**2>=0.000
     310 -> 314        0.65151
     311 -> 316        0.25248

 Excited State   4:      Singlet-A      2.1651 eV  572.65 nm  f=0.1567  <S**2>=0.000
     309 -> 313        0.65108
     312 -> 315        0.25709

 Excited State   5:      Singlet-A      3.1997 eV  387.49 nm  f=0.0021  <S**2>=0.000
     306 -> 314       -0.29672
     308 -> 314        0.62298

 The electronic state is 1-A.
 Alpha  occ. eigenvalues --  -46.94029 -46.93559 -19.30887 -19.30002 -19.24947
 Alpha  occ. eigenvalues --  -19.24488 -19.24082 -19.23641 -19.23527 -19.23286
 Alpha  occ. eigenvalues --  -14.46885 -14.46777 -14.46684 -14.46105 -14.44313
 Alpha  occ. eigenvalues --  -14.43979 -14.43553 -14.43162 -10.43292 -10.42081
 Alpha  occ. eigenvalues --  -10.40370 -10.39051 -10.38835 -10.38516 -10.35924
 Alpha  occ. eigenvalues --  -10.35553 -10.35231 -10.35149 -10.35083 -10.34915
 Alpha  occ. eigenvalues --  -10.34795 -10.34747 -10.34702 -10.34663 -10.34433
 Alpha  occ. eigenvalues --  -10.34130 -10.34019 -10.33404 -10.33163 -10.33092
 Alpha  occ. eigenvalues --  -10.33041 -10.32969 -10.32626 -10.32604 -10.32473
 Alpha  occ. eigenvalues --  -10.32427 -10.32394 -10.32294 -10.32194 -10.32165
 Alpha  occ. eigenvalues --  -10.32048 -10.32008 -10.31860 -10.31841 -10.31829
 Alpha  occ. eigenvalues --  -10.31729 -10.31711 -10.31685 -10.31636 -10.31625
 Alpha  occ. eigenvalues --  -10.31612 -10.31490 -10.31377 -10.31223 -10.31209
 Alpha  occ. eigenvalues --  -10.31040 -10.30708 -10.30640 -10.30511 -10.30433
 Alpha  occ. eigenvalues --  -10.30363 -10.30284 -10.30250 -10.30161 -10.30014
 Alpha  occ. eigenvalues --  -10.29986 -10.29968 -10.29865 -10.29618 -10.29612
 Alpha  occ. eigenvalues --  -10.29414 -10.29197 -10.28754 -10.28656 -10.28451
 Alpha  occ. eigenvalues --  -10.28352  -3.20221  -3.19693  -1.93816  -1.93368
 Alpha  occ. eigenvalues --   -1.93293  -1.93198  -1.92810  -1.92694  -1.20084
 Alpha  occ. eigenvalues --   -1.17946  -1.13970  -1.12559  -1.11072  -1.10716
 Alpha  occ. eigenvalues --   -1.09946  -1.08528  -1.06963  -1.06596  -1.05744
 Alpha  occ. eigenvalues --   -1.05361  -1.05321  -1.04582  -1.04571  -1.03521
 Alpha  occ. eigenvalues --   -0.94555  -0.94035  -0.91267  -0.91085  -0.90636
 Alpha  occ. eigenvalues --   -0.90566  -0.90196  -0.89950  -0.89570  -0.89435
 Alpha  occ. eigenvalues --   -0.88975  -0.88718  -0.88394  -0.87779  -0.86509
 Alpha  occ. eigenvalues --   -0.86228  -0.85740  -0.85715  -0.84825  -0.84822
 Alpha  occ. eigenvalues --   -0.84314  -0.84064  -0.83155  -0.83135  -0.82646
 Alpha  occ. eigenvalues --   -0.82556  -0.80303  -0.80244  -0.79256  -0.79241
 Alpha  occ. eigenvalues --   -0.78821  -0.78702  -0.77871  -0.77662  -0.77204
 Alpha  occ. eigenvalues --   -0.76841  -0.75426  -0.74878  -0.73412  -0.72928
 Alpha  occ. eigenvalues --   -0.71547  -0.70818  -0.70616  -0.70039  -0.69735
 Alpha  occ. eigenvalues --   -0.69533  -0.69077  -0.68539  -0.67473  -0.67328
 Alpha  occ. eigenvalues --   -0.67113  -0.66907  -0.66598  -0.66559  -0.66340
 Alpha  occ. eigenvalues --   -0.66064  -0.64288  -0.63948  -0.62410  -0.62352
 Alpha  occ. eigenvalues --   -0.62109  -0.61975  -0.61267  -0.60982  -0.60483
 Alpha  occ. eigenvalues --   -0.60292  -0.60164  -0.59704  -0.59655  -0.59604
 Alpha  occ. eigenvalues --   -0.58492  -0.58198  -0.58084  -0.57657  -0.57434
 Alpha  occ. eigenvalues --   -0.57085  -0.56904  -0.56576  -0.56283  -0.55732
 Alpha  occ. eigenvalues --   -0.55548  -0.55441  -0.55401  -0.55119  -0.54689
 Alpha  occ. eigenvalues --   -0.54585  -0.54516  -0.54439  -0.54224  -0.54005
 Alpha  occ. eigenvalues --   -0.53839  -0.53760  -0.53661  -0.53527  -0.53270
 Alpha  occ. eigenvalues --   -0.52985  -0.52824  -0.52458  -0.52260  -0.52205
 Alpha  occ. eigenvalues --   -0.52069  -0.51917  -0.51758  -0.51592  -0.51407
 Alpha  occ. eigenvalues --   -0.51374  -0.51362  -0.51146  -0.51123  -0.51065
 Alpha  occ. eigenvalues --   -0.50857  -0.50661  -0.50315  -0.50052  -0.49905
 Alpha  occ. eigenvalues --   -0.49698  -0.49596  -0.49276  -0.49182  -0.48798
 Alpha  occ. eigenvalues --   -0.48770  -0.48586  -0.48442  -0.48400  -0.48298
 Alpha  occ. eigenvalues --   -0.48078  -0.47936  -0.47791  -0.47691  -0.47428
 Alpha  occ. eigenvalues --   -0.47336  -0.47332  -0.47044  -0.47004  -0.46848
 Alpha  occ. eigenvalues --   -0.46707  -0.46601  -0.46504  -0.46417  -0.46300
 Alpha  occ. eigenvalues --   -0.46284  -0.45826  -0.45549  -0.45424  -0.45367
 Alpha  occ. eigenvalues --   -0.45272  -0.45189  -0.44879  -0.44802  -0.44598
 Alpha  occ. eigenvalues --   -0.44587  -0.44474  -0.44315  -0.43910  -0.43889
 Alpha  occ. eigenvalues --   -0.43803  -0.43511  -0.43411  -0.43321  -0.43152
 Alpha  occ. eigenvalues --   -0.42999  -0.42895  -0.42895  -0.42368  -0.42363
 Alpha  occ. eigenvalues --   -0.41981  -0.41097  -0.41060  -0.40848  -0.40748
 Alpha  occ. eigenvalues --   -0.40290  -0.40091  -0.39914  -0.39771  -0.39648
 Alpha  occ. eigenvalues --   -0.39156  -0.38782  -0.38618  -0.38420  -0.38321
 Alpha  occ. eigenvalues --   -0.38101  -0.37934  -0.36251  -0.36217  -0.36118
 Alpha  occ. eigenvalues --   -0.35784  -0.35392  -0.35371  -0.33759  -0.33660
 Alpha  occ. eigenvalues --   -0.33498  -0.32847  -0.32706  -0.32541  -0.32209
 Alpha  occ. eigenvalues --   -0.32176  -0.31932  -0.31765  -0.26033  -0.25898
 Alpha  occ. eigenvalues --   -0.23355  -0.23276
 Alpha virt. eigenvalues --   -0.07452  -0.07386   0.00510   0.00625   0.02546
 Alpha virt. eigenvalues --    0.02767   0.04594   0.04856   0.06227   0.06459
 Alpha virt. eigenvalues --    0.06680   0.07936   0.08033   0.08259   0.08644

 Mulliken charges:
               1
     1  Mg   0.978897
     2  C   -0.032851
     3  C   -0.099716
     4  C   -0.063593
     5  C   -0.089538
     6  N   -0.322169
     7  C    0.015290
     8  C   -0.082537
     9  C   -0.128299
    10  C    0.030448
    11  C    0.020658
    12  C    0.044928
    13  C   -0.121171
    14  H    0.030817
    15  N   -0.523005
    16  C    0.241997
    17  C   -0.149258
    18  C   -0.081308
    19  C    0.154370
    20  C    0.041882
    21  C    0.076220
    22  O   -0.213743
    23  C   -0.007681
    24  N   -0.359250
    25  C    0.071691
    26  C   -0.108376
    27  C   -0.079726
    28  C    0.063586
    29  C    0.008327
    30  C    0.027457
    31  C   -0.074073
    32  N   -0.443975
    33  C    0.130202
    34  C   -0.214747
    35  C    0.007865
    36  C    0.121599
    37  C    0.094284
    38  C    0.108404
    39  O   -0.190839
    40  C   -0.041985
    41  C    0.275595
    42  O   -0.281954
    43  O   -0.372048
    44  C    0.141506
    45  H   -0.011127
    46  H    0.021697
    47  H   -0.003609
    48  H    0.026699
    49  H    0.025656
    50  H    0.045033
    51  H    0.043242
    52  H    0.033147
    53  H    0.030109
    54  H    0.030099
    55  H    0.065256
    56  H    0.054086
    57  H    0.051118
    58  H    0.023048
    59  H    0.045352
    60  H    0.070869
    61  H    0.046655
    62  H    0.048678
    63  H    0.037863
    64  H    0.037773
    65  H    0.044156
    66  H    0.029735
    67  H    0.037021
    68  H    0.035370
    69  H    0.037556
    70  H    0.038911
    71  H    0.028190
    72  H    0.026681
    73  H    0.030845
    74  H    0.066447
    75  H    0.049395
    76  H    0.057594
    77  H    0.060445
    78  H    0.064172
    79  H    0.067656
    80  Mg   0.992557
    81  C   -0.044738
    82  C   -0.105330
    83  C   -0.051530
    84  C   -0.104089
    85  N   -0.349966
    86  C   -0.028252
    87  C   -0.021395
    88  C   -0.162777
    89  C    0.116262
    90  C    0.006198
    91  C    0.037898
    92  C   -0.145935
    93  H    0.028861
    94  N   -0.425534
    95  C    0.160314
    96  C   -0.175155
    97  C   -0.074109
    98  C    0.171284
    99  C    0.066505
   100  C    0.038094
   101  O   -0.260172
   102  C    0.004717
   103  N   -0.396102
   104  C    0.027678
   105  C   -0.070184
   106  C   -0.076050
   107  C    0.087076
   108  C    0.029254
   109  C   -0.031232
   110  C   -0.058226
   111  N   -0.470433
   112  C    0.132150
   113  C   -0.134383
   114  C   -0.037984
   115  C    0.195303
   116  C    0.072357
   117  C    0.096109
   118  O   -0.219391
   119  C   -0.078193
   120  C    0.235504
   121  O   -0.251515
   122  O   -0.328059
   123  C    0.135825
   124  H   -0.002109
   125  H    0.021853
   126  H   -0.004713
   127  H    0.033207
   128  H    0.042981
   129  H    0.043817
   130  H    0.040405
   131  H    0.035198
   132  H    0.039579
   133  H    0.030044
   134  H    0.063205
   135  H    0.056134
   136  H    0.042436
   137  H    0.057044
   138  H    0.056382
   139  H    0.055851
   140  H    0.067023
   141  H    0.044953
   142  H    0.038420
   143  H    0.027396
   144  H    0.039875
   145  H    0.027328
   146  H    0.056779
   147  H    0.029188
   148  H    0.032963
   149  H    0.037811
   150  H    0.047631
   151  H    0.028762
   152  H    0.046018
   153  H    0.055577
   154  H    0.045409
   155  H    0.065550
   156  H    0.042548
   157  H    0.055548
   158  H    0.066693
 Sum of Mulliken charges =  -0.00000

 Dipole moment (field-independent basis, Debye):
    X=             -6.3868    Y=             -0.6098    Z=              5.8967  Tot=              8.7140
 Quadrupole moment (field-independent basis, Debye-Ang):
   XX=           -502.5553   YY=           -494.7532   ZZ=           -467.3389
   XY=            -46.8673   XZ=             -1.2928   YZ=             49.8711

 Normal termination of Gaussian 16 at Sat Sep 18 18:25:30 2021.
