 Gaussian 16, Revision A.03,
 Gaussian 16:  ES64L-G16RevA.03 25-Dec-2016

 --------------------------------
 #p wB97XD/Def2SVP td=(nstates=5)
 --------------------------------

 --------------------------------
 TDDFT excited states in gaussian
 --------------------------------
 Symbolic Z-matrix:
 Charge =  0 Multiplicity = 1

                         Standard orientation:
 ---------------------------------------------------------------------
 Center     Atomic      Atomic             Coordinates (Angstroms)
 Number     Number       Type             X           Y           Z
 ---------------------------------------------------------------------
      1         12           0      -17.910024   -0.724465    0.287175
      2          6           0      -17.443691    2.427074   -1.236164
      3          6           0      -17.507651    0.711975    3.361731
      4          6           0      -17.680177   -3.761056    1.550653
      5          6           0      -17.821944   -2.161216   -2.955331
      6          7           0      -17.632779    1.375661    0.957641
      7          6           0      -17.491123    2.429500    0.178201
      8          6           0      -17.667942    3.675838    1.026597
      9          6           0      -17.249090    3.192084    2.468235
     10          6           0      -17.461085    1.643440    2.281312
     11          6           0      -15.801398    3.689127    2.843582
     12          6           0      -19.137865    4.167341    1.061467
     13          6           0      -19.346817    5.690714    1.473268
     14          1           0      -18.170988    6.597787    1.845829
     15          7           0      -17.841920   -1.412300    2.172626
     16          6           0      -17.750003   -0.673418    3.379995
     17          6           0      -17.817084   -1.626598    4.512275
     18          6           0      -17.783634   -2.958967    3.964095
     19          6           0      -17.768793   -2.801712    2.493502
     20          6           0      -17.899450   -1.213430    5.939378
     21          6           0      -17.798770   -4.391951    4.625343
     22          8           0      -17.859239   -5.451095    3.986138
     23          6           0      -17.589574   -4.492448    6.108540
     24          7           0      -17.653631   -2.712951   -0.589670
     25          6           0      -17.639820   -3.796285    0.140638
     26          6           0      -17.590849   -5.087395   -0.627315
     27          6           0      -17.627909   -4.585445   -2.113578
     28          6           0      -17.804726   -3.048482   -1.899953
     29          6           0      -16.426378   -5.974218   -0.176692
     30          6           0      -18.763139   -5.159108   -2.952212
     31          6           0      -18.420350   -5.539648   -4.437101
     32          7           0      -17.754006   -0.064498   -1.774078
     33          6           0      -17.778417   -0.782200   -2.985962
     34          6           0      -17.839976    0.144569   -4.063396
     35          6           0      -17.535612    1.412529   -3.473110
     36          6           0      -17.544211    1.242918   -2.111775
     37          6           0      -18.197692   -0.185615   -5.484122
     38          6           0      -17.380041    2.878471   -3.632022
     39          8           0      -17.360448    3.556341   -4.638286
     40          6           0      -17.061975    3.495687   -2.187839
     41          6           0      -17.582785    4.891758   -2.083727
     42          8           0      -18.723686    5.237605   -2.175388
     43          8           0      -16.533542    5.821029   -1.955682
     44          6           0      -16.766743    7.164511   -2.526751
     45          1           0      -17.198189    1.060577    4.349668
     46          1           0      -17.750395   -4.803842    1.865152
     47          1           0      -17.874026   -2.632424   -3.939126
     48          1           0      -17.086356    4.421295    0.484342
     49          1           0      -17.936432    3.560633    3.230446
     50          1           0      -15.371737    4.256745    2.018851
     51          1           0      -15.218121    2.768637    2.868793
     52          1           0      -15.752496    4.330790    3.723431
     53          1           0      -19.611797    3.535598    1.813838
     54          1           0      -19.567942    3.957062    0.082289
     55          1           0      -20.049146    5.651293    2.307294
     56          1           0      -19.894677    6.128261    0.638346
     57          1           0      -18.085801   -0.167383    6.179924
     58          1           0      -16.974887   -1.410555    6.481266
     59          1           0      -18.745440   -1.784207    6.323093
     60          1           0      -18.505398   -4.408080    6.693366
     61          1           0      -16.894740   -3.662397    6.242094
     62          1           0      -17.075731   -5.439029    6.273759
     63          1           0      -18.541569   -5.543899   -0.352238
     64          1           0      -16.709259   -4.774644   -2.667542
     65          1           0      -15.594771   -5.422299    0.262471
     66          1           0      -16.050385   -6.433882   -1.089862
     67          1           0      -16.730870   -6.736973    0.540299
     68          1           0      -19.600763   -4.464005   -3.007258
     69          1           0      -19.173284   -5.952360   -2.327385
     70          1           0      -17.420882   -5.205044   -4.714433
     71          1           0      -19.149222   -4.988514   -5.030955
     72          1           0      -18.494813   -6.583567   -4.743484
     73          1           0      -17.573945   -1.043580   -5.735457
     74          1           0      -17.993209    0.610037   -6.200753
     75          1           0      -19.235049   -0.517428   -5.538014
     76          1           0      -15.989694    3.676154   -2.119119
     77          1           0      -16.763362    7.880236   -1.704529
     78          1           0      -17.697954    7.218986   -3.091721
     79          1           0      -15.920090    7.342134   -3.189822
     80         12           0       18.087753   -0.444017    0.071087
     81          6           0       15.722095    1.956008    0.534381
     82          6           0       20.599904    1.893850    0.316784
     83          6           0       20.316606   -2.907262   -0.581142
     84          6           0       15.478618   -2.716912   -0.648717
     85          7           0       18.134202    1.733617    0.170765
     86          6           0       17.072810    2.418709    0.673901
     87          6           0       17.430831    3.769452    1.194317
     88          6           0       19.009434    3.778813    0.849426
     89          6           0       19.294597    2.379304    0.412851
     90          6           0       19.387411    4.839834   -0.280795
     91          6           0       17.157809    3.804618    2.770091
     92          6           0       16.943008    5.175859    3.414426
     93          1           0       17.273329    6.525540    2.729772
     94          7           0       20.173513   -0.570039   -0.019037
     95          6           0       21.032223    0.535969    0.089824
     96          6           0       22.379597    0.041874   -0.074957
     97          6           0       22.314149   -1.347498   -0.304571
     98          6           0       20.889817   -1.647515   -0.254693
     99          6           0       23.599185    0.981851    0.069480
    100          6           0       23.535967   -2.350234   -0.648522
    101          8           0       23.398754   -3.579249   -0.694995
    102          6           0       24.963947   -1.900025   -0.909131
    103          7           0       17.884490   -2.579587   -0.474814
    104          6           0       18.985600   -3.330081   -0.717512
    105          6           0       18.619014   -4.669039   -1.355429
    106          6           0       17.010631   -4.740314   -1.064730
    107          6           0       16.731853   -3.302876   -0.598178
    108          6           0       19.100764   -4.885992   -2.862568
    109          6           0       16.541626   -5.690265    0.150669
    110          6           0       15.416757   -6.686754   -0.061063
    111          7           0       16.000772   -0.482335   -0.005614
    112          6           0       15.090698   -1.423769   -0.311037
    113          6           0       13.711346   -0.879749   -0.108442
    114          6           0       13.966576    0.455547    0.284379
    115          6           0       15.367435    0.645571    0.198134
    116          6           0       12.378093   -1.530288   -0.221539
    117          6           0       13.269322    1.627829    0.660459
    118          8           0       12.044129    1.835265    0.778129
    119          6           0       14.376549    2.663776    0.837598
    120          6           0       14.154110    3.747510   -0.092037
    121          8           0       14.024731    3.743522   -1.276253
    122          8           0       14.228275    4.919338    0.655070
    123          6           0       14.107059    6.288763    0.023122
    124          1           0       21.444268    2.523485    0.603623
    125          1           0       21.036107   -3.671083   -0.884524
    126          1           0       14.640239   -3.295777   -1.040235
    127          1           0       16.967270    4.674333    0.801876
    128          1           0       19.606181    4.013030    1.730959
    129          1           0       20.349274    5.338320   -0.162914
    130          1           0       18.554248    5.529660   -0.414379
    131          1           0       19.466238    4.277521   -1.211790
    132          1           0       17.960015    3.318531    3.325669
    133          1           0       16.258298    3.205500    2.913908
    134          1           0       17.479832    5.138585    4.363181
    135          1           0       15.899627    5.255199    3.717268
    136          1           0       23.347056    2.003710    0.352607
    137          1           0       24.125233    0.955290   -0.884235
    138          1           0       24.259676    0.534123    0.812398
    139          1           0       25.316584   -1.545186    0.058583
    140          1           0       25.012060   -0.964642   -1.467024
    141          1           0       25.504738   -2.657453   -1.476168
    142          1           0       19.080889   -5.455624   -0.757532
    143          1           0       16.466302   -5.047967   -1.957781
    144          1           0       18.256831   -5.085317   -3.523404
    145          1           0       19.821292   -5.701640   -2.911143
    146          1           0       19.550431   -3.974441   -3.256959
    147          1           0       16.323493   -5.117407    1.051856
    148          1           0       17.424880   -6.255842    0.445929
    149          1           0       14.659166   -6.459402    0.688107
    150          1           0       15.748153   -7.722926    0.001007
    151          1           0       14.940340   -6.502270   -1.024938
    152          1           0       12.405237   -2.600056   -0.428153
    153          1           0       11.793669   -1.081794   -1.025328
    154          1           0       11.844167   -1.380560    0.716653
    155          1           0       14.404099    3.068547    1.849700
    156          1           0       14.015667    6.200345   -1.059652
    157          1           0       15.018927    6.858202    0.207855
    158          1           0       13.218205    6.734668    0.469369
 ---------------------------------------------------------------------

 SCF Done:  E(RwB97XD) =  -4070.59684366     A.U. after   19 cycles

 Excitation energies and oscillator strengths:

 Excited State   1:      Singlet-A      1.6817 eV  737.25 nm  f=0.3952  <S**2>=0.000
     309 -> 316        0.19777
     312 -> 313        0.68064
     309 <- 316        0.11936
 This state for optimization and/or second-order correction.
 Total Energy, E(TD-HF/TD-DFT) =  -4070.53504179
 Copying the excited state density for this state as the 1-particle RhoCI density.

 Excited State   2:      Singlet-A      1.7663 eV  701.92 nm  f=0.3718  <S**2>=0.000
     310 -> 315       -0.19125
     311 -> 314        0.67833
     310 <- 315       -0.11016

 Excited State   3:      Singlet-A      2.1196 eV  584.95 nm  f=0.0955  <S**2>=0.000
     310 -> 314        0.63985
     311 -> 315        0.27487

 Excited State   4:      Singlet-A      2.1739 eV  570.33 nm  f=0.0990  <S**2>=0.000
     309 -> 313        0.63668
     312 -> 316       -0.29861

 Excited State   5:      Singlet-A      3.2678 eV  379.41 nm  f=0.0031  <S**2>=0.000
     304 -> 314       -0.16718
     307 -> 314        0.15620
     308 -> 314        0.64111
     308 -> 317        0.10649

 The electronic state is 1-A.
 Alpha  occ. eigenvalues --  -46.95737 -46.94828 -19.28937 -19.28425 -19.25385
 Alpha  occ. eigenvalues --  -19.24529 -19.24407 -19.24213 -19.23905 -19.23281
 Alpha  occ. eigenvalues --  -14.47050 -14.46481 -14.46284 -14.46282 -14.44399
 Alpha  occ. eigenvalues --  -14.44136 -14.43984 -14.42519 -10.42489 -10.42320
 Alpha  occ. eigenvalues --  -10.40822 -10.40223 -10.38718 -10.38537 -10.36298
 Alpha  occ. eigenvalues --  -10.35801 -10.35686 -10.35664 -10.34916 -10.34861
 Alpha  occ. eigenvalues --  -10.34677 -10.34668 -10.34610 -10.34539 -10.34214
 Alpha  occ. eigenvalues --  -10.34045 -10.34019 -10.33896 -10.33729 -10.33623
 Alpha  occ. eigenvalues --  -10.33394 -10.33065 -10.32996 -10.32802 -10.32389
 Alpha  occ. eigenvalues --  -10.32347 -10.32336 -10.32294 -10.32215 -10.32137
 Alpha  occ. eigenvalues --  -10.32027 -10.32020 -10.31944 -10.31941 -10.31909
 Alpha  occ. eigenvalues --  -10.31869 -10.31767 -10.31697 -10.31616 -10.31613
 Alpha  occ. eigenvalues --  -10.31602 -10.31571 -10.31436 -10.31408 -10.31350
 Alpha  occ. eigenvalues --  -10.31316 -10.30784 -10.30705 -10.30523 -10.30475
 Alpha  occ. eigenvalues --  -10.30124 -10.30101 -10.30085 -10.30053 -10.30028
 Alpha  occ. eigenvalues --  -10.29962 -10.29919 -10.29915 -10.29879 -10.29673
 Alpha  occ. eigenvalues --  -10.29656 -10.29498 -10.29367 -10.29172 -10.28840
 Alpha  occ. eigenvalues --  -10.28330  -3.21593  -3.20740  -1.95202  -1.94695
 Alpha  occ. eigenvalues --   -1.94573  -1.94342  -1.93862  -1.93701  -1.17790
 Alpha  occ. eigenvalues --   -1.17265  -1.12742  -1.11722  -1.11658  -1.10600
 Alpha  occ. eigenvalues --   -1.09421  -1.09126  -1.07626  -1.07065  -1.06476
 Alpha  occ. eigenvalues --   -1.06470  -1.05592  -1.04654  -1.03615  -1.03037
 Alpha  occ. eigenvalues --   -0.95518  -0.93689  -0.91117  -0.90810  -0.90546
 Alpha  occ. eigenvalues --   -0.90135  -0.89629  -0.89498  -0.89438  -0.89139
 Alpha  occ. eigenvalues --   -0.88995  -0.88798  -0.88164  -0.87273  -0.86280
 Alpha  occ. eigenvalues --   -0.85868  -0.85538  -0.85358  -0.84805  -0.84255
 Alpha  occ. eigenvalues --   -0.83558  -0.83524  -0.83133  -0.82532  -0.82273
 Alpha  occ. eigenvalues --   -0.81759  -0.80579  -0.80375  -0.79408  -0.79064
 Alpha  occ. eigenvalues --   -0.79042  -0.78241  -0.78130  -0.77249  -0.77109
 Alpha  occ. eigenvalues --   -0.77046  -0.74610  -0.74414  -0.73962  -0.73644
 Alpha  occ. eigenvalues --   -0.71707  -0.71282  -0.70570  -0.70563  -0.70165
 Alpha  occ. eigenvalues --   -0.69189  -0.68597  -0.67967  -0.67908  -0.67255
 Alpha  occ. eigenvalues --   -0.67169  -0.67066  -0.66518  -0.66508  -0.66252
 Alpha  occ. eigenvalues --   -0.65398  -0.63840  -0.62974  -0.62469  -0.62227
 Alpha  occ. eigenvalues --   -0.61893  -0.61180  -0.61045  -0.60805  -0.60532
 Alpha  occ. eigenvalues --   -0.60441  -0.59974  -0.59744  -0.59492  -0.58730
 Alpha  occ. eigenvalues --   -0.58424  -0.58022  -0.57516  -0.57358  -0.57239
 Alpha  occ. eigenvalues --   -0.56972  -0.56146  -0.56108  -0.55708  -0.55636
 Alpha  occ. eigenvalues --   -0.55093  -0.55015  -0.54962  -0.54902  -0.54712
 Alpha  occ. eigenvalues --   -0.54708  -0.54115  -0.54094  -0.54082  -0.53882
 Alpha  occ. eigenvalues --   -0.53629  -0.53598  -0.53558  -0.53353  -0.53233
 Alpha  occ. eigenvalues --   -0.53121  -0.52819  -0.52765  -0.52485  -0.52407
 Alpha  occ. eigenvalues --   -0.52025  -0.51896  -0.51731  -0.51610  -0.51371
 Alpha  occ. eigenvalues --   -0.51136  -0.51070  -0.50820  -0.50792  -0.50598
 Alpha  occ. eigenvalues --   -0.50247  -0.50202  -0.50096  -0.49898  -0.49887
 Alpha  occ. eigenvalues --   -0.49708  -0.49555  -0.49432  -0.49246  -0.49184
 Alpha  occ. eigenvalues --   -0.48888  -0.48876  -0.48510  -0.48505  -0.48398
 Alpha  occ. eigenvalues --   -0.48397  -0.48150  -0.48091  -0.48040  -0.47519
 Alpha  occ. eigenvalues --   -0.47453  -0.47301  -0.47137  -0.46910  -0.46716
 Alpha  occ. eigenvalues --   -0.46640  -0.46274  -0.46236  -0.46118  -0.45910
 Alpha  occ. eigenvalues --   -0.45844  -0.45832  -0.45656  -0.45601  -0.45280
 Alpha  occ. eigenvalues --   -0.45075  -0.44971  -0.44669  -0.44593  -0.44489
 Alpha  occ. eigenvalues --   -0.44324  -0.44168  -0.43893  -0.43682  -0.43569
 Alpha  occ. eigenvalues --   -0.43569  -0.43417  -0.43303  -0.43222  -0.43069
 Alpha  occ. eigenvalues --   -0.43017  -0.42928  -0.42857  -0.42756  -0.42111
 Alpha  occ. eigenvalues --   -0.41979  -0.41848  -0.41657  -0.41345  -0.40928
 Alpha  occ. eigenvalues --   -0.40648  -0.40327  -0.39750  -0.39671  -0.39554
 Alpha  occ. eigenvalues --   -0.39531  -0.38769  -0.38575  -0.38333  -0.38122
 Alpha  occ. eigenvalues --   -0.37631  -0.37303  -0.36468  -0.36230  -0.36172
 Alpha  occ. eigenvalues --   -0.35739  -0.35411  -0.35167  -0.33881  -0.33391
 Alpha  occ. eigenvalues --   -0.33367  -0.33139  -0.33023  -0.32467  -0.32366
 Alpha  occ. eigenvalues --   -0.32232  -0.31984  -0.30345  -0.25756  -0.25622
 Alpha  occ. eigenvalues --   -0.23111  -0.22941
 Alpha virt. eigenvalues --   -0.06867  -0.06773  -0.00052   0.00187   0.01930
 Alpha virt. eigenvalues --    0.02036   0.04437   0.04927   0.05820   0.06078
 Alpha virt. eigenvalues --    0.07033   0.07315   0.08007   0.08154   0.08365

 Mulliken charges:
               1
     1  Mg   0.949704
     2  C    0.045783
     3  C   -0.095062
     4  C   -0.065571
     5  C   -0.086129
     6  N   -0.314104
     7  C    0.001168
     8  C   -0.120646
     9  C   -0.103189
    10  C    0.089338
    11  C    0.035005
    12  C   -0.006369
    13  C   -0.094859
    14  H    0.041471
    15  N   -0.554437
    16  C    0.176073
    17  C   -0.151075
    18  C   -0.082920
    19  C    0.207984
    20  C    0.035332
    21  C    0.082127
    22  O   -0.237341
    23  C   -0.013268
    24  N   -0.304805
    25  C   -0.029749
    26  C   -0.047697
    27  C   -0.103709
    28  C    0.058541
    29  C    0.030146
    30  C   -0.003873
    31  C   -0.057128
    32  N   -0.438313
    33  C    0.134146
    34  C   -0.193250
    35  C   -0.035320
    36  C    0.077390
    37  C    0.080573
    38  C    0.135353
    39  O   -0.202626
    40  C   -0.093369
    41  C    0.221148
    42  O   -0.208286
    43  O   -0.410318
    44  C    0.136769
    45  H    0.001457
    46  H    0.012901
    47  H   -0.022028
    48  H    0.032044
    49  H    0.036149
    50  H    0.038478
    51  H    0.033007
    52  H    0.048360
    53  H    0.023387
    54  H    0.054501
    55  H    0.041756
    56  H    0.065382
    57  H    0.042975
    58  H    0.065218
    59  H    0.060665
    60  H    0.079958
    61  H    0.041674
    62  H    0.065169
    63  H    0.042199
    64  H    0.040230
    65  H    0.046730
    66  H    0.033127
    67  H    0.056262
    68  H    0.030781
    69  H    0.022336
    70  H    0.036019
    71  H    0.038497
    72  H    0.045650
    73  H    0.035948
    74  H    0.058419
    75  H    0.050881
    76  H    0.080330
    77  H    0.051942
    78  H    0.069195
    79  H    0.055760
    80  Mg   0.951179
    81  C   -0.080380
    82  C   -0.065013
    83  C   -0.054709
    84  C   -0.099707
    85  N   -0.357892
    86  C    0.029446
    87  C   -0.079413
    88  C   -0.109825
    89  C    0.089993
    90  C    0.022792
    91  C   -0.013496
    92  C   -0.098887
    93  H    0.035649
    94  N   -0.439062
    95  C    0.108546
    96  C   -0.179339
    97  C   -0.083546
    98  C    0.122534
    99  C    0.062512
   100  C    0.076082
   101  O   -0.249664
   102  C    0.010234
   103  N   -0.332163
   104  C    0.030838
   105  C   -0.062543
   106  C   -0.122917
   107  C    0.111074
   108  C    0.017296
   109  C   -0.023461
   110  C   -0.037691
   111  N   -0.390585
   112  C    0.092447
   113  C   -0.157251
   114  C   -0.058355
   115  C    0.195287
   116  C    0.082437
   117  C    0.129063
   118  O   -0.229538
   119  C   -0.055333
   120  C    0.260450
   121  O   -0.202670
   122  O   -0.416622
   123  C    0.130255
   124  H   -0.007796
   125  H    0.015258
   126  H    0.000058
   127  H    0.042250
   128  H    0.032246
   129  H    0.044449
   130  H    0.033018
   131  H    0.038551
   132  H    0.033218
   133  H    0.032414
   134  H    0.042976
   135  H    0.053444
   136  H    0.042689
   137  H    0.051412
   138  H    0.048424
   139  H    0.054910
   140  H    0.026397
   141  H    0.075616
   142  H    0.037481
   143  H    0.035323
   144  H    0.033706
   145  H    0.050453
   146  H    0.045495
   147  H    0.038369
   148  H    0.020832
   149  H    0.037069
   150  H    0.048323
   151  H    0.024446
   152  H    0.023613
   153  H    0.065397
   154  H    0.063695
   155  H    0.069606
   156  H    0.065992
   157  H    0.053387
   158  H    0.069226
 Sum of Mulliken charges =  -0.00000

 Dipole moment (field-independent basis, Debye):
    X=              4.1584    Y=             -1.6174    Z=              6.7433  Tot=              8.0858
 Quadrupole moment (field-independent basis, Debye-Ang):
   XX=           -419.8609   YY=           -481.0465   ZZ=           -491.3558
   XY=            104.3778   XZ=            -71.5091   YZ=             33.8070

 Normal termination of Gaussian 16 at Sun Sep 19 00:04:23 2021.
