 Gaussian 16, Revision A.03,
 Gaussian 16:  ES64L-G16RevA.03 25-Dec-2016

 --------------------------------
 #p wB97XD/Def2SVP td=(nstates=5)
 --------------------------------

 --------------------------------
 TDDFT excited states in gaussian
 --------------------------------
 Symbolic Z-matrix:
 Charge =  0 Multiplicity = 1

                         Standard orientation:
 ---------------------------------------------------------------------
 Center     Atomic      Atomic             Coordinates (Angstroms)
 Number     Number       Type             X           Y           Z
 ---------------------------------------------------------------------
      1         12           0      -24.799823   -0.619227   -0.354353
      2          6           0      -26.201316    2.115527    1.268696
      3          6           0      -24.106987    1.333592   -3.010664
      4          6           0      -24.173210   -3.388998   -2.191433
      5          6           0      -26.288474   -2.724419    2.075839
      6          7           0      -25.072082    1.465185   -0.686789
      7          6           0      -25.515463    2.487397    0.123779
      8          6           0      -25.450811    3.845219   -0.628305
      9          6           0      -25.304663    3.366950   -2.105828
     10          6           0      -24.681559    1.989467   -1.933690
     11          6           0      -26.654260    3.266077   -2.900189
     12          6           0      -24.372581    4.709134    0.051156
     13          6           0      -24.752955    6.129762    0.228599
     14          1           0      -23.987406    6.851137    1.243325
     15          7           0      -24.015382   -0.928323   -2.235660
     16          6           0      -23.742073    0.032981   -3.155273
     17          6           0      -22.915363   -0.544253   -4.185238
     18          6           0      -22.932019   -1.963983   -3.935795
     19          6           0      -23.811082   -2.154753   -2.778416
     20          6           0      -22.334488    0.235236   -5.310138
     21          6           0      -22.344255   -3.160958   -4.752075
     22          8           0      -22.443799   -4.333556   -4.385206
     23          6           0      -21.492465   -2.930925   -5.969082
     24          7           0      -25.505200   -2.739738   -0.215281
     25          6           0      -24.948120   -3.714669   -1.087154
     26          6           0      -25.217085   -5.118889   -0.657473
     27          6           0      -25.690220   -4.823331    0.802912
     28          6           0      -25.775509   -3.304519    0.928888
     29          6           0      -26.254075   -5.877991   -1.552829
     30          6           0      -24.722754   -5.396927    1.901795
     31          6           0      -23.227589   -5.020363    1.743497
     32          7           0      -25.907143   -0.395971    1.387853
     33          6           0      -26.400505   -1.339213    2.302514
     34          6           0      -27.054612   -0.608012    3.322178
     35          6           0      -26.966725    0.730250    2.959460
     36          6           0      -26.281817    0.793767    1.790961
     37          6           0      -27.658431   -1.193180    4.558962
     38          6           0      -27.386878    2.002662    3.319374
     39          8           0      -28.070243    2.363531    4.294891
     40          6           0      -26.919218    3.046413    2.260744
     41          6           0      -26.013189    4.014592    3.083731
     42          8           0      -24.903466    3.728438    3.567389
     43          8           0      -26.667807    5.237768    3.180155
     44          6           0      -26.127574    6.259898    4.131970
     45          1           0      -24.022473    2.042607   -3.836959
     46          1           0      -23.924929   -4.384338   -2.567643
     47          1           0      -26.582457   -3.303244    2.953964
     48          1           0      -26.365571    4.413260   -0.462433
     49          1           0      -24.577790    3.999381   -2.614660
     50          1           0      -27.546863    3.610963   -2.377474
     51          1           0      -26.903442    2.224630   -3.099601
     52          1           0      -26.582745    3.891895   -3.789525
     53          1           0      -23.537542    4.734383   -0.647570
     54          1           0      -24.118073    4.233994    0.998944
     55          1           0      -25.785396    6.114605    0.578180
     56          1           0      -24.744896    6.613863   -0.747770
     57          1           0      -22.307900    1.301200   -5.084857
     58          1           0      -22.814741   -0.091622   -6.233043
     59          1           0      -21.283991   -0.031846   -5.425655
     60          1           0      -21.601988   -3.846109   -6.551373
     61          1           0      -20.441879   -2.832972   -5.694667
     62          1           0      -21.852461   -2.094675   -6.569211
     63          1           0      -24.324468   -5.743788   -0.604533
     64          1           0      -26.684950   -5.248585    0.940074
     65          1           0      -26.854069   -5.146794   -2.095219
     66          1           0      -26.960360   -6.531064   -1.039988
     67          1           0      -25.835418   -6.539742   -2.311606
     68          1           0      -24.901450   -6.472152    1.920556
     69          1           0      -25.153093   -5.025068    2.831589
     70          1           0      -22.837747   -4.477719    2.604927
     71          1           0      -23.151927   -4.420619    0.836052
     72          1           0      -22.585522   -5.891930    1.619698
     73          1           0      -28.697409   -0.863748    4.563440
     74          1           0      -27.079651   -0.835984    5.410727
     75          1           0      -27.706565   -2.281820    4.587240
     76          1           0      -27.795616    3.593047    1.913594
     77          1           0      -26.164865    5.800706    5.119563
     78          1           0      -26.643394    7.218090    4.193651
     79          1           0      -25.128023    6.321848    3.701576
     80         12           0       24.665698   -0.587203    0.442680
     81          6           0       25.187811    2.056274   -1.841901
     82          6           0       24.372767    1.573654    2.916409
     83          6           0       25.082113   -3.203247    2.600397
     84          6           0       26.044952   -2.799869   -2.179717
     85          7           0       24.834130    1.583043    0.487934
     86          6           0       24.802990    2.437520   -0.555228
     87          6           0       24.461301    3.849778   -0.041078
     88          6           0       24.185848    3.692841    1.420031
     89          6           0       24.515576    2.190552    1.673137
     90          6           0       24.909402    4.787860    2.305855
     91          6           0       23.367463    4.675386   -0.797550
     92          6           0       22.368336    5.656190   -0.046698
     93          1           0       22.111016    7.043694   -0.652531
     94          7           0       24.468802   -0.790899    2.472653
     95          6           0       24.341932    0.265724    3.345873
     96          6           0       24.185104   -0.276543    4.665511
     97          6           0       24.426032   -1.705566    4.647346
     98          6           0       24.724486   -1.945088    3.218125
     99          6           0       23.984410    0.664925    5.783144
    100          6           0       24.333541   -2.762164    5.775833
    101          8           0       24.616852   -3.894071    5.558987
    102          6           0       23.656114   -2.432186    7.065934
    103          7           0       25.516914   -2.694070    0.211932
    104          6           0       25.411314   -3.528013    1.270800
    105          6           0       25.863092   -4.981812    0.920305
    106          6           0       26.137520   -4.886028   -0.611694
    107          6           0       25.913112   -3.383994   -0.915572
    108          6           0       27.056031   -5.495071    1.682077
    109          6           0       25.284511   -5.784582   -1.573966
    110          6           0       23.885400   -5.381874   -1.897065
    111          7           0       25.458034   -0.529475   -1.595927
    112          6           0       25.894004   -1.478067   -2.476031
    113          6           0       26.119189   -0.867210   -3.763357
    114          6           0       25.868334    0.520932   -3.602633
    115          6           0       25.513249    0.676589   -2.247308
    116          6           0       26.694584   -1.496281   -4.982932
    117          6           0       25.874687    1.808554   -4.236188
    118          8           0       26.099711    2.182252   -5.381607
    119          6           0       25.386515    2.858764   -3.140238
    120          6           0       26.293291    4.073488   -3.036708
    121          8           0       27.436826    4.027717   -2.662846
    122          8           0       25.579267    5.206805   -3.391998
    123          6           0       26.382020    6.429820   -3.357637
    124          1           0       24.064863    2.203839    3.753840
    125          1           0       25.143635   -3.998650    3.345694
    126          1           0       26.351298   -3.467779   -2.987376
    127          1           0       25.411928    4.331240   -0.270481
    128          1           0       23.126984    3.900781    1.576318
    129          1           0       25.363472    5.535942    1.656218
    130          1           0       25.564262    4.265899    3.003522
    131          1           0       24.187529    5.388614    2.859424
    132          1           0       22.738521    3.952049   -1.317088
    133          1           0       23.795378    5.276362   -1.600359
    134          1           0       22.794504    5.759853    0.951368
    135          1           0       21.405306    5.158851    0.069370
    136          1           0       24.524182    0.234798    6.626489
    137          1           0       22.922642    0.648225    6.026187
    138          1           0       24.263925    1.716102    5.710501
    139          1           0       24.486833   -2.085690    7.679317
    140          1           0       23.096877   -3.303963    7.406952
    141          1           0       22.979893   -1.577851    7.028198
    142          1           0       25.039379   -5.692024    0.995137
    143          1           0       27.153733   -5.006936   -0.985606
    144          1           0       27.310476   -4.838077    2.514787
    145          1           0       27.952921   -5.538751    1.063627
    146          1           0       26.766108   -6.479906    2.047494
    147          1           0       25.230074   -6.797824   -1.175727
    148          1           0       25.878162   -5.960144   -2.471390
    149          1           0       23.499826   -4.730224   -1.112745
    150          1           0       23.088322   -6.122097   -1.970111
    151          1           0       23.947020   -4.929457   -2.887333
    152          1           0       27.695393   -1.908395   -4.857176
    153          1           0       26.952662   -0.664563   -5.638954
    154          1           0       26.009004   -2.217019   -5.429455
    155          1           0       24.384780    3.159330   -3.447962
    156          1           0       25.804186    6.789017   -2.506622
    157          1           0       26.131681    6.918301   -4.299051
    158          1           0       27.442327    6.243725   -3.185351
 ---------------------------------------------------------------------

 SCF Done:  E(RwB97XD) =  -4070.60111743     A.U. after   19 cycles

 Excitation energies and oscillator strengths:

 Excited State   1:      Singlet-A      1.6038 eV  773.07 nm  f=0.3730  <S**2>=0.000
     309 -> 316        0.16815
     311 -> 313        0.68667
     309 <- 316        0.11353
 This state for optimization and/or second-order correction.
 Total Energy, E(TD-HF/TD-DFT) =  -4070.54217902
 Copying the excited state density for this state as the 1-particle RhoCI density.

 Excited State   2:      Singlet-A      1.6417 eV  755.21 nm  f=0.3880  <S**2>=0.000
     310 -> 315       -0.19306
     312 -> 314        0.68165
     310 <- 315       -0.12003

 Excited State   3:      Singlet-A      2.1320 eV  581.55 nm  f=0.1054  <S**2>=0.000
     310 -> 314        0.64028
     312 -> 315        0.28531

 Excited State   4:      Singlet-A      2.1619 eV  573.50 nm  f=0.1251  <S**2>=0.000
     309 -> 313        0.64152
     311 -> 316       -0.27556

 Excited State   5:      Singlet-A      3.2512 eV  381.35 nm  f=0.0002  <S**2>=0.000
     304 -> 313       -0.18454
     304 -> 318       -0.10975
     304 -> 320       -0.12694
     306 -> 313        0.55395
     307 -> 313       -0.31544

 The electronic state is 1-A.
 Alpha  occ. eigenvalues --  -46.96339 -46.94689 -19.30006 -19.29985 -19.25000
 Alpha  occ. eigenvalues --  -19.24958 -19.24604 -19.23755 -19.23682 -19.22771
 Alpha  occ. eigenvalues --  -14.46799 -14.46575 -14.46383 -14.46087 -14.44110
 Alpha  occ. eigenvalues --  -14.43933 -14.43389 -14.43131 -10.43958 -10.42967
 Alpha  occ. eigenvalues --  -10.39692 -10.39253 -10.38816 -10.37686 -10.35746
 Alpha  occ. eigenvalues --  -10.35681 -10.35146 -10.35030 -10.34996 -10.34970
 Alpha  occ. eigenvalues --  -10.34748 -10.34574 -10.34354 -10.34353 -10.34248
 Alpha  occ. eigenvalues --  -10.34231 -10.33613 -10.33485 -10.33386 -10.33178
 Alpha  occ. eigenvalues --  -10.33032 -10.32832 -10.32558 -10.32420 -10.32358
 Alpha  occ. eigenvalues --  -10.32355 -10.32322 -10.32225 -10.32085 -10.32071
 Alpha  occ. eigenvalues --  -10.31990 -10.31881 -10.31836 -10.31818 -10.31699
 Alpha  occ. eigenvalues --  -10.31673 -10.31620 -10.31605 -10.31404 -10.31319
 Alpha  occ. eigenvalues --  -10.31264 -10.31072 -10.30969 -10.30928 -10.30804
 Alpha  occ. eigenvalues --  -10.30762 -10.30756 -10.30545 -10.30449 -10.30437
 Alpha  occ. eigenvalues --  -10.30422 -10.30346 -10.30261 -10.30259 -10.30052
 Alpha  occ. eigenvalues --  -10.29980 -10.29799 -10.29703 -10.29687 -10.29653
 Alpha  occ. eigenvalues --  -10.29417 -10.29268 -10.28949 -10.28915 -10.28777
 Alpha  occ. eigenvalues --  -10.27834  -3.22132  -3.20717  -1.95685  -1.95254
 Alpha  occ. eigenvalues --   -1.95083  -1.94285  -1.93846  -1.93691  -1.18458
 Alpha  occ. eigenvalues --   -1.16615  -1.15130  -1.11677  -1.11444  -1.10745
 Alpha  occ. eigenvalues --   -1.10207  -1.08884  -1.06876  -1.06219  -1.05938
 Alpha  occ. eigenvalues --   -1.05538  -1.05137  -1.04517  -1.04250  -1.03875
 Alpha  occ. eigenvalues --   -0.94563  -0.93575  -0.91163  -0.91032  -0.90933
 Alpha  occ. eigenvalues --   -0.90740  -0.90470  -0.90191  -0.89722  -0.89307
 Alpha  occ. eigenvalues --   -0.89116  -0.89091  -0.88488  -0.88035  -0.86506
 Alpha  occ. eigenvalues --   -0.85881  -0.85596  -0.85459  -0.84454  -0.84071
 Alpha  occ. eigenvalues --   -0.83906  -0.83533  -0.82953  -0.82784  -0.82367
 Alpha  occ. eigenvalues --   -0.82363  -0.80266  -0.80166  -0.79062  -0.79014
 Alpha  occ. eigenvalues --   -0.79001  -0.78874  -0.77974  -0.77807  -0.77406
 Alpha  occ. eigenvalues --   -0.76600  -0.75257  -0.74320  -0.74016  -0.73433
 Alpha  occ. eigenvalues --   -0.71729  -0.71720  -0.71192  -0.70764  -0.70211
 Alpha  occ. eigenvalues --   -0.69534  -0.68935  -0.68502  -0.67343  -0.66930
 Alpha  occ. eigenvalues --   -0.66604  -0.66467  -0.66231  -0.66090  -0.66055
 Alpha  occ. eigenvalues --   -0.66006  -0.63689  -0.63611  -0.62046  -0.61888
 Alpha  occ. eigenvalues --   -0.61772  -0.61509  -0.61149  -0.60804  -0.60449
 Alpha  occ. eigenvalues --   -0.60319  -0.59979  -0.59575  -0.59389  -0.58977
 Alpha  occ. eigenvalues --   -0.58049  -0.57959  -0.57848  -0.57578  -0.57334
 Alpha  occ. eigenvalues --   -0.57281  -0.56993  -0.56985  -0.56739  -0.56530
 Alpha  occ. eigenvalues --   -0.55999  -0.55675  -0.55455  -0.55297  -0.54979
 Alpha  occ. eigenvalues --   -0.54909  -0.54782  -0.54712  -0.54394  -0.54294
 Alpha  occ. eigenvalues --   -0.53870  -0.53677  -0.53648  -0.53409  -0.53142
 Alpha  occ. eigenvalues --   -0.52878  -0.52762  -0.52520  -0.52433  -0.52289
 Alpha  occ. eigenvalues --   -0.52235  -0.51955  -0.51572  -0.51432  -0.51350
 Alpha  occ. eigenvalues --   -0.51109  -0.51108  -0.50937  -0.50832  -0.50700
 Alpha  occ. eigenvalues --   -0.50668  -0.50523  -0.50464  -0.50295  -0.50041
 Alpha  occ. eigenvalues --   -0.49917  -0.49651  -0.49648  -0.49336  -0.49178
 Alpha  occ. eigenvalues --   -0.49073  -0.49016  -0.48728  -0.48531  -0.48219
 Alpha  occ. eigenvalues --   -0.47969  -0.47904  -0.47756  -0.47658  -0.47464
 Alpha  occ. eigenvalues --   -0.47406  -0.47372  -0.46559  -0.46558  -0.46512
 Alpha  occ. eigenvalues --   -0.46419  -0.46250  -0.46090  -0.46008  -0.45697
 Alpha  occ. eigenvalues --   -0.45646  -0.45572  -0.45394  -0.45390  -0.45222
 Alpha  occ. eigenvalues --   -0.45131  -0.45015  -0.44981  -0.44908  -0.44612
 Alpha  occ. eigenvalues --   -0.44521  -0.44333  -0.44316  -0.43966  -0.43872
 Alpha  occ. eigenvalues --   -0.43771  -0.43767  -0.43523  -0.43420  -0.43069
 Alpha  occ. eigenvalues --   -0.42822  -0.42809  -0.42621  -0.42484  -0.42169
 Alpha  occ. eigenvalues --   -0.42024  -0.41878  -0.41103  -0.41069  -0.40846
 Alpha  occ. eigenvalues --   -0.40195  -0.40043  -0.39982  -0.39847  -0.39337
 Alpha  occ. eigenvalues --   -0.39301  -0.39001  -0.38902  -0.38554  -0.38098
 Alpha  occ. eigenvalues --   -0.37920  -0.37669  -0.36600  -0.36180  -0.36118
 Alpha  occ. eigenvalues --   -0.35564  -0.35483  -0.35374  -0.33756  -0.33551
 Alpha  occ. eigenvalues --   -0.33034  -0.32750  -0.32633  -0.32062  -0.32017
 Alpha  occ. eigenvalues --   -0.31929  -0.31551  -0.31509  -0.26172  -0.25740
 Alpha  occ. eigenvalues --   -0.23013  -0.22853
 Alpha virt. eigenvalues --   -0.07368  -0.07003   0.00290   0.00419   0.02467
 Alpha virt. eigenvalues --    0.02591   0.04245   0.04451   0.04634   0.05385
 Alpha virt. eigenvalues --    0.07006   0.07121   0.07413   0.07794   0.08498

 Mulliken charges:
               1
     1  Mg   0.955983
     2  C   -0.066711
     3  C   -0.119223
     4  C   -0.021017
     5  C   -0.102835
     6  N   -0.406833
     7  C    0.019895
     8  C   -0.101563
     9  C   -0.087874
    10  C    0.033912
    11  C    0.034870
    12  C    0.039896
    13  C   -0.123647
    14  H    0.052802
    15  N   -0.463829
    16  C    0.229785
    17  C   -0.175579
    18  C   -0.078303
    19  C    0.188216
    20  C    0.069147
    21  C    0.055761
    22  O   -0.248559
    23  C   -0.006150
    24  N   -0.316583
    25  C   -0.057261
    26  C   -0.058009
    27  C   -0.099825
    28  C    0.111867
    29  C    0.018217
    30  C   -0.021893
    31  C   -0.053902
    32  N   -0.435030
    33  C    0.117105
    34  C   -0.197886
    35  C    0.054010
    36  C    0.194101
    37  C    0.092956
    38  C    0.016675
    39  O   -0.242772
    40  C   -0.028747
    41  C    0.287631
    42  O   -0.268800
    43  O   -0.389784
    44  C    0.142339
    45  H   -0.000879
    46  H    0.018637
    47  H    0.002551
    48  H    0.020133
    49  H    0.019450
    50  H    0.035623
    51  H    0.053071
    52  H    0.043479
    53  H    0.021621
    54  H    0.065526
    55  H    0.039919
    56  H    0.040169
    57  H    0.041082
    58  H    0.067734
    59  H    0.043131
    60  H    0.054716
    61  H    0.075039
    62  H    0.027171
    63  H    0.045760
    64  H    0.030935
    65  H    0.039605
    66  H    0.032785
    67  H    0.042660
    68  H    0.031252
    69  H    0.022895
    70  H    0.046440
    71  H    0.045746
    72  H    0.042275
    73  H    0.058157
    74  H    0.067990
    75  H    0.019630
    76  H    0.066946
    77  H    0.068311
    78  H    0.069564
    79  H    0.058326
    80  Mg   0.948653
    81  C   -0.025660
    82  C   -0.065374
    83  C   -0.063973
    84  C   -0.102321
    85  N   -0.370947
    86  C   -0.015746
    87  C   -0.028424
    88  C   -0.134616
    89  C    0.098595
    90  C    0.020672
    91  C   -0.029987
    92  C   -0.123647
    93  H    0.053526
    94  N   -0.508454
    95  C    0.144505
    96  C   -0.142043
    97  C   -0.082515
    98  C    0.113036
    99  C    0.033039
   100  C    0.056554
   101  O   -0.199126
   102  C   -0.017991
   103  N   -0.306999
   104  C    0.065646
   105  C   -0.068854
   106  C   -0.047941
   107  C    0.007457
   108  C    0.036418
   109  C   -0.047599
   110  C   -0.031043
   111  N   -0.393414
   112  C    0.166115
   113  C   -0.184873
   114  C   -0.031418
   115  C    0.106054
   116  C    0.061936
   117  C    0.130806
   118  O   -0.210239
   119  C   -0.060605
   120  C    0.252761
   121  O   -0.228650
   122  O   -0.379440
   123  C    0.117903
   124  H   -0.017331
   125  H    0.026220
   126  H   -0.005173
   127  H    0.048820
   128  H    0.042240
   129  H    0.042682
   130  H    0.050118
   131  H    0.032121
   132  H    0.030180
   133  H    0.046369
   134  H    0.034879
   135  H    0.055829
   136  H    0.037167
   137  H    0.055379
   138  H    0.058286
   139  H    0.064564
   140  H    0.073681
   141  H    0.037370
   142  H    0.039938
   143  H    0.035225
   144  H    0.044176
   145  H    0.034856
   146  H    0.041328
   147  H    0.023724
   148  H    0.022422
   149  H    0.035746
   150  H    0.033339
   151  H    0.037185
   152  H    0.045458
   153  H    0.051356
   154  H    0.052629
   155  H    0.070886
   156  H    0.051490
   157  H    0.068776
   158  H    0.086287
 Sum of Mulliken charges =  -0.00000

 Dipole moment (field-independent basis, Debye):
    X=             -2.5266    Y=              1.0901    Z=              0.6847  Tot=              2.8357
 Quadrupole moment (field-independent basis, Debye-Ang):
   XX=           -754.3425   YY=           -461.2157   ZZ=           -515.7513
   XY=            -10.9699   XZ=            185.4946   YZ=              3.4135

 Normal termination of Gaussian 16 at Sun Sep 19 08:36:11 2021.
