 Gaussian 16, Revision A.03,
 Gaussian 16:  ES64L-G16RevA.03 25-Dec-2016

 --------------------------------
 #p wB97XD/Def2SVP td=(nstates=5)
 --------------------------------

 --------------------------------
 TDDFT excited states in gaussian
 --------------------------------
 Symbolic Z-matrix:
 Charge =  0 Multiplicity = 1

                         Standard orientation:
 ---------------------------------------------------------------------
 Center     Atomic      Atomic             Coordinates (Angstroms)
 Number     Number       Type             X           Y           Z
 ---------------------------------------------------------------------
      1         12           0      -13.393821   -0.397574    0.272436
      2          6           0      -12.983426    2.892046   -0.668845
      3          6           0      -12.044814    0.442730    3.302471
      4          6           0      -13.521245   -3.668663    1.101983
      5          6           0      -14.194936   -1.238729   -3.004728
      6          7           0      -12.479758    1.508568    1.104321
      7          6           0      -12.604118    2.696121    0.650723
      8          6           0      -12.101433    3.892687    1.611930
      9          6           0      -11.520760    3.003633    2.781551
     10          6           0      -11.956396    1.518181    2.369332
     11          6           0       -9.909407    3.024160    2.923703
     12          6           0      -13.227352    4.914642    2.076928
     13          6           0      -12.801665    6.403636    2.334426
     14          1           0      -11.329867    6.684889    2.370934
     15          7           0      -12.947017   -1.436316    1.940391
     16          6           0      -12.452252   -0.899249    3.193364
     17          6           0      -12.368777   -2.006577    4.140011
     18          6           0      -12.685450   -3.223071    3.485556
     19          6           0      -13.115124   -2.807010    2.131343
     20          6           0      -12.007836   -1.670058    5.542054
     21          6           0      -12.740711   -4.677200    4.009694
     22          8           0      -12.925455   -5.652401    3.344057
     23          6           0      -12.347804   -4.848609    5.491016
     24          7           0      -13.692618   -2.267730   -0.783322
     25          6           0      -13.700151   -3.454827   -0.264653
     26          6           0      -13.765155   -4.560122   -1.356593
     27          6           0      -14.094138   -3.780864   -2.652492
     28          6           0      -14.014608   -2.321670   -2.145355
     29          6           0      -12.443684   -5.355177   -1.420590
     30          6           0      -15.463965   -4.198662   -3.269899
     31          6           0      -15.486824   -5.593752   -3.915174
     32          7           0      -13.571006    0.598256   -1.525789
     33          6           0      -14.006231    0.124734   -2.750778
     34          6           0      -14.087386    1.264879   -3.625365
     35          6           0      -13.659324    2.418375   -2.902369
     36          6           0      -13.399175    1.896367   -1.605980
     37          6           0      -14.462698    1.216900   -4.990755
     38          6           0      -13.471004    3.834065   -2.888873
     39          8           0      -13.557520    4.649382   -3.854974
     40          6           0      -12.907819    4.160166   -1.451405
     41          6           0      -11.599508    4.754188   -1.625320
     42          8           0      -10.564223    4.114746   -1.809842
     43          8           0      -11.779158    6.112095   -1.698378
     44          6           0      -10.565310    6.834815   -2.133541
     45          1           0      -11.594111    0.675305    4.269070
     46          1           0      -13.560948   -4.703824    1.449370
     47          1           0      -14.520012   -1.545285   -4.001586
     48          1           0      -11.286729    4.345069    1.045929
     49          1           0      -11.921995    3.335986    3.738765
     50          1           0       -9.493571    3.370291    1.977034
     51          1           0       -9.547624    2.019334    3.141186
     52          1           0       -9.501497    3.653735    3.715165
     53          1           0      -13.570247    4.499927    3.024465
     54          1           0      -14.181187    4.856096    1.551517
     55          1           0      -13.209389    6.824658    3.253368
     56          1           0      -13.143149    7.017936    1.501233
     57          1           0      -10.924983   -1.615151    5.657529
     58          1           0      -12.528091   -2.285930    6.275768
     59          1           0      -12.412126   -0.677592    5.739784
     60          1           0      -13.102987   -4.514941    6.203362
     61          1           0      -11.434031   -4.257091    5.537978
     62          1           0      -12.051118   -5.853300    5.790660
     63          1           0      -14.616333   -5.158029   -1.031733
     64          1           0      -13.285536   -3.911421   -3.371633
     65          1           0      -11.559154   -4.833839   -1.053991
     66          1           0      -12.073057   -5.655163   -2.401330
     67          1           0      -12.616019   -6.245165   -0.815412
     68          1           0      -15.714533   -3.501551   -4.068295
     69          1           0      -16.244401   -4.135886   -2.510804
     70          1           0      -14.523705   -6.063599   -3.715755
     71          1           0      -15.433036   -5.480005   -4.997992
     72          1           0      -16.329854   -6.254648   -3.715081
     73          1           0      -15.332003    0.559498   -5.010240
     74          1           0      -13.733874    0.787181   -5.677772
     75          1           0      -14.605490    2.238066   -5.345711
     76          1           0      -13.598587    4.921735   -1.088575
     77          1           0      -10.389052    6.532273   -3.166157
     78          1           0       -9.737049    6.694806   -1.439723
     79          1           0      -10.805047    7.898231   -2.129526
     80         12           0       12.468508   -0.633835   -0.182682
     81          6           0       15.077507    1.542981   -0.173122
     82          6           0       10.162178    1.788361    0.664007
     83          6           0       10.039278   -3.043543   -0.058118
     84          6           0       14.841409   -3.327562   -0.634413
     85          7           0       12.659975    1.368696    0.397371
     86          6           0       13.815034    2.158706    0.078613
     87          6           0       13.497134    3.599843    0.121073
     88          6           0       12.047880    3.581377    0.785547
     89          6           0       11.546452    2.162860    0.630725
     90          6           0       12.055631    4.018624    2.335045
     91          6           0       13.689303    4.351622   -1.231878
     92          6           0       14.389390    5.668866   -1.135872
     93          1           0       14.011202    6.567751    0.106651
     94          7           0       10.369743   -0.615114    0.174260
     95          6           0        9.670258    0.504101    0.515499
     96          6           0        8.305428    0.128469    0.658246
     97          6           0        8.186660   -1.286498    0.366730
     98          6           0        9.582750   -1.743505    0.056993
     99          6           0        7.226964    1.118914    1.149111
    100          6           0        7.020777   -2.222371    0.294591
    101          8           0        7.028053   -3.448644    0.138825
    102          6           0        5.605468   -1.535445    0.380961
    103          7           0       12.440122   -2.938170   -0.222570
    104          6           0       11.325868   -3.625896   -0.253873
    105          6           0       11.550343   -5.080952   -0.660149
    106          6           0       13.093743   -5.151004   -0.840157
    107          6           0       13.506855   -3.713561   -0.530148
    108          6           0       11.003619   -6.146255    0.420175
    109          6           0       13.415402   -5.569539   -2.342350
    110          6           0       13.083724   -4.624193   -3.523377
    111          7           0       14.557929   -0.888582   -0.207670
    112          6           0       15.331454   -2.008148   -0.449425
    113          6           0       16.719422   -1.528112   -0.607216
    114          6           0       16.731205   -0.167732   -0.531262
    115          6           0       15.353337    0.174812   -0.278684
    116          6           0       17.909831   -2.421930   -0.668878
    117          6           0       17.537804    1.051530   -0.579256
    118          8           0       18.735694    1.216731   -0.738002
    119          6           0       16.463531    2.200238   -0.334791
    120          6           0       16.827612    2.874337    0.928022
    121          8           0       16.979160    2.364602    2.051932
    122          8           0       16.971471    4.199669    0.570736
    123          6           0       17.155796    5.117200    1.702729
    124          1           0        9.393754    2.533591    0.879214
    125          1           0        9.199517   -3.739808   -0.119611
    126          1           0       15.562975   -4.117876   -0.848771
    127          1           0       14.230202    4.016220    0.813137
    128          1           0       11.409107    4.251854    0.211431
    129          1           0       12.981066    4.502069    2.648017
    130          1           0       12.058752    3.091394    2.907878
    131          1           0       11.128405    4.580025    2.442095
    132          1           0       12.717483    4.538707   -1.688766
    133          1           0       14.297522    3.653400   -1.806731
    134          1           0       14.158468    6.335896   -1.965511
    135          1           0       15.476847    5.740741   -1.159593
    136          1           0        6.879008    1.844803    0.414280
    137          1           0        7.704395    1.565779    2.021004
    138          1           0        6.280661    0.633701    1.387270
    139          1           0        5.431360   -1.214039    1.407873
    140          1           0        4.883895   -2.192023   -0.104841
    141          1           0        5.500195   -0.668686   -0.271854
    142          1           0       11.069464   -5.248037   -1.623670
    143          1           0       13.577583   -5.875654   -0.185202
    144          1           0       10.099537   -6.573288   -0.015332
    145          1           0       10.741434   -5.638448    1.348905
    146          1           0       11.612626   -7.010325    0.682790
    147          1           0       13.025105   -6.541426   -2.643913
    148          1           0       14.504875   -5.607589   -2.314756
    149          1           0       14.071913   -4.384885   -3.916451
    150          1           0       12.513643   -3.748883   -3.214553
    151          1           0       12.483959   -5.088491   -4.306165
    152          1           0       18.589992   -1.865024   -1.312609
    153          1           0       17.679428   -3.408824   -1.070628
    154          1           0       18.414928   -2.352480    0.293643
    155          1           0       16.710116    2.849417   -1.174531
    156          1           0       17.361680    6.061353    1.197628
    157          1           0       18.068398    4.792447    2.202531
    158          1           0       16.367497    5.106186    2.455715
 ---------------------------------------------------------------------

 SCF Done:  E(RwB97XD) =  -4070.61992808     A.U. after   20 cycles

 Excitation energies and oscillator strengths:

 Excited State   1:      Singlet-A      1.6462 eV  753.16 nm  f=0.3837  <S**2>=0.000
     309 -> 315       -0.19180
     312 -> 313        0.68161
     309 <- 315       -0.11819
 This state for optimization and/or second-order correction.
 Total Energy, E(TD-HF/TD-DFT) =  -4070.55943195
 Copying the excited state density for this state as the 1-particle RhoCI density.

 Excited State   2:      Singlet-A      1.7224 eV  719.82 nm  f=0.3781  <S**2>=0.000
     310 -> 316       -0.20371
     311 -> 314        0.67758
     310 <- 316       -0.11865

 Excited State   3:      Singlet-A      2.1614 eV  573.62 nm  f=0.1062  <S**2>=0.000
     310 -> 314        0.64083
     311 -> 316        0.28354

 Excited State   4:      Singlet-A      2.2140 eV  560.01 nm  f=0.0447  <S**2>=0.000
     309 -> 313        0.60809
     312 -> 315        0.34953

 Excited State   5:      Singlet-A      3.3629 eV  368.68 nm  f=0.3652  <S**2>=0.000
     304 -> 313       -0.18373
     307 -> 313       -0.37756
     309 -> 313       -0.24766
     312 -> 315        0.50102

 The electronic state is 1-A.
 Alpha  occ. eigenvalues --  -46.95599 -46.94774 -19.30870 -19.30058 -19.25225
 Alpha  occ. eigenvalues --  -19.25206 -19.24588 -19.24572 -19.24283 -19.23323
 Alpha  occ. eigenvalues --  -14.46900 -14.46825 -14.46786 -14.46139 -14.44369
 Alpha  occ. eigenvalues --  -14.44111 -14.44068 -14.43534 -10.43374 -10.42426
 Alpha  occ. eigenvalues --  -10.40292 -10.39729 -10.39424 -10.38816 -10.36069
 Alpha  occ. eigenvalues --  -10.35969 -10.35816 -10.35581 -10.35046 -10.34893
 Alpha  occ. eigenvalues --  -10.34844 -10.34795 -10.34494 -10.34469 -10.34428
 Alpha  occ. eigenvalues --  -10.34343 -10.34143 -10.33967 -10.33655 -10.33563
 Alpha  occ. eigenvalues --  -10.33448 -10.33197 -10.33105 -10.33054 -10.33045
 Alpha  occ. eigenvalues --  -10.32913 -10.32782 -10.32451 -10.32396 -10.32274
 Alpha  occ. eigenvalues --  -10.32175 -10.32167 -10.32008 -10.31949 -10.31880
 Alpha  occ. eigenvalues --  -10.31806 -10.31774 -10.31665 -10.31653 -10.31610
 Alpha  occ. eigenvalues --  -10.31534 -10.31492 -10.31426 -10.31402 -10.31399
 Alpha  occ. eigenvalues --  -10.31187 -10.31179 -10.31179 -10.31067 -10.30698
 Alpha  occ. eigenvalues --  -10.30505 -10.30473 -10.30435 -10.30343 -10.30185
 Alpha  occ. eigenvalues --  -10.30079 -10.29743 -10.29722 -10.29544 -10.29423
 Alpha  occ. eigenvalues --  -10.29407 -10.29301 -10.29217 -10.28739 -10.28500
 Alpha  occ. eigenvalues --  -10.28492  -3.21457  -3.20818  -1.95046  -1.94568
 Alpha  occ. eigenvalues --   -1.94426  -1.94402  -1.93949  -1.93791  -1.18129
 Alpha  occ. eigenvalues --   -1.17721  -1.14786  -1.12423  -1.11860  -1.09655
 Alpha  occ. eigenvalues --   -1.09444  -1.08980  -1.07429  -1.07130  -1.06332
 Alpha  occ. eigenvalues --   -1.05780  -1.05503  -1.04953  -1.03732  -1.02972
 Alpha  occ. eigenvalues --   -0.94526  -0.94332  -0.91221  -0.91035  -0.90666
 Alpha  occ. eigenvalues --   -0.90300  -0.89901  -0.89757  -0.89421  -0.89202
 Alpha  occ. eigenvalues --   -0.88924  -0.88846  -0.88824  -0.88228  -0.86581
 Alpha  occ. eigenvalues --   -0.85886  -0.85372  -0.85279  -0.84293  -0.84253
 Alpha  occ. eigenvalues --   -0.83677  -0.83473  -0.83179  -0.83023  -0.82273
 Alpha  occ. eigenvalues --   -0.81925  -0.80561  -0.80046  -0.79324  -0.79283
 Alpha  occ. eigenvalues --   -0.79134  -0.78328  -0.77730  -0.77703  -0.76917
 Alpha  occ. eigenvalues --   -0.76798  -0.74445  -0.74221  -0.74170  -0.73475
 Alpha  occ. eigenvalues --   -0.71791  -0.71335  -0.71219  -0.70767  -0.70323
 Alpha  occ. eigenvalues --   -0.70195  -0.69446  -0.69034  -0.67787  -0.67333
 Alpha  occ. eigenvalues --   -0.67257  -0.66949  -0.66798  -0.66674  -0.66370
 Alpha  occ. eigenvalues --   -0.66109  -0.64511  -0.63578  -0.62323  -0.62072
 Alpha  occ. eigenvalues --   -0.61398  -0.61385  -0.61117  -0.60909  -0.60770
 Alpha  occ. eigenvalues --   -0.60299  -0.59935  -0.59887  -0.59660  -0.59484
 Alpha  occ. eigenvalues --   -0.58017  -0.57907  -0.57633  -0.57478  -0.57195
 Alpha  occ. eigenvalues --   -0.56946  -0.56905  -0.56484  -0.56369  -0.55913
 Alpha  occ. eigenvalues --   -0.55460  -0.55347  -0.55150  -0.55139  -0.55122
 Alpha  occ. eigenvalues --   -0.54951  -0.54713  -0.54307  -0.54198  -0.54081
 Alpha  occ. eigenvalues --   -0.54048  -0.53906  -0.53829  -0.53454  -0.53283
 Alpha  occ. eigenvalues --   -0.53098  -0.52986  -0.52884  -0.52839  -0.52689
 Alpha  occ. eigenvalues --   -0.52382  -0.51826  -0.51574  -0.51351  -0.51229
 Alpha  occ. eigenvalues --   -0.51099  -0.50889  -0.50872  -0.50516  -0.50492
 Alpha  occ. eigenvalues --   -0.50466  -0.50401  -0.50398  -0.50164  -0.50083
 Alpha  occ. eigenvalues --   -0.49792  -0.49742  -0.49618  -0.49311  -0.49175
 Alpha  occ. eigenvalues --   -0.49003  -0.48802  -0.48703  -0.48608  -0.48399
 Alpha  occ. eigenvalues --   -0.48183  -0.48126  -0.47987  -0.47775  -0.47567
 Alpha  occ. eigenvalues --   -0.47513  -0.47117  -0.47109  -0.46801  -0.46702
 Alpha  occ. eigenvalues --   -0.46490  -0.46335  -0.46241  -0.46121  -0.45856
 Alpha  occ. eigenvalues --   -0.45764  -0.45486  -0.45417  -0.45194  -0.45168
 Alpha  occ. eigenvalues --   -0.44940  -0.44918  -0.44876  -0.44732  -0.44703
 Alpha  occ. eigenvalues --   -0.44583  -0.44296  -0.44256  -0.44065  -0.44012
 Alpha  occ. eigenvalues --   -0.43872  -0.43696  -0.43673  -0.43607  -0.43443
 Alpha  occ. eigenvalues --   -0.43423  -0.43119  -0.42691  -0.42553  -0.42405
 Alpha  occ. eigenvalues --   -0.42152  -0.41740  -0.41687  -0.41403  -0.41295
 Alpha  occ. eigenvalues --   -0.40167  -0.39922  -0.39847  -0.39565  -0.39525
 Alpha  occ. eigenvalues --   -0.39100  -0.39083  -0.38716  -0.38605  -0.38354
 Alpha  occ. eigenvalues --   -0.38271  -0.38264  -0.36629  -0.36322  -0.36201
 Alpha  occ. eigenvalues --   -0.35911  -0.35716  -0.35654  -0.33843  -0.33423
 Alpha  occ. eigenvalues --   -0.33372  -0.33126  -0.32960  -0.32524  -0.32473
 Alpha  occ. eigenvalues --   -0.32305  -0.32087  -0.31337  -0.26350  -0.25626
 Alpha  occ. eigenvalues --   -0.23085  -0.22762
 Alpha virt. eigenvalues --   -0.06831  -0.06795  -0.00464   0.00192   0.01806
 Alpha virt. eigenvalues --    0.01997   0.04173   0.04227   0.05060   0.05676
 Alpha virt. eigenvalues --    0.06935   0.07445   0.07611   0.07804   0.08254

 Mulliken charges:
               1
     1  Mg   0.972868
     2  C    0.036587
     3  C   -0.076531
     4  C   -0.083355
     5  C   -0.099847
     6  N   -0.274867
     7  C   -0.097168
     8  C   -0.014295
     9  C   -0.137543
    10  C    0.065900
    11  C    0.000641
    12  C    0.023548
    13  C   -0.131589
    14  H    0.034975
    15  N   -0.532104
    16  C    0.160586
    17  C   -0.146721
    18  C   -0.099901
    19  C    0.147708
    20  C    0.050228
    21  C    0.084689
    22  O   -0.192463
    23  C   -0.045159
    24  N   -0.332390
    25  C    0.040086
    26  C   -0.054397
    27  C   -0.067616
    28  C    0.054791
    29  C    0.016526
    30  C   -0.022538
    31  C   -0.039125
    32  N   -0.427709
    33  C    0.163620
    34  C   -0.180260
    35  C    0.016063
    36  C    0.116699
    37  C    0.057383
    38  C    0.086153
    39  O   -0.253935
    40  C   -0.075514
    41  C    0.267877
    42  O   -0.262216
    43  O   -0.366825
    44  C    0.145000
    45  H   -0.003084
    46  H    0.012829
    47  H   -0.006240
    48  H    0.049036
    49  H    0.040282
    50  H    0.048003
    51  H    0.038269
    52  H    0.039719
    53  H    0.016360
    54  H    0.039619
    55  H    0.057688
    56  H    0.064729
    57  H    0.067836
    58  H    0.043917
    59  H    0.042659
    60  H    0.070908
    61  H    0.053215
    62  H    0.049798
    63  H    0.038285
    64  H    0.035333
    65  H    0.043592
    66  H    0.034089
    67  H    0.050641
    68  H    0.028756
    69  H    0.032113
    70  H    0.024490
    71  H    0.026133
    72  H    0.050628
    73  H    0.038337
    74  H    0.049998
    75  H    0.057897
    76  H    0.063355
    77  H    0.068066
    78  H    0.055884
    79  H    0.049006
    80  Mg   0.932733
    81  C   -0.005098
    82  C   -0.105984
    83  C   -0.037062
    84  C   -0.077740
    85  N   -0.442519
    86  C   -0.001156
    87  C   -0.039720
    88  C   -0.136010
    89  C    0.130796
    90  C    0.033349
    91  C    0.069911
    92  C   -0.138345
    93  H    0.000398
    94  N   -0.460779
    95  C    0.169083
    96  C   -0.150484
    97  C   -0.078071
    98  C    0.134158
    99  C    0.056642
   100  C    0.061870
   101  O   -0.237531
   102  C   -0.054891
   103  N   -0.260533
   104  C    0.017957
   105  C   -0.075256
   106  C   -0.047670
   107  C    0.027170
   108  C   -0.001703
   109  C   -0.063177
   110  C   -0.056326
   111  N   -0.406613
   112  C    0.141200
   113  C   -0.240989
   114  C   -0.006347
   115  C    0.120030
   116  C    0.082676
   117  C    0.139201
   118  O   -0.194751
   119  C   -0.109495
   120  C    0.275738
   121  O   -0.259138
   122  O   -0.369973
   123  C    0.139915
   124  H    0.001491
   125  H    0.024261
   126  H    0.003052
   127  H    0.030671
   128  H    0.027235
   129  H    0.043567
   130  H    0.045607
   131  H    0.050257
   132  H    0.039663
   133  H    0.041792
   134  H    0.043947
   135  H    0.061548
   136  H    0.055523
   137  H    0.062063
   138  H    0.016824
   139  H    0.079136
   140  H    0.051985
   141  H    0.042212
   142  H    0.050224
   143  H    0.039024
   144  H    0.042738
   145  H    0.048572
   146  H    0.040686
   147  H    0.041666
   148  H    0.020542
   149  H    0.044561
   150  H    0.039823
   151  H    0.038751
   152  H    0.047131
   153  H    0.040301
   154  H    0.066193
   155  H    0.068457
   156  H    0.059494
   157  H    0.056195
   158  H    0.059337
 Sum of Mulliken charges =  -0.00000

 Dipole moment (field-independent basis, Debye):
    X=             -4.0806    Y=              1.4576    Z=              2.9750  Tot=              5.2561
 Quadrupole moment (field-independent basis, Debye-Ang):
   XX=           -611.2412   YY=           -481.8969   ZZ=           -491.5918
   XY=             27.7699   XZ=            -82.8677   YZ=             37.8679

 Normal termination of Gaussian 16 at Mon Sep 20 08:20:27 2021.
