 Gaussian 16, Revision A.03,
 Gaussian 16:  ES64L-G16RevA.03 25-Dec-2016

 --------------------------------
 #p wB97XD/Def2SVP td=(nstates=5)
 --------------------------------

 --------------------------------
 TDDFT excited states in gaussian
 --------------------------------
 Symbolic Z-matrix:
 Charge =  0 Multiplicity = 1

                         Standard orientation:
 ---------------------------------------------------------------------
 Center     Atomic      Atomic             Coordinates (Angstroms)
 Number     Number       Type             X           Y           Z
 ---------------------------------------------------------------------
      1         12           0      -11.177023    0.181749   -0.770404
      2          6           0       -8.193611   -1.698722   -0.280286
      3          6           0      -13.008047   -2.700663   -0.502451
      4          6           0      -14.038062    2.111371   -0.188962
      5          6           0       -9.292048    3.129585   -0.445440
      6          7           0      -10.554634   -1.982666   -0.154110
      7          6           0       -9.335103   -2.537277   -0.248437
      8          6           0       -9.478528   -4.033146   -0.461435
      9          6           0      -11.042202   -4.390685   -0.466190
     10          6           0      -11.561926   -2.865651   -0.518423
     11          6           0      -11.363074   -5.203093   -1.740871
     12          6           0       -8.718024   -4.807127    0.603306
     13          6           0       -8.742863   -4.229350    2.038348
     14          1           0       -9.611381   -4.982918    3.082423
     15          7           0      -13.297171   -0.234530   -0.477935
     16          6           0      -13.786168   -1.519751   -0.389743
     17          6           0      -15.209765   -1.392610   -0.376284
     18          6           0      -15.584317   -0.007851   -0.187102
     19          6           0      -14.301451    0.727385   -0.322969
     20          6           0      -16.133147   -2.586076   -0.294365
     21          6           0      -16.951129    0.549583    0.213507
     22          8           0      -17.873128   -0.208418    0.445590
     23          6           0      -17.222758    1.948874    0.353459
     24          7           0      -11.608976    2.298623   -0.271182
     25          6           0      -12.827708    2.817301   -0.241732
     26          6           0      -12.839486    4.315403    0.015315
     27          6           0      -11.292482    4.548106    0.295023
     28          6           0      -10.666766    3.301390   -0.217684
     29          6           0      -13.398985    5.182027   -1.216022
     30          6           0      -11.046510    4.875869    1.839459
     31          6           0      -10.593873    6.243452    2.266486
     32          7           0       -9.224452    0.650417   -0.685384
     33          6           0       -8.590170    1.909455   -0.683902
     34          6           0       -7.126198    1.754333   -0.772014
     35          6           0       -6.984820    0.373052   -0.639981
     36          6           0       -8.249260   -0.289795   -0.462181
     37          6           0       -6.022446    2.829842   -1.060063
     38          6           0       -5.957806   -0.671250   -0.568898
     39          8           0       -4.718267   -0.650234   -0.646398
     40          6           0       -6.675844   -2.044309   -0.353631
     41          6           0       -6.121318   -2.410629    0.979688
     42          8           0       -6.225549   -1.750977    1.981880
     43          8           0       -5.381416   -3.511135    0.878944
     44          6           0       -4.788434   -4.118282    2.121392
     45          1           0      -13.569020   -3.612191   -0.718284
     46          1           0      -14.845125    2.837989   -0.076066
     47          1           0       -8.813043    4.088890   -0.236146
     48          1           0       -8.976736   -4.102048   -1.426636
     49          1           0      -11.353557   -4.918849    0.435425
     50          1           0      -11.763116   -6.169480   -1.434666
     51          1           0      -10.498642   -5.420830   -2.368657
     52          1           0      -12.140427   -4.643670   -2.260630
     53          1           0       -7.670121   -4.889231    0.314630
     54          1           0       -9.133141   -5.808936    0.717347
     55          1           0       -9.189947   -3.245711    2.181453
     56          1           0       -7.696901   -4.224934    2.345229
     57          1           0      -15.580132   -3.521884   -0.209567
     58          1           0      -16.817072   -2.531207   -1.142017
     59          1           0      -16.794782   -2.423910    0.555820
     60          1           0      -16.673447    2.455215    1.147460
     61          1           0      -18.282321    2.089809    0.566063
     62          1           0      -16.901913    2.351168   -0.608046
     63          1           0      -13.341571    4.603800    0.938461
     64          1           0      -11.130258    5.499577   -0.211743
     65          1           0      -13.739971    4.512521   -2.006240
     66          1           0      -12.561266    5.758163   -1.609412
     67          1           0      -14.171892    5.913394   -0.974783
     68          1           0      -10.220351    4.288712    2.240635
     69          1           0      -11.935209    4.659693    2.430816
     70          1           0       -9.528798    6.306417    2.489678
     71          1           0      -11.179506    6.347289    3.180509
     72          1           0      -10.983056    7.064432    1.664071
     73          1           0       -5.881319    3.409696   -0.148357
     74          1           0       -6.357544    3.408221   -1.921199
     75          1           0       -5.080218    2.313262   -1.242064
     76          1           0       -6.379970   -2.671450   -1.195417
     77          1           0       -3.837779   -3.664070    2.401687
     78          1           0       -4.619362   -5.188379    1.994650
     79          1           0       -5.547008   -3.969111    2.889755
     80         12           0       10.530145    0.730560   -0.254158
     81          6           0       10.930108   -2.650130    0.030147
     82          6           0        7.080613    0.227266    0.460022
     83          6           0       10.164805    4.082833   -0.132890
     84          6           0       13.982830    1.128808   -0.014376
     85          7           0        9.197636   -1.072190    0.585688
     86          6           0        9.576468   -2.361565    0.360484
     87          6           0        8.459540   -3.294439    0.738858
     88          6           0        7.194556   -2.346278    0.913075
     89          6           0        7.805233   -0.937470    0.629306
     90          6           0        5.911121   -2.846491    0.358005
     91          6           0        8.672642   -4.355983    1.919152
     92          6           0        9.583817   -3.983912    3.051093
     93          1           0        9.061750   -4.211550    4.462801
     94          7           0        8.822909    1.950455   -0.125096
     95          6           0        7.538635    1.581989    0.131083
     96          6           0        6.656295    2.709428    0.194194
     97          6           0        7.545564    3.867567   -0.101138
     98          6           0        8.920863    3.324088   -0.138876
     99          6           0        5.222745    2.729284    0.436100
    100          6           0        7.171403    5.326555   -0.319567
    101          8           0        6.071779    5.701044   -0.113935
    102          6           0        8.106016    6.442279   -0.697032
    103          7           0       11.854537    2.331179    0.032029
    104          6           0       11.455715    3.600213   -0.143596
    105          6           0       12.670597    4.627095    0.150618
    106          6           0       13.894648    3.647925   -0.199212
    107          6           0       13.212102    2.316252    0.004159
    108          6           0       12.666745    5.918434   -0.672253
    109          6           0       15.157385    3.951955    0.627044
    110          6           0       16.528787    4.065340   -0.049146
    111          7           0       12.146219   -0.493461    0.075062
    112          6           0       13.510209   -0.231910    0.112458
    113          6           0       14.267267   -1.422783    0.128886
    114          6           0       13.328076   -2.437297    0.043783
    115          6           0       12.023521   -1.828645    0.012263
    116          6           0       15.758021   -1.563914    0.143716
    117          6           0       13.055191   -3.809099   -0.072720
    118          8           0       13.869600   -4.729770   -0.092259
    119          6           0       11.525016   -4.037022    0.086884
    120          6           0       11.182933   -4.923422   -1.101638
    121          8           0       10.562361   -6.004203   -1.014607
    122          8           0       11.548856   -4.245456   -2.240519
    123          6           0       11.142057   -4.699798   -3.592764
    124          1           0        6.066075    0.018188    0.805463
    125          1           0       10.052337    5.141637    0.108976
    126          1           0       15.066329    1.262065   -0.011337
    127          1           0        8.298531   -3.989078   -0.086366
    128          1           0        7.019142   -2.279819    1.986425
    129          1           0        5.386531   -2.111466   -0.252325
    130          1           0        5.277754   -3.295568    1.123055
    131          1           0        6.115326   -3.650481   -0.349165
    132          1           0        9.091546   -5.309257    1.596623
    133          1           0        7.729664   -4.503196    2.446597
    134          1           0       10.077017   -3.018571    2.942180
    135          1           0       10.390142   -4.718061    3.058500
    136          1           0        4.790430    1.807085    0.049087
    137          1           0        4.706876    3.576811   -0.013630
    138          1           0        5.089848    2.770449    1.517787
    139          1           0        8.770222    5.813162   -1.290086
    140          1           0        8.629739    6.865915    0.159339
    141          1           0        7.687602    7.271282   -1.268044
    142          1           0       12.663431    4.788571    1.228995
    143          1           0       14.241500    3.593212   -1.230809
    144          1           0       13.453092    5.817610   -1.420811
    145          1           0       12.668730    6.787235   -0.014655
    146          1           0       11.746117    6.064125   -1.236552
    147          1           0       15.227461    3.169751    1.383390
    148          1           0       14.957491    4.842282    1.223438
    149          1           0       17.152069    4.930899    0.175929
    150          1           0       16.484953    3.913816   -1.128468
    151          1           0       16.998654    3.127628    0.245815
    152          1           0       16.140188   -2.424816   -0.405355
    153          1           0       16.085966   -1.639000    1.180755
    154          1           0       16.275052   -0.725063   -0.324066
    155          1           0       11.458503   -4.545567    1.047912
    156          1           0       10.883801   -3.871898   -4.252827
    157          1           0       10.276207   -5.353028   -3.483418
    158          1           0       11.818826   -5.291542   -4.207873
 ---------------------------------------------------------------------

 SCF Done:  E(RwB97XD) =  -4070.52041311     A.U. after   20 cycles

 Excitation energies and oscillator strengths:

 Excited State   1:      Singlet-A      1.5751 eV  787.15 nm  f=0.4506  <S**2>=0.000
     309 -> 316       -0.17347
     311 -> 313        0.68132
     309 <- 316       -0.11769
 This state for optimization and/or second-order correction.
 Total Energy, E(TD-HF/TD-DFT) =  -4070.46252931
 Copying the excited state density for this state as the 1-particle RhoCI density.

 Excited State   2:      Singlet-A      1.6290 eV  761.11 nm  f=0.3067  <S**2>=0.000
     310 -> 315        0.20547
     312 -> 314        0.67328
     310 <- 315        0.12431

 Excited State   3:      Singlet-A      2.0920 eV  592.66 nm  f=0.1395  <S**2>=0.000
     309 -> 313        0.64967
     311 -> 316        0.25896

 Excited State   4:      Singlet-A      2.1416 eV  578.93 nm  f=0.0721  <S**2>=0.000
     310 -> 314        0.61679
     312 -> 315       -0.33156

 Excited State   5:      Singlet-A      3.0036 eV  412.79 nm  f=0.0072  <S**2>=0.000
     306 -> 313       -0.21767
     308 -> 313        0.63624
     308 -> 318       -0.12406

 The electronic state is 1-A.
 Alpha  occ. eigenvalues --  -46.96523 -46.96216 -19.31409 -19.30295 -19.25258
 Alpha  occ. eigenvalues --  -19.23892 -19.23786 -19.23528 -19.23065 -19.22092
 Alpha  occ. eigenvalues --  -14.47090 -14.46992 -14.46562 -14.46539 -14.44724
 Alpha  occ. eigenvalues --  -14.44523 -14.44202 -14.44131 -10.44327 -10.42562
 Alpha  occ. eigenvalues --  -10.38985 -10.38273 -10.38242 -10.37377 -10.36506
 Alpha  occ. eigenvalues --  -10.36237 -10.36092 -10.36049 -10.35572 -10.35379
 Alpha  occ. eigenvalues --  -10.34988 -10.34985 -10.34920 -10.34848 -10.34765
 Alpha  occ. eigenvalues --  -10.34703 -10.34691 -10.34617 -10.34065 -10.33945
 Alpha  occ. eigenvalues --  -10.33888 -10.33354 -10.32982 -10.32952 -10.32920
 Alpha  occ. eigenvalues --  -10.32889 -10.32792 -10.32499 -10.32427 -10.32412
 Alpha  occ. eigenvalues --  -10.32371 -10.32294 -10.32278 -10.32199 -10.32188
 Alpha  occ. eigenvalues --  -10.32173 -10.31887 -10.31885 -10.31843 -10.31784
 Alpha  occ. eigenvalues --  -10.31691 -10.31506 -10.31462 -10.31441 -10.31197
 Alpha  occ. eigenvalues --  -10.31121 -10.30966 -10.30814 -10.30693 -10.30661
 Alpha  occ. eigenvalues --  -10.30651 -10.30638 -10.30608 -10.30534 -10.30301
 Alpha  occ. eigenvalues --  -10.30148 -10.30064 -10.30015 -10.29799 -10.29775
 Alpha  occ. eigenvalues --  -10.29533 -10.29481 -10.29272 -10.28967 -10.28927
 Alpha  occ. eigenvalues --  -10.28785  -3.22318  -3.22151  -1.95862  -1.95692
 Alpha  occ. eigenvalues --   -1.95465  -1.95307  -1.95250  -1.95089  -1.19232
 Alpha  occ. eigenvalues --   -1.17821  -1.13487  -1.12405  -1.11577  -1.11025
 Alpha  occ. eigenvalues --   -1.09896  -1.09421  -1.07127  -1.06571  -1.06346
 Alpha  occ. eigenvalues --   -1.05653  -1.04845  -1.04405  -1.04075  -1.03636
 Alpha  occ. eigenvalues --   -0.95661  -0.93903  -0.91650  -0.90804  -0.90662
 Alpha  occ. eigenvalues --   -0.90533  -0.90228  -0.90136  -0.89831  -0.89096
 Alpha  occ. eigenvalues --   -0.89001  -0.88042  -0.87684  -0.87311  -0.86579
 Alpha  occ. eigenvalues --   -0.86371  -0.85888  -0.85844  -0.84926  -0.84761
 Alpha  occ. eigenvalues --   -0.84511  -0.84019  -0.83040  -0.82862  -0.82471
 Alpha  occ. eigenvalues --   -0.82187  -0.80395  -0.79816  -0.79673  -0.79267
 Alpha  occ. eigenvalues --   -0.78816  -0.78576  -0.78315  -0.78194  -0.77339
 Alpha  occ. eigenvalues --   -0.76890  -0.75500  -0.74823  -0.73696  -0.73659
 Alpha  occ. eigenvalues --   -0.71909  -0.71297  -0.70834  -0.70413  -0.70268
 Alpha  occ. eigenvalues --   -0.70076  -0.68667  -0.68482  -0.68135  -0.67461
 Alpha  occ. eigenvalues --   -0.67431  -0.67139  -0.66756  -0.66608  -0.66297
 Alpha  occ. eigenvalues --   -0.66009  -0.65523  -0.64410  -0.62223  -0.62204
 Alpha  occ. eigenvalues --   -0.61373  -0.61233  -0.60982  -0.60772  -0.60627
 Alpha  occ. eigenvalues --   -0.59974  -0.59793  -0.59503  -0.59233  -0.59123
 Alpha  occ. eigenvalues --   -0.58413  -0.58207  -0.57798  -0.57725  -0.57177
 Alpha  occ. eigenvalues --   -0.56973  -0.56955  -0.56865  -0.56458  -0.56327
 Alpha  occ. eigenvalues --   -0.55887  -0.55790  -0.55353  -0.55204  -0.55027
 Alpha  occ. eigenvalues --   -0.54991  -0.54559  -0.54438  -0.54348  -0.53972
 Alpha  occ. eigenvalues --   -0.53946  -0.53667  -0.53663  -0.53650  -0.53430
 Alpha  occ. eigenvalues --   -0.53244  -0.52965  -0.52584  -0.52570  -0.52467
 Alpha  occ. eigenvalues --   -0.52038  -0.51819  -0.51717  -0.51599  -0.51536
 Alpha  occ. eigenvalues --   -0.51366  -0.51365  -0.51148  -0.51045  -0.50903
 Alpha  occ. eigenvalues --   -0.50853  -0.50456  -0.50166  -0.50058  -0.49735
 Alpha  occ. eigenvalues --   -0.49683  -0.49385  -0.49206  -0.49205  -0.49058
 Alpha  occ. eigenvalues --   -0.48954  -0.48882  -0.48807  -0.48713  -0.48513
 Alpha  occ. eigenvalues --   -0.48291  -0.48170  -0.47979  -0.47720  -0.47523
 Alpha  occ. eigenvalues --   -0.47503  -0.47386  -0.47212  -0.47178  -0.47064
 Alpha  occ. eigenvalues --   -0.47014  -0.46874  -0.46780  -0.46738  -0.46238
 Alpha  occ. eigenvalues --   -0.46042  -0.45892  -0.45869  -0.45576  -0.45474
 Alpha  occ. eigenvalues --   -0.45207  -0.45111  -0.44900  -0.44838  -0.44583
 Alpha  occ. eigenvalues --   -0.44482  -0.44316  -0.44290  -0.43970  -0.43948
 Alpha  occ. eigenvalues --   -0.43854  -0.43563  -0.43429  -0.43344  -0.43329
 Alpha  occ. eigenvalues --   -0.43244  -0.43125  -0.42752  -0.42380  -0.42081
 Alpha  occ. eigenvalues --   -0.41961  -0.41938  -0.41695  -0.40862  -0.40543
 Alpha  occ. eigenvalues --   -0.40513  -0.39886  -0.39859  -0.39366  -0.39357
 Alpha  occ. eigenvalues --   -0.39118  -0.38903  -0.38828  -0.38315  -0.38076
 Alpha  occ. eigenvalues --   -0.37668  -0.37458  -0.36726  -0.36182  -0.36064
 Alpha  occ. eigenvalues --   -0.35773  -0.35589  -0.35233  -0.33715  -0.33568
 Alpha  occ. eigenvalues --   -0.32983  -0.32738  -0.32582  -0.32501  -0.32358
 Alpha  occ. eigenvalues --   -0.31437  -0.31095  -0.30305  -0.26299  -0.26175
 Alpha  occ. eigenvalues --   -0.23432  -0.23094
 Alpha virt. eigenvalues --   -0.07952  -0.07095  -0.00637   0.00063   0.02370
 Alpha virt. eigenvalues --    0.02422   0.04161   0.04163   0.04601   0.04919
 Alpha virt. eigenvalues --    0.06724   0.07204   0.07447   0.07608   0.08577

 Mulliken charges:
               1
     1  Mg   0.942266
     2  C   -0.038197
     3  C   -0.073476
     4  C   -0.078249
     5  C   -0.055522
     6  N   -0.320128
     7  C   -0.052921
     8  C   -0.003094
     9  C   -0.147383
    10  C    0.056828
    11  C    0.022608
    12  C   -0.011552
    13  C   -0.137975
    14  H    0.013846
    15  N   -0.462327
    16  C    0.168032
    17  C   -0.175039
    18  C   -0.086669
    19  C    0.201695
    20  C    0.084750
    21  C    0.035873
    22  O   -0.236064
    23  C    0.005269
    24  N   -0.322818
    25  C    0.047312
    26  C   -0.151608
    27  C   -0.062569
    28  C    0.046736
    29  C    0.017212
    30  C   -0.028991
    31  C   -0.050501
    32  N   -0.501318
    33  C    0.150779
    34  C   -0.184639
    35  C   -0.035166
    36  C    0.186973
    37  C    0.088009
    38  C    0.097823
    39  O   -0.231308
    40  C   -0.050434
    41  C    0.238060
    42  O   -0.235772
    43  O   -0.346869
    44  C    0.130807
    45  H    0.013536
    46  H   -0.019993
    47  H    0.003644
    48  H    0.035147
    49  H    0.061560
    50  H    0.033356
    51  H    0.044387
    52  H    0.040377
    53  H    0.041005
    54  H    0.041275
    55  H    0.087328
    56  H    0.047318
    57  H    0.029788
    58  H    0.048511
    59  H    0.062072
    60  H    0.066420
    61  H    0.056684
    62  H    0.054701
    63  H    0.040398
    64  H    0.018206
    65  H    0.043505
    66  H    0.031278
    67  H    0.046327
    68  H    0.037562
    69  H    0.032106
    70  H    0.053470
    71  H    0.028059
    72  H    0.026659
    73  H    0.054704
    74  H    0.056719
    75  H    0.063129
    76  H    0.067731
    77  H    0.072401
    78  H    0.059056
    79  H    0.067282
    80  Mg   0.958523
    81  C    0.008099
    82  C   -0.083096
    83  C   -0.084096
    84  C   -0.096821
    85  N   -0.330829
    86  C   -0.005530
    87  C   -0.018635
    88  C   -0.091910
    89  C    0.035625
    90  C    0.041584
    91  C   -0.010979
    92  C   -0.168436
    93  H    0.029767
    94  N   -0.448497
    95  C    0.171470
    96  C   -0.181301
    97  C   -0.096783
    98  C    0.137576
    99  C    0.086158
   100  C    0.013557
   101  O   -0.209508
   102  C   -0.015032
   103  N   -0.361563
   104  C    0.084274
   105  C   -0.139053
   106  C   -0.084223
   107  C    0.074624
   108  C    0.050101
   109  C   -0.015190
   110  C   -0.044734
   111  N   -0.442135
   112  C    0.139277
   113  C   -0.188335
   114  C    0.058579
   115  C    0.109833
   116  C    0.078561
   117  C    0.062229
   118  O   -0.216845
   119  C   -0.121119
   120  C    0.312883
   121  O   -0.256792
   122  O   -0.379182
   123  C    0.145070
   124  H    0.009438
   125  H    0.003616
   126  H   -0.014481
   127  H    0.042031
   128  H    0.049831
   129  H    0.036483
   130  H    0.041569
   131  H    0.026729
   132  H    0.059007
   133  H    0.045129
   134  H    0.064530
   135  H    0.055626
   136  H    0.032921
   137  H    0.063581
   138  H    0.054145
   139  H    0.032348
   140  H    0.070757
   141  H    0.057806
   142  H    0.056026
   143  H    0.040463
   144  H    0.038760
   145  H    0.039427
   146  H    0.032333
   147  H    0.030228
   148  H    0.027550
   149  H    0.056218
   150  H    0.025745
   151  H    0.030850
   152  H    0.060750
   153  H    0.060671
   154  H    0.031720
   155  H    0.065417
   156  H    0.053599
   157  H    0.053920
   158  H    0.058089
 Sum of Mulliken charges =  -0.00000

 Dipole moment (field-independent basis, Debye):
    X=              1.4181    Y=              4.2488    Z=             -4.0004  Tot=              6.0056
 Quadrupole moment (field-independent basis, Debye-Ang):
   XX=           -499.8729   YY=           -494.1937   ZZ=           -498.8381
   XY=             44.8026   XZ=             -0.3765   YZ=              6.1353

 Normal termination of Gaussian 16 at Sat Sep 18 14:26:45 2021.
