 Gaussian 16, Revision A.03,
 Gaussian 16:  ES64L-G16RevA.03 25-Dec-2016

 --------------------------------
 #p wB97XD/Def2SVP td=(nstates=5)
 --------------------------------

 --------------------------------
 TDDFT excited states in gaussian
 --------------------------------
 Symbolic Z-matrix:
 Charge =  0 Multiplicity = 1

                         Standard orientation:
 ---------------------------------------------------------------------
 Center     Atomic      Atomic             Coordinates (Angstroms)
 Number     Number       Type             X           Y           Z
 ---------------------------------------------------------------------
      1         12           0      -17.280986    0.662727   -0.053049
      2          6           0      -15.950883   -2.186064   -1.464166
      3          6           0      -14.757279    2.420343   -1.552627
      4          6           0      -18.401333    3.412439    1.555775
      5          6           0      -19.423721   -1.286435    1.870121
      6          7           0      -15.460915    0.057646   -1.270480
      7          6           0      -15.251832   -1.055709   -1.860586
      8          6           0      -14.018810   -1.100346   -2.902721
      9          6           0      -13.474835    0.362775   -2.659861
     10          6           0      -14.576512    1.012456   -1.695240
     11          6           0      -12.046350    0.447090   -1.905269
     12          6           0      -14.411853   -1.399451   -4.414131
     13          6           0      -13.370462   -2.169327   -5.301494
     14          1           0      -11.993696   -2.333313   -4.732065
     15          7           0      -16.738891    2.603556   -0.056067
     16          6           0      -15.673789    3.208123   -0.832747
     17          6           0      -15.716251    4.645783   -0.586543
     18          6           0      -16.693340    4.935957    0.398113
     19          6           0      -17.359874    3.637099    0.643715
     20          6           0      -14.793304    5.494660   -1.384556
     21          6           0      -17.136754    6.276770    1.028882
     22          8           0      -17.909710    6.401420    1.931777
     23          6           0      -16.360765    7.514503    0.534993
     24          7           0      -18.640133    1.069710    1.586607
     25          6           0      -18.938907    2.233268    2.071521
     26          6           0      -19.808188    2.116241    3.355613
     27          6           0      -20.224927    0.626189    3.385581
     28          6           0      -19.404100    0.068254    2.199111
     29          6           0      -19.020783    2.572987    4.602157
     30          6           0      -21.768877    0.434916    3.276941
     31          6           0      -22.563566    0.845671    4.527112
     32          7           0      -17.655433   -1.351471    0.190837
     33          6           0      -18.635032   -1.976212    0.942054
     34          6           0      -18.552794   -3.380176    0.636206
     35          6           0      -17.482307   -3.578076   -0.286511
     36          6           0      -17.021964   -2.253626   -0.520416
     37          6           0      -19.360934   -4.387692    1.218678
     38          6           0      -16.755947   -4.484980   -1.117023
     39          8           0      -16.838571   -5.748525   -1.163990
     40          6           0      -15.652814   -3.603707   -1.821500
     41          6           0      -14.363539   -4.129397   -1.426269
     42          8           0      -13.799457   -3.863312   -0.365251
     43          8           0      -14.003053   -5.062448   -2.364880
     44          6           0      -12.833004   -5.869967   -1.959888
     45          1           0      -13.948945    3.003856   -1.997201
     46          1           0      -18.726153    4.347314    2.018716
     47          1           0      -20.164881   -1.845996    2.445405
     48          1           0      -13.340696   -1.830046   -2.459495
     49          1           0      -13.355256    0.880282   -3.611488
     50          1           0      -11.880802   -0.501444   -1.393621
     51          1           0      -12.062115    1.260602   -1.180141
     52          1           0      -11.177241    0.640499   -2.534879
     53          1           0      -14.542221   -0.406369   -4.843300
     54          1           0      -15.427629   -1.755797   -4.588780
     55          1           0      -13.234406   -1.738325   -6.293301
     56          1           0      -13.704093   -3.199770   -5.424224
     57          1           0      -13.810175    5.539931   -0.915165
     58          1           0      -15.227954    6.456041   -1.658648
     59          1           0      -14.675791    5.006017   -2.351488
     60          1           0      -16.626146    7.846825   -0.469103
     61          1           0      -15.332301    7.161487    0.603704
     62          1           0      -16.403617    8.391009    1.180837
     63          1           0      -20.658007    2.756476    3.120161
     64          1           0      -19.835867    0.156919    4.289165
     65          1           0      -17.935089    2.509286    4.526059
     66          1           0      -19.161670    2.016807    5.529529
     67          1           0      -19.312237    3.611383    4.759659
     68          1           0      -21.980319   -0.623182    3.128936
     69          1           0      -22.147101    0.978315    2.410390
     70          1           0      -21.861577    1.295258    5.229396
     71          1           0      -22.845155   -0.053899    5.074658
     72          1           0      -23.474351    1.431473    4.405332
     73          1           0      -20.368228   -3.971397    1.201159
     74          1           0      -19.147366   -4.638381    2.257609
     75          1           0      -19.199593   -5.318060    0.673199
     76          1           0      -15.813902   -3.815159   -2.878916
     77          1           0      -13.158180   -6.462746   -1.104454
     78          1           0      -11.944918   -5.255912   -1.814136
     79          1           0      -12.613937   -6.553317   -2.780489
     80         12           0       17.066832    0.343012   -0.008729
     81          6           0       15.302912   -2.504955    0.773279
     82          6           0       14.660773    1.352089   -2.226848
     83          6           0       18.788266    3.327823   -0.640377
     84          6           0       19.083755   -0.121771    2.755725
     85          7           0       15.095130   -0.447392   -0.443398
     86          6           0       14.604409   -1.726915   -0.169346
     87          6           0       13.222426   -1.941559   -0.791700
     88          6           0       13.224359   -0.780998   -1.818886
     89          6           0       14.364093    0.187210   -1.441122
     90          6           0       13.226493   -1.268596   -3.284263
     91          6           0       12.091723   -1.852512    0.252303
     92          6           0       10.938495   -2.908315    0.137912
     93          1           0        9.599327   -2.462617    0.579396
     94          7           0       16.784716    2.022059   -1.275185
     95          6           0       15.790089    2.209697   -2.172588
     96          6           0       16.040935    3.301766   -3.064704
     97          6           0       17.300993    3.818664   -2.721360
     98          6           0       17.711582    3.023981   -1.490577
     99          6           0       15.151003    3.668372   -4.254093
    100          6           0       18.062361    5.003749   -3.418599
    101          8           0       17.476575    5.632053   -4.337179
    102          6           0       19.564722    5.403422   -3.088748
    103          7           0       18.516965    1.600257    1.106277
    104          6           0       19.144133    2.668976    0.557450
    105          6           0       20.355292    3.105695    1.340978
    106          6           0       20.446304    2.048981    2.462964
    107          6           0       19.316451    1.088921    2.082040
    108          6           0       21.655023    3.286475    0.488652
    109          6           0       20.394241    2.681678    3.934580
    110          6           0       21.741135    2.711350    4.666241
    111          7           0       17.240254   -1.041246    1.448133
    112          6           0       18.135444   -1.158362    2.534171
    113          6           0       17.994315   -2.490719    3.136210
    114          6           0       16.950261   -3.053420    2.415336
    115          6           0       16.475621   -2.084594    1.515903
    116          6           0       18.735697   -3.117866    4.262123
    117          6           0       16.118249   -4.259553    2.299195
    118          8           0       16.251708   -5.404255    2.762332
    119          6           0       15.031990   -3.968762    1.187452
    120          6           0       15.162953   -4.934489    0.017355
    121          8           0       16.197003   -5.281957   -0.561776
    122          8           0       13.885474   -5.366886   -0.181560
    123          6           0       13.707686   -6.448080   -1.136310
    124          1           0       13.903600    1.681723   -2.941202
    125          1           0       19.455571    4.179022   -0.791139
    126          1           0       19.693684   -0.334673    3.635936
    127          1           0       13.175976   -2.932473   -1.244619
    128          1           0       12.267693   -0.290054   -1.640642
    129          1           0       12.886448   -2.278146   -3.514985
    130          1           0       14.272658   -1.264471   -3.589871
    131          1           0       12.642689   -0.618606   -3.935599
    132          1           0       11.656519   -0.855909    0.321175
    133          1           0       12.598504   -1.900515    1.216435
    134          1           0       11.210742   -3.792307    0.714512
    135          1           0       10.810689   -3.165220   -0.914570
    136          1           0       15.800831    3.626763   -5.127924
    137          1           0       14.589586    4.574792   -4.027235
    138          1           0       14.465955    2.825728   -4.347269
    139          1           0       19.516546    6.067193   -2.226302
    140          1           0       19.929570    5.949925   -3.958103
    141          1           0       20.129915    4.471228   -3.068595
    142          1           0       20.139519    4.082926    1.773098
    143          1           0       21.288277    1.359021    2.412056
    144          1           0       22.517450    2.826038    0.969859
    145          1           0       21.897000    4.333949    0.309727
    146          1           0       21.481229    2.891049   -0.511265
    147          1           0       19.751427    2.115805    4.608754
    148          1           0       19.939815    3.671730    3.898893
    149          1           0       21.832831    3.640727    5.228613
    150          1           0       22.553842    2.650638    3.942738
    151          1           0       21.885136    1.884622    5.361617
    152          1           0       19.538428   -2.436032    4.542954
    153          1           0       18.952436   -4.160708    4.029748
    154          1           0       18.060642   -3.083466    5.117908
    155          1           0       14.016142   -3.991032    1.582885
    156          1           0       14.275282   -6.321143   -2.059044
    157          1           0       12.685972   -6.684516   -1.433399
    158          1           0       14.036602   -7.387520   -0.691313
 ---------------------------------------------------------------------

 SCF Done:  E(RwB97XD) =  -4070.64051993     A.U. after   19 cycles

 Excitation energies and oscillator strengths:

 Excited State   1:      Singlet-A      1.6648 eV  744.76 nm  f=0.3547  <S**2>=0.000
     309 -> 315       -0.17868
     312 -> 313        0.68377
     309 <- 315       -0.11337
 This state for optimization and/or second-order correction.
 Total Energy, E(TD-HF/TD-DFT) =  -4070.57934132
 Copying the excited state density for this state as the 1-particle RhoCI density.

 Excited State   2:      Singlet-A      1.7222 eV  719.92 nm  f=0.3853  <S**2>=0.000
     310 -> 316        0.20376
     311 -> 314        0.67759
     310 <- 316        0.11868

 Excited State   3:      Singlet-A      2.1613 eV  573.65 nm  f=0.1086  <S**2>=0.000
     310 -> 314        0.64083
     311 -> 316       -0.28352

 Excited State   4:      Singlet-A      2.1964 eV  564.48 nm  f=0.0911  <S**2>=0.000
     309 -> 313        0.62318
     312 -> 315        0.31718

 Excited State   5:      Singlet-A      3.4549 eV  358.86 nm  f=0.0022  <S**2>=0.000
     304 -> 314        0.27974
     304 -> 317       -0.15387
     306 -> 314        0.39116
     306 -> 317       -0.29960
     306 -> 320        0.19447
     308 -> 314        0.27240

 The electronic state is 1-A.
 Alpha  occ. eigenvalues --  -46.95545 -46.94740 -19.31586 -19.30004 -19.25219
 Alpha  occ. eigenvalues --  -19.25198 -19.24813 -19.24231 -19.23484 -19.23282
 Alpha  occ. eigenvalues --  -14.47043 -14.46789 -14.46776 -14.46101 -14.44890
 Alpha  occ. eigenvalues --  -14.44336 -14.43683 -14.43495 -10.43818 -10.42375
 Alpha  occ. eigenvalues --  -10.40782 -10.40265 -10.38775 -10.38766 -10.36340
 Alpha  occ. eigenvalues --  -10.35929 -10.35792 -10.35758 -10.35254 -10.35128
 Alpha  occ. eigenvalues --  -10.34985 -10.34807 -10.34760 -10.34539 -10.34460
 Alpha  occ. eigenvalues --  -10.34447 -10.34434 -10.34305 -10.33655 -10.33621
 Alpha  occ. eigenvalues --  -10.33152 -10.33062 -10.33003 -10.32878 -10.32781
 Alpha  occ. eigenvalues --  -10.32726 -10.32572 -10.32415 -10.32240 -10.32216
 Alpha  occ. eigenvalues --  -10.32152 -10.32130 -10.32078 -10.32010 -10.31995
 Alpha  occ. eigenvalues --  -10.31843 -10.31803 -10.31788 -10.31732 -10.31729
 Alpha  occ. eigenvalues --  -10.31635 -10.31579 -10.31426 -10.31408 -10.31148
 Alpha  occ. eigenvalues --  -10.31145 -10.31142 -10.31030 -10.31016 -10.30849
 Alpha  occ. eigenvalues --  -10.30664 -10.30647 -10.30527 -10.30477 -10.30283
 Alpha  occ. eigenvalues --  -10.30162 -10.30029 -10.29956 -10.29804 -10.29572
 Alpha  occ. eigenvalues --  -10.29517 -10.29373 -10.29191 -10.28582 -10.28462
 Alpha  occ. eigenvalues --  -10.28455  -3.21522  -3.20783  -1.95076  -1.94631
 Alpha  occ. eigenvalues --   -1.94520  -1.94368  -1.93915  -1.93756  -1.19027
 Alpha  occ. eigenvalues --   -1.17668  -1.14759  -1.10927  -1.10555  -1.09960
 Alpha  occ. eigenvalues --   -1.09392  -1.08938  -1.07391  -1.06688  -1.06297
 Alpha  occ. eigenvalues --   -1.06042  -1.05606  -1.05466  -1.04187  -1.02937
 Alpha  occ. eigenvalues --   -0.94486  -0.93373  -0.91188  -0.90831  -0.90732
 Alpha  occ. eigenvalues --   -0.90582  -0.90267  -0.89717  -0.89383  -0.89202
 Alpha  occ. eigenvalues --   -0.88975  -0.88888  -0.88789  -0.88407  -0.86251
 Alpha  occ. eigenvalues --   -0.85846  -0.85784  -0.85339  -0.84421  -0.84217
 Alpha  occ. eigenvalues --   -0.83642  -0.83590  -0.83102  -0.82983  -0.82236
 Alpha  occ. eigenvalues --   -0.82152  -0.80528  -0.79881  -0.79450  -0.79290
 Alpha  occ. eigenvalues --   -0.78708  -0.78285  -0.77823  -0.77657  -0.77260
 Alpha  occ. eigenvalues --   -0.76762  -0.74709  -0.74185  -0.73733  -0.73438
 Alpha  occ. eigenvalues --   -0.71305  -0.71137  -0.70930  -0.70728  -0.70156
 Alpha  occ. eigenvalues --   -0.69848  -0.69299  -0.68999  -0.68062  -0.67745
 Alpha  occ. eigenvalues --   -0.67301  -0.67089  -0.66990  -0.66761  -0.66585
 Alpha  occ. eigenvalues --   -0.66071  -0.64678  -0.63531  -0.62039  -0.61926
 Alpha  occ. eigenvalues --   -0.61625  -0.61361  -0.61078  -0.60959  -0.60616
 Alpha  occ. eigenvalues --   -0.60260  -0.59848  -0.59710  -0.59620  -0.59232
 Alpha  occ. eigenvalues --   -0.58010  -0.57983  -0.57742  -0.57586  -0.57251
 Alpha  occ. eigenvalues --   -0.57159  -0.56975  -0.56442  -0.55879  -0.55730
 Alpha  occ. eigenvalues --   -0.55341  -0.55310  -0.55124  -0.55110  -0.54906
 Alpha  occ. eigenvalues --   -0.54784  -0.54678  -0.54554  -0.54008  -0.53927
 Alpha  occ. eigenvalues --   -0.53795  -0.53546  -0.53304  -0.53243  -0.53188
 Alpha  occ. eigenvalues --   -0.53067  -0.53055  -0.52846  -0.52796  -0.52650
 Alpha  occ. eigenvalues --   -0.52353  -0.51878  -0.51394  -0.51314  -0.51256
 Alpha  occ. eigenvalues --   -0.51059  -0.51039  -0.50835  -0.50482  -0.50444
 Alpha  occ. eigenvalues --   -0.50368  -0.50262  -0.50125  -0.50102  -0.49766
 Alpha  occ. eigenvalues --   -0.49751  -0.49705  -0.49698  -0.49412  -0.49133
 Alpha  occ. eigenvalues --   -0.48966  -0.48836  -0.48569  -0.48529  -0.48363
 Alpha  occ. eigenvalues --   -0.48304  -0.48146  -0.47994  -0.47953  -0.47531
 Alpha  occ. eigenvalues --   -0.47467  -0.47163  -0.47071  -0.46762  -0.46749
 Alpha  occ. eigenvalues --   -0.46367  -0.46305  -0.46203  -0.46090  -0.46077
 Alpha  occ. eigenvalues --   -0.45734  -0.45716  -0.45671  -0.45472  -0.45455
 Alpha  occ. eigenvalues --   -0.45220  -0.45162  -0.44948  -0.44880  -0.44667
 Alpha  occ. eigenvalues --   -0.44549  -0.44529  -0.44386  -0.44211  -0.44112
 Alpha  occ. eigenvalues --   -0.43909  -0.43653  -0.43627  -0.43505  -0.43380
 Alpha  occ. eigenvalues --   -0.43092  -0.43084  -0.42732  -0.42520  -0.42519
 Alpha  occ. eigenvalues --   -0.42112  -0.41700  -0.41625  -0.41288  -0.41262
 Alpha  occ. eigenvalues --   -0.40700  -0.40306  -0.40130  -0.40087  -0.39886
 Alpha  occ. eigenvalues --   -0.39527  -0.39431  -0.39046  -0.38930  -0.38551
 Alpha  occ. eigenvalues --   -0.38403  -0.38228  -0.36865  -0.36791  -0.36285
 Alpha  occ. eigenvalues --   -0.35866  -0.35612  -0.35294  -0.33813  -0.33764
 Alpha  occ. eigenvalues --   -0.33340  -0.33326  -0.32711  -0.32436  -0.32419
 Alpha  occ. eigenvalues --   -0.32266  -0.31957  -0.31298  -0.26150  -0.25589
 Alpha  occ. eigenvalues --   -0.23049  -0.22918
 Alpha virt. eigenvalues --   -0.06933  -0.06760  -0.00140   0.00228   0.02032
 Alpha virt. eigenvalues --    0.02223   0.04047   0.04208   0.04799   0.05709
 Alpha virt. eigenvalues --    0.07141   0.07397   0.07658   0.08294   0.09138

 Mulliken charges:
               1
     1  Mg   0.972994
     2  C    0.036718
     3  C   -0.076502
     4  C   -0.083402
     5  C   -0.099902
     6  N   -0.274809
     7  C   -0.097081
     8  C   -0.014436
     9  C   -0.137524
    10  C    0.065875
    11  C    0.000622
    12  C    0.023669
    13  C   -0.131695
    14  H    0.035174
    15  N   -0.532182
    16  C    0.160566
    17  C   -0.146736
    18  C   -0.099975
    19  C    0.147792
    20  C    0.050205
    21  C    0.084661
    22  O   -0.192536
    23  C   -0.045241
    24  N   -0.332348
    25  C    0.039881
    26  C   -0.054377
    27  C   -0.067612
    28  C    0.054826
    29  C    0.016542
    30  C   -0.022544
    31  C   -0.039121
    32  N   -0.427665
    33  C    0.163690
    34  C   -0.180242
    35  C    0.016139
    36  C    0.116566
    37  C    0.057389
    38  C    0.086207
    39  O   -0.253854
    40  C   -0.075659
    41  C    0.267953
    42  O   -0.262094
    43  O   -0.366877
    44  C    0.144968
    45  H   -0.003062
    46  H    0.012732
    47  H   -0.006259
    48  H    0.049118
    49  H    0.040242
    50  H    0.048178
    51  H    0.038279
    52  H    0.039792
    53  H    0.016294
    54  H    0.039544
    55  H    0.057637
    56  H    0.064734
    57  H    0.067836
    58  H    0.043836
    59  H    0.042670
    60  H    0.070896
    61  H    0.053244
    62  H    0.049675
    63  H    0.038220
    64  H    0.035350
    65  H    0.043608
    66  H    0.034051
    67  H    0.050546
    68  H    0.028766
    69  H    0.032091
    70  H    0.024466
    71  H    0.026133
    72  H    0.050572
    73  H    0.038280
    74  H    0.050051
    75  H    0.057936
    76  H    0.063358
    77  H    0.068128
    78  H    0.056036
    79  H    0.048999
    80  Mg   0.973485
    81  C   -0.080545
    82  C   -0.109955
    83  C   -0.086264
    84  C   -0.082897
    85  N   -0.404060
    86  C   -0.008369
    87  C   -0.052854
    88  C   -0.091958
    89  C    0.125656
    90  C    0.014004
    91  C    0.023164
    92  C   -0.127746
    93  H    0.043597
    94  N   -0.430203
    95  C    0.152938
    96  C   -0.190745
    97  C   -0.078511
    98  C    0.194656
    99  C    0.116531
   100  C    0.044431
   101  O   -0.256312
   102  C   -0.009343
   103  N   -0.325037
   104  C    0.022859
   105  C   -0.076361
   106  C   -0.052261
   107  C    0.038463
   108  C    0.010469
   109  C   -0.007616
   110  C   -0.058088
   111  N   -0.440837
   112  C    0.101325
   113  C   -0.206407
   114  C   -0.043950
   115  C    0.153187
   116  C    0.107364
   117  C    0.155589
   118  O   -0.229625
   119  C   -0.059938
   120  C    0.289199
   121  O   -0.247444
   122  O   -0.356441
   123  C    0.133457
   124  H    0.007733
   125  H   -0.019716
   126  H   -0.011067
   127  H    0.025031
   128  H    0.032627
   129  H    0.036832
   130  H    0.034850
   131  H    0.038325
   132  H    0.030615
   133  H    0.030173
   134  H    0.066527
   135  H    0.049587
   136  H    0.065539
   137  H    0.072026
   138  H    0.012097
   139  H    0.080703
   140  H    0.058279
   141  H    0.060736
   142  H    0.046723
   143  H    0.034064
   144  H    0.046892
   145  H    0.033551
   146  H    0.037730
   147  H    0.033001
   148  H    0.028772
   149  H    0.039107
   150  H    0.028616
   151  H    0.041168
   152  H    0.021236
   153  H    0.075419
   154  H    0.050551
   155  H    0.064505
   156  H    0.055236
   157  H    0.052206
   158  H    0.053722
 Sum of Mulliken charges =  -0.00000

 Dipole moment (field-independent basis, Debye):
    X=              1.5025    Y=              6.7215    Z=             -2.7898  Tot=              7.4310
 Quadrupole moment (field-independent basis, Debye-Ang):
   XX=           -470.0954   YY=           -552.6833   ZZ=           -496.2194
   XY=              4.2853   XZ=             28.9838   YZ=             19.2966

 Normal termination of Gaussian 16 at Mon Sep 20 11:37:44 2021.
