 Gaussian 16, Revision A.03,
 Gaussian 16:  ES64L-G16RevA.03 25-Dec-2016

 --------------------------------
 #p wB97XD/Def2SVP td=(nstates=5)
 --------------------------------

 --------------------------------
 TDDFT excited states in gaussian
 --------------------------------
 Symbolic Z-matrix:
 Charge =  0 Multiplicity = 1

                         Standard orientation:
 ---------------------------------------------------------------------
 Center     Atomic      Atomic             Coordinates (Angstroms)
 Number     Number       Type             X           Y           Z
 ---------------------------------------------------------------------
      1         12           0      -27.014620   -0.353490   -0.403545
      2          6           0      -25.261361    2.611101   -0.518933
      3          6           0      -28.568178    0.831722    2.405151
      4          6           0      -28.522172   -3.361367   -0.113070
      5          6           0      -24.968840   -1.663927   -2.890846
      6          7           0      -26.760617    1.522690    0.851983
      7          6           0      -26.179888    2.610893    0.520216
      8          6           0      -26.415654    3.880243    1.490549
      9          6           0      -27.267048    3.149536    2.602667
     10          6           0      -27.510123    1.691518    1.985115
     11          6           0      -26.521514    2.964751    4.026438
     12          6           0      -27.153868    5.121417    0.825090
     13          6           0      -26.789284    6.555618    1.349269
     14          1           0      -25.970986    6.624722    2.603158
     15          7           0      -28.377878   -1.118121    0.868289
     16          6           0      -29.009521   -0.434665    1.980534
     17          6           0      -29.994658   -1.347599    2.550922
     18          6           0      -29.914427   -2.606125    1.904295
     19          6           0      -28.943019   -2.391114    0.808047
     20          6           0      -30.865666   -0.812271    3.629817
     21          6           0      -30.710356   -3.914637    2.120068
     22          8           0      -30.494509   -4.959586    1.581822
     23          6           0      -31.747620   -3.862972    3.260018
     24          7           0      -26.750916   -2.324436   -1.267966
     25          6           0      -27.454621   -3.381215   -1.010493
     26          6           0      -26.858449   -4.648846   -1.685714
     27          6           0      -25.796124   -4.084386   -2.659200
     28          6           0      -25.825742   -2.583225   -2.287182
     29          6           0      -26.289751   -5.623139   -0.632228
     30          6           0      -26.119181   -4.408558   -4.150079
     31          6           0      -25.931992   -5.881141   -4.549627
     32          7           0      -25.412021    0.306603   -1.522757
     33          6           0      -24.756665   -0.318430   -2.568742
     34          6           0      -23.821294    0.639435   -3.096946
     35          6           0      -23.912846    1.833451   -2.320765
     36          6           0      -24.952040    1.529037   -1.399785
     37          6           0      -22.920336    0.393464   -4.162414
     38          6           0      -23.492900    3.185193   -2.130335
     39          8           0      -22.561782    3.811081   -2.719285
     40          6           0      -24.287688    3.687955   -0.863301
     41          6           0      -23.311875    4.045547    0.144024
     42          8           0      -22.760798    3.241231    0.895116
     43          8           0      -23.030547    5.377842   -0.021411
     44          6           0      -21.862167    5.825657    0.765653
     45          1           0      -29.061242    1.172393    3.317494
     46          1           0      -29.068018   -4.297586    0.026069
     47          1           0      -24.401655   -2.100146   -3.716311
     48          1           0      -25.416081    4.098237    1.867486
     49          1           0      -28.181978    3.707648    2.800454
     50          1           0      -25.448852    3.066080    3.859003
     51          1           0      -26.741108    1.976356    4.429819
     52          1           0      -26.801957    3.665027    4.813922
     53          1           0      -28.204496    4.943113    1.052645
     54          1           0      -27.246762    5.103884   -0.261349
     55          1           0      -27.655783    7.193763    1.522195
     56          1           0      -26.148873    7.047298    0.616937
     57          1           0      -30.371289   -0.892784    4.598337
     58          1           0      -31.883486   -1.200335    3.587993
     59          1           0      -31.009608    0.247188    3.419189
     60          1           0      -32.651011   -3.298219    3.027614
     61          1           0      -31.161930   -3.410278    4.059465
     62          1           0      -32.068675   -4.826665    3.654266
     63          1           0      -27.715088   -5.047790   -2.228434
     64          1           0      -24.811341   -4.460608   -2.382239
     65          1           0      -25.996244   -5.175213    0.317401
     66          1           0      -25.364372   -6.149758   -0.867922
     67          1           0      -27.082053   -6.351411   -0.459322
     68          1           0      -25.439425   -3.842962   -4.785859
     69          1           0      -27.137362   -4.094862   -4.382777
     70          1           0      -25.692234   -6.439052   -3.644435
     71          1           0      -24.995225   -5.979040   -5.098451
     72          1           0      -26.697439   -6.365620   -5.155344
     73          1           0      -23.520158   -0.124560   -4.910821
     74          1           0      -22.074024   -0.256186   -3.939828
     75          1           0      -22.468600    1.340848   -4.458323
     76          1           0      -24.772278    4.594646   -1.226449
     77          1           0      -20.998461    5.314810    0.339107
     78          1           0      -22.019532    5.699400    1.836306
     79          1           0      -21.744349    6.894573    0.587099
     80         12           0       25.943030   -0.859719    0.202490
     81          6           0       26.931967    2.238660   -1.299800
     82          6           0       25.204958    1.034382    3.085405
     83          6           0       25.684506   -3.615744    1.946526
     84          6           0       27.058431   -2.501911   -2.558226
     85          7           0       26.020021    1.383092    0.765778
     86          6           0       26.356287    2.387249   -0.079143
     87          6           0       26.052853    3.713437    0.598344
     88          6           0       25.466454    3.410560    2.006024
     89          6           0       25.527308    1.871559    1.961849
     90          6           0       26.297519    4.106410    3.225518
     91          6           0       25.030466    4.606026   -0.227390
     92          6           0       25.412406    6.072455   -0.431481
     93          1           0       26.223745    6.864398    0.670971
     94          7           0       25.552050   -1.238425    2.269721
     95          6           0       25.264757   -0.364244    3.210802
     96          6           0       25.051527   -1.097735    4.426521
     97          6           0       25.026176   -2.488926    4.153456
     98          6           0       25.459963   -2.496138    2.780900
     99          6           0       24.589752   -0.432330    5.721960
    100          6           0       24.594769   -3.718585    4.937173
    101          8           0       24.726910   -4.853016    4.515719
    102          6           0       23.927063   -3.458990    6.259565
    103          7           0       26.661061   -2.745546   -0.151029
    104          6           0       26.228582   -3.786108    0.673161
    105          6           0       26.352813   -5.183024    0.006308
    106          6           0       26.637989   -4.728700   -1.474780
    107          6           0       26.797380   -3.209826   -1.408884
    108          6           0       27.455097   -6.014288    0.678566
    109          6           0       25.432418   -5.037828   -2.482905
    110          6           0       25.585079   -6.163072   -3.450648
    111          7           0       26.695134   -0.295713   -1.583445
    112          6           0       27.139861   -1.098663   -2.611468
    113          6           0       27.763830   -0.340779   -3.692915
    114          6           0       27.703199    1.018726   -3.220424
    115          6           0       27.171288    0.971082   -1.910202
    116          6           0       28.124597   -0.914115   -5.015440
    117          6           0       27.926335    2.412476   -3.572856
    118          8           0       28.363181    2.853523   -4.651498
    119          6           0       27.449560    3.302266   -2.288970
    120          6           0       28.651611    3.991802   -1.847656
    121          8           0       29.678455    3.426035   -1.541969
    122          8           0       28.471992    5.317500   -1.812548
    123          6           0       29.572706    6.263600   -1.447753
    124          1           0       24.891091    1.576675    3.979657
    125          1           0       25.234733   -4.550438    2.289765
    126          1           0       27.324515   -3.065814   -3.454400
    127          1           0       27.003797    4.230833    0.725362
    128          1           0       24.474149    3.842715    2.136268
    129          1           0       26.861949    4.967884    2.868482
    130          1           0       26.941374    3.314543    3.609145
    131          1           0       25.608105    4.407768    4.014013
    132          1           0       24.001950    4.581478    0.130073
    133          1           0       24.952811    4.214068   -1.241438
    134          1           0       24.539768    6.687886   -0.651238
    135          1           0       25.969550    6.044384   -1.367918
    136          1           0       23.513268   -0.477186    5.887935
    137          1           0       24.992755    0.575930    5.822020
    138          1           0       25.080974   -0.975445    6.529002
    139          1           0       23.221901   -2.627325    6.268972
    140          1           0       24.609362   -3.265643    7.086145
    141          1           0       23.228069   -4.269640    6.465539
    142          1           0       25.393256   -5.684975    0.127355
    143          1           0       27.535263   -5.245946   -1.814820
    144          1           0       27.839537   -5.589545    1.605771
    145          1           0       28.328539   -6.118457    0.035824
    146          1           0       27.074752   -7.016003    0.881242
    147          1           0       25.151433   -4.206074   -3.128893
    148          1           0       24.486957   -5.201796   -1.967190
    149          1           0       24.847916   -6.938367   -3.245765
    150          1           0       26.597836   -6.516140   -3.255426
    151          1           0       25.439732   -5.810824   -4.471826
    152          1           0       27.971600   -0.191655   -5.816434
    153          1           0       27.573712   -1.850558   -5.101237
    154          1           0       29.188009   -1.153031   -4.970207
    155          1           0       26.696832    4.039356   -2.565355
    156          1           0       30.459511    6.030338   -2.037339
    157          1           0       29.847594    6.201378   -0.394534
    158          1           0       29.287795    7.313339   -1.512658
 ---------------------------------------------------------------------

 SCF Done:  E(RwB97XD) =  -4070.61732955     A.U. after   20 cycles

 Excitation energies and oscillator strengths:

 Excited State   1:      Singlet-A      1.6235 eV  763.66 nm  f=0.4023  <S**2>=0.000
     309 -> 316       -0.17886
     312 -> 313        0.68453
     309 <- 316       -0.11640
 This state for optimization and/or second-order correction.
 Total Energy, E(TD-HF/TD-DFT) =  -4070.55766531
 Copying the excited state density for this state as the 1-particle RhoCI density.

 Excited State   2:      Singlet-A      1.7223 eV  719.88 nm  f=0.3812  <S**2>=0.000
     310 -> 315        0.20375
     311 -> 314        0.67764
     310 <- 315        0.11868

 Excited State   3:      Singlet-A      2.1424 eV  578.72 nm  f=0.1277  <S**2>=0.000
     309 -> 313        0.64798
     312 -> 316        0.26644

 Excited State   4:      Singlet-A      2.1613 eV  573.65 nm  f=0.1088  <S**2>=0.000
     310 -> 314        0.64085
     311 -> 315       -0.28352

 Excited State   5:      Singlet-A      3.3489 eV  370.22 nm  f=0.0016  <S**2>=0.000
     306 -> 313       -0.11153
     307 -> 313        0.67182

 The electronic state is 1-A.
 Alpha  occ. eigenvalues --  -46.94958 -46.94749 -19.30451 -19.30013 -19.25207
 Alpha  occ. eigenvalues --  -19.24540 -19.24241 -19.24098 -19.23438 -19.23292
 Alpha  occ. eigenvalues --  -14.46798 -14.46477 -14.46295 -14.46111 -14.44342
 Alpha  occ. eigenvalues --  -14.43989 -14.43645 -14.43506 -10.42385 -10.42298
 Alpha  occ. eigenvalues --  -10.40274 -10.39739 -10.39523 -10.38784 -10.36269
 Alpha  occ. eigenvalues --  -10.35938 -10.35362 -10.34995 -10.34816 -10.34779
 Alpha  occ. eigenvalues --  -10.34769 -10.34493 -10.34470 -10.34444 -10.34313
 Alpha  occ. eigenvalues --  -10.34260 -10.33664 -10.33630 -10.33599 -10.33196
 Alpha  occ. eigenvalues --  -10.33156 -10.33068 -10.33010 -10.33009 -10.32887
 Alpha  occ. eigenvalues --  -10.32731 -10.32618 -10.32322 -10.32251 -10.32249
 Alpha  occ. eigenvalues --  -10.32152 -10.32139 -10.31982 -10.31852 -10.31843
 Alpha  occ. eigenvalues --  -10.31827 -10.31737 -10.31665 -10.31645 -10.31589
 Alpha  occ. eigenvalues --  -10.31156 -10.31154 -10.31151 -10.31140 -10.31038
 Alpha  occ. eigenvalues --  -10.30955 -10.30673 -10.30645 -10.30596 -10.30487
 Alpha  occ. eigenvalues --  -10.30296 -10.30245 -10.30170 -10.30035 -10.29937
 Alpha  occ. eigenvalues --  -10.29915 -10.29730 -10.29635 -10.29610 -10.29528
 Alpha  occ. eigenvalues --  -10.29382 -10.29297 -10.29202 -10.28799 -10.28473
 Alpha  occ. eigenvalues --  -10.28465  -3.21023  -3.20792  -1.94578  -1.94376
 Alpha  occ. eigenvalues --   -1.94154  -1.94001  -1.93922  -1.93766  -1.18713
 Alpha  occ. eigenvalues --   -1.17677  -1.14768  -1.13047  -1.10684  -1.09546
 Alpha  occ. eigenvalues --   -1.09402  -1.08948  -1.07399  -1.06673  -1.06307
 Alpha  occ. eigenvalues --   -1.05510  -1.05475  -1.05132  -1.03918  -1.02946
 Alpha  occ. eigenvalues --   -0.94495  -0.94129  -0.91198  -0.90497  -0.90276
 Alpha  occ. eigenvalues --   -0.90144  -0.89956  -0.89725  -0.89392  -0.89045
 Alpha  occ. eigenvalues --   -0.88942  -0.88897  -0.88799  -0.88352  -0.86140
 Alpha  occ. eigenvalues --   -0.86001  -0.85855  -0.85349  -0.84549  -0.84226
 Alpha  occ. eigenvalues --   -0.83737  -0.83649  -0.83216  -0.82992  -0.82649
 Alpha  occ. eigenvalues --   -0.82245  -0.80537  -0.80214  -0.79593  -0.79300
 Alpha  occ. eigenvalues --   -0.78790  -0.78293  -0.78171  -0.77666  -0.76777
 Alpha  occ. eigenvalues --   -0.76771  -0.74471  -0.74194  -0.73447  -0.73388
 Alpha  occ. eigenvalues --   -0.71315  -0.70736  -0.70736  -0.70164  -0.69742
 Alpha  occ. eigenvalues --   -0.69599  -0.69008  -0.68913  -0.67753  -0.67464
 Alpha  occ. eigenvalues --   -0.67311  -0.67087  -0.66770  -0.66618  -0.66480
 Alpha  occ. eigenvalues --   -0.66080  -0.64400  -0.63541  -0.62482  -0.62048
 Alpha  occ. eigenvalues --   -0.61370  -0.61165  -0.61087  -0.60812  -0.60456
 Alpha  occ. eigenvalues --   -0.60269  -0.60022  -0.59857  -0.59630  -0.59452
 Alpha  occ. eigenvalues --   -0.58078  -0.57992  -0.57656  -0.57595  -0.57168
 Alpha  occ. eigenvalues --   -0.57136  -0.56452  -0.56277  -0.55889  -0.55435
 Alpha  occ. eigenvalues --   -0.55317  -0.55244  -0.55119  -0.54929  -0.54915
 Alpha  occ. eigenvalues --   -0.54841  -0.54686  -0.54534  -0.54242  -0.54017
 Alpha  occ. eigenvalues --   -0.53992  -0.53805  -0.53252  -0.53199  -0.53100
 Alpha  occ. eigenvalues --   -0.53075  -0.52854  -0.52660  -0.52529  -0.52456
 Alpha  occ. eigenvalues --   -0.52362  -0.51988  -0.51917  -0.51324  -0.51160
 Alpha  occ. eigenvalues --   -0.51067  -0.50994  -0.50844  -0.50692  -0.50490
 Alpha  occ. eigenvalues --   -0.50477  -0.50378  -0.50315  -0.50134  -0.50019
 Alpha  occ. eigenvalues --   -0.49760  -0.49706  -0.49662  -0.49345  -0.48975
 Alpha  occ. eigenvalues --   -0.48647  -0.48577  -0.48519  -0.48372  -0.48156
 Alpha  occ. eigenvalues --   -0.48151  -0.48037  -0.47963  -0.47813  -0.47540
 Alpha  occ. eigenvalues --   -0.47214  -0.47079  -0.47026  -0.46772  -0.46448
 Alpha  occ. eigenvalues --   -0.46315  -0.46212  -0.46179  -0.46086  -0.45742
 Alpha  occ. eigenvalues --   -0.45742  -0.45529  -0.45464  -0.45254  -0.45170
 Alpha  occ. eigenvalues --   -0.44962  -0.44889  -0.44679  -0.44676  -0.44589
 Alpha  occ. eigenvalues --   -0.44559  -0.44431  -0.44219  -0.43757  -0.43662
 Alpha  occ. eigenvalues --   -0.43636  -0.43470  -0.43388  -0.43328  -0.43185
 Alpha  occ. eigenvalues --   -0.43094  -0.42899  -0.42529  -0.42422  -0.42174
 Alpha  occ. eigenvalues --   -0.42119  -0.41707  -0.41601  -0.41272  -0.41249
 Alpha  occ. eigenvalues --   -0.40272  -0.40138  -0.39894  -0.39842  -0.39536
 Alpha  occ. eigenvalues --   -0.39055  -0.39043  -0.38561  -0.38523  -0.38237
 Alpha  occ. eigenvalues --   -0.38216  -0.38108  -0.36438  -0.36294  -0.35876
 Alpha  occ. eigenvalues --   -0.35691  -0.35622  -0.35223  -0.33821  -0.33683
 Alpha  occ. eigenvalues --   -0.33390  -0.33349  -0.32772  -0.32445  -0.32275
 Alpha  occ. eigenvalues --   -0.32256  -0.31571  -0.31308  -0.25740  -0.25598
 Alpha  occ. eigenvalues --   -0.23058  -0.22753
 Alpha virt. eigenvalues --   -0.07068  -0.06769   0.00219   0.00812   0.02023
 Alpha virt. eigenvalues --    0.02224   0.04166   0.04199   0.04947   0.05700
 Alpha virt. eigenvalues --    0.07379   0.07648   0.07877   0.08169   0.08286

 Mulliken charges:
               1
     1  Mg   0.973081
     2  C    0.036858
     3  C   -0.076511
     4  C   -0.083438
     5  C   -0.099924
     6  N   -0.275021
     7  C   -0.097048
     8  C   -0.014321
     9  C   -0.137584
    10  C    0.065946
    11  C    0.000610
    12  C    0.023605
    13  C   -0.131690
    14  H    0.035202
    15  N   -0.532063
    16  C    0.160548
    17  C   -0.146772
    18  C   -0.099927
    19  C    0.147664
    20  C    0.050157
    21  C    0.084670
    22  O   -0.192553
    23  C   -0.045249
    24  N   -0.332521
    25  C    0.040089
    26  C   -0.054372
    27  C   -0.067626
    28  C    0.054842
    29  C    0.016550
    30  C   -0.022539
    31  C   -0.039116
    32  N   -0.427579
    33  C    0.163742
    34  C   -0.180228
    35  C    0.016107
    36  C    0.116260
    37  C    0.057349
    38  C    0.086249
    39  O   -0.253884
    40  C   -0.075568
    41  C    0.267847
    42  O   -0.262100
    43  O   -0.366868
    44  C    0.144971
    45  H   -0.003046
    46  H    0.012732
    47  H   -0.006273
    48  H    0.049164
    49  H    0.040271
    50  H    0.048169
    51  H    0.038267
    52  H    0.039845
    53  H    0.016302
    54  H    0.039553
    55  H    0.057664
    56  H    0.064727
    57  H    0.067853
    58  H    0.043870
    59  H    0.042723
    60  H    0.070910
    61  H    0.053265
    62  H    0.049674
    63  H    0.038228
    64  H    0.035322
    65  H    0.043600
    66  H    0.034027
    67  H    0.050544
    68  H    0.028768
    69  H    0.032096
    70  H    0.024456
    71  H    0.026115
    72  H    0.050576
    73  H    0.038288
    74  H    0.050019
    75  H    0.057924
    76  H    0.063361
    77  H    0.068089
    78  H    0.056058
    79  H    0.049014
    80  Mg   0.966591
    81  C   -0.049225
    82  C   -0.089704
    83  C   -0.059937
    84  C   -0.106216
    85  N   -0.317487
    86  C    0.011277
    87  C   -0.040385
    88  C   -0.105298
    89  C    0.050274
    90  C   -0.005213
    91  C   -0.008642
    92  C   -0.109784
    93  H    0.017128
    94  N   -0.388076
    95  C    0.164075
    96  C   -0.188180
    97  C   -0.059186
    98  C    0.115455
    99  C    0.051858
   100  C    0.080664
   101  O   -0.219433
   102  C   -0.036821
   103  N   -0.403555
   104  C    0.019176
   105  C   -0.074856
   106  C   -0.053982
   107  C    0.103254
   108  C    0.032752
   109  C   -0.056537
   110  C   -0.031327
   111  N   -0.481765
   112  C    0.161731
   113  C   -0.187130
   114  C   -0.019236
   115  C    0.159937
   116  C    0.089879
   117  C    0.119904
   118  O   -0.226483
   119  C   -0.061698
   120  C    0.257959
   121  O   -0.245688
   122  O   -0.357568
   123  C    0.146437
   124  H   -0.009371
   125  H    0.024582
   126  H    0.000992
   127  H    0.044151
   128  H    0.046810
   129  H    0.047919
   130  H    0.045178
   131  H    0.037820
   132  H    0.030204
   133  H    0.028326
   134  H    0.044385
   135  H    0.052393
   136  H    0.066447
   137  H    0.038109
   138  H    0.031128
   139  H    0.036033
   140  H    0.074660
   141  H    0.049272
   142  H    0.043693
   143  H    0.035654
   144  H    0.053032
   145  H    0.026328
   146  H    0.041767
   147  H    0.029365
   148  H    0.020497
   149  H    0.036582
   150  H    0.025275
   151  H    0.038922
   152  H    0.066623
   153  H    0.037283
   154  H    0.055597
   155  H    0.057899
   156  H    0.070413
   157  H    0.046837
   158  H    0.060253
 Sum of Mulliken charges =  -0.00000

 Dipole moment (field-independent basis, Debye):
    X=             -8.4739    Y=              1.0663    Z=              4.8657  Tot=              9.8294
 Quadrupole moment (field-independent basis, Debye-Ang):
   XX=           -498.4812   YY=           -483.1385   ZZ=           -495.6890
   XY=             -3.0459   XZ=             10.3155   YZ=             52.6582

 Normal termination of Gaussian 16 at Mon Sep 20 09:42:53 2021.
