 Gaussian 16, Revision A.03,
 Gaussian 16:  ES64L-G16RevA.03 25-Dec-2016

 --------------------------------
 #p wB97XD/Def2SVP td=(nstates=5)
 --------------------------------

 --------------------------------
 TDDFT excited states in gaussian
 --------------------------------
 Symbolic Z-matrix:
 Charge =  0 Multiplicity = 1

                         Standard orientation:
 ---------------------------------------------------------------------
 Center     Atomic      Atomic             Coordinates (Angstroms)
 Number     Number       Type             X           Y           Z
 ---------------------------------------------------------------------
      1         12           0       28.183122    0.563969    0.647009
      2          6           0       28.799618   -2.536587   -0.827649
      3          6           0       26.257545    1.411920   -1.931752
      4          6           0       28.755463    3.835362    1.456644
      5          6           0       30.248003   -0.350787    3.299509
      6          7           0       27.456257   -0.529237   -1.116226
      7          6           0       27.825032   -1.751072   -1.481345
      8          6           0       26.975091   -2.189117   -2.728528
      9          6           0       26.263243   -0.870922   -3.116289
     10          6           0       26.687251    0.092554   -2.011833
     11          6           0       26.774083   -0.234241   -4.502728
     12          6           0       25.933299   -3.368467   -2.461822
     13          6           0       25.897154   -4.354861   -3.578346
     14          1           0       24.561396   -4.738928   -4.195990
     15          7           0       27.560348    2.360686   -0.128330
     16          6           0       26.730863    2.509082   -1.208204
     17          6           0       26.253852    3.898557   -1.245054
     18          6           0       26.992867    4.596160   -0.249200
     19          6           0       27.857324    3.579949    0.373561
     20          6           0       25.235982    4.424346   -2.306904
     21          6           0       26.980999    6.118366    0.084791
     22          8           0       27.653321    6.633912    0.970820
     23          6           0       26.080474    6.994780   -0.700835
     24          7           0       29.318842    1.577639    2.086398
     25          6           0       29.478300    2.960171    2.220209
     26          6           0       30.589945    3.255824    3.260763
     27          6           0       30.536426    1.978180    4.208176
     28          6           0       29.982388    1.023690    3.112683
     29          6           0       31.957464    3.572205    2.618003
     30          6           0       29.616435    2.040118    5.394250
     31          6           0       28.138326    1.837938    5.239556
     32          7           0       29.157433   -1.135150    1.302258
     33          6           0       29.992543   -1.368465    2.370341
     34          6           0       30.497143   -2.743451    2.382234
     35          6           0       30.131085   -3.246221    1.053282
     36          6           0       29.325720   -2.199092    0.457299
     37          6           0       31.377270   -3.328366    3.363709
     38          6           0       30.253606   -4.355635    0.115464
     39          8           0       30.864178   -5.357552    0.147041
     40          6           0       29.306680   -3.952236   -1.131425
     41          6           0       29.949798   -4.130802   -2.483486
     42          8           0       30.562914   -3.261876   -3.096456
     43          8           0       29.646440   -5.408152   -2.953593
     44          6           0       30.155037   -5.783652   -4.285295
     45          1           0       25.469581    1.797874   -2.582389
     46          1           0       28.905096    4.900601    1.646611
     47          1           0       30.804543   -0.601762    4.204495
     48          1           0       27.602051   -2.466605   -3.576257
     49          1           0       25.181223   -0.923211   -3.236976
     50          1           0       26.118064   -0.618103   -5.284267
     51          1           0       27.776891   -0.529616   -4.810247
     52          1           0       26.659514    0.848206   -4.434484
     53          1           0       24.918942   -2.989694   -2.335382
     54          1           0       26.088010   -3.933391   -1.542460
     55          1           0       26.241458   -5.273278   -3.103667
     56          1           0       26.551010   -4.183745   -4.433043
     57          1           0       25.839642    4.772634   -3.144523
     58          1           0       24.573245    5.181976   -1.888027
     59          1           0       24.691229    3.636675   -2.828489
     60          1           0       25.955249    6.869901   -1.776278
     61          1           0       26.376769    8.035202   -0.569619
     62          1           0       25.125497    7.082038   -0.181872
     63          1           0       30.202189    4.117152    3.803936
     64          1           0       31.521629    1.696221    4.579199
     65          1           0       32.805425    2.976196    2.955455
     66          1           0       32.185285    4.637591    2.577309
     67          1           0       31.922767    3.355569    1.550458
     68          1           0       29.667784    2.974309    5.952185
     69          1           0       29.946406    1.283399    6.106151
     70          1           0       28.026883    0.778148    5.468045
     71          1           0       27.739077    1.986819    4.236054
     72          1           0       27.612823    2.462533    5.962655
     73          1           0       31.068403   -4.370020    3.453080
     74          1           0       31.188346   -2.817549    4.307563
     75          1           0       32.410749   -3.273479    3.023067
     76          1           0       28.442625   -4.615937   -1.099311
     77          1           0       31.227626   -5.587788   -4.281001
     78          1           0       29.713282   -5.157503   -5.060022
     79          1           0       30.007356   -6.799768   -4.651456
     80         12           0      -29.351168   -0.185930   -0.087015
     81          6           0      -25.953306    0.139521   -0.948445
     82          6           0      -28.368654   -2.749655    2.047416
     83          6           0      -32.445322   -0.300828    1.139596
     84          6           0      -29.901403    2.918392   -1.537469
     85          7           0      -27.312980   -1.044624    0.567039
     86          6           0      -26.059233   -0.872894    0.013397
     87          6           0      -25.048711   -1.950149    0.347162
     88          6           0      -25.833618   -2.891434    1.291693
     89          6           0      -27.245661   -2.221284    1.344245
     90          6           0      -25.888115   -4.399003    0.813340
     91          6           0      -23.690662   -1.466138    1.026557
     92          6           0      -23.740645   -0.226421    1.934416
     93          1           0      -23.682501   -0.437080    3.476434
     94          7           0      -30.254178   -1.345228    1.351143
     95          6           0      -29.710556   -2.373453    2.067353
     96          6           0      -30.750352   -3.025471    2.875856
     97          6           0      -31.965145   -2.318904    2.619431
     98          6           0      -31.567770   -1.244624    1.658402
     99          6           0      -30.492044   -4.233544    3.768383
    100          6           0      -33.263646   -2.711755    3.417982
    101          8           0      -33.172598   -3.592800    4.261500
    102          6           0      -34.615718   -1.914245    3.187933
    103          7           0      -30.869714    1.164771   -0.085369
    104          6           0      -32.147812    0.832066    0.357593
    105          6           0      -33.214617    2.004180   -0.030358
    106          6           0      -32.228397    3.066078   -0.762456
    107          6           0      -30.930791    2.324713   -0.796102
    108          6           0      -34.372768    1.486755   -0.933415
    109          6           0      -32.081852    4.470182   -0.033582
    110          6           0      -32.302401    5.756468   -0.844649
    111          7           0      -28.220008    1.228577   -1.172717
    112          6           0      -28.541372    2.452767   -1.700671
    113          6           0      -27.326312    3.035279   -2.308337
    114          6           0      -26.310621    2.060558   -2.116724
    115          6           0      -26.923527    1.012644   -1.374522
    116          6           0      -27.181537    4.377902   -2.969574
    117          6           0      -24.869184    1.827224   -2.325655
    118          8           0      -23.999993    2.440869   -2.961899
    119          6           0      -24.648835    0.446220   -1.726424
    120          6           0      -24.270045   -0.525455   -2.696254
    121          8           0      -25.110259   -1.070128   -3.458275
    122          8           0      -22.887912   -0.794691   -2.645558
    123          6           0      -22.365805   -1.884871   -3.463289
    124          1           0      -28.152527   -3.665885    2.600242
    125          1           0      -33.501666   -0.401783    1.395640
    126          1           0      -30.171139    3.859514   -2.020269
    127          1           0      -24.840916   -2.387648   -0.628586
    128          1           0      -25.419669   -2.718027    2.284351
    129          1           0      -25.293878   -5.014992    1.488221
    130          1           0      -25.474171   -4.407160   -0.195325
    131          1           0      -26.908673   -4.783172    0.822391
    132          1           0      -23.100541   -1.202368    0.147982
    133          1           0      -23.221858   -2.313252    1.527802
    134          1           0      -24.631884    0.366346    1.725784
    135          1           0      -22.926784    0.436788    1.644346
    136          1           0      -30.432051   -4.010223    4.833596
    137          1           0      -29.686348   -4.850231    3.369875
    138          1           0      -31.295690   -4.963325    3.671604
    139          1           0      -34.761200   -1.846858    2.109521
    140          1           0      -34.492930   -0.930409    3.640020
    141          1           0      -35.453755   -2.282225    3.779865
    142          1           0      -33.698254    2.285981    0.904468
    143          1           0      -32.584925    3.173217   -1.787162
    144          1           0      -34.091655    1.683820   -1.967730
    145          1           0      -35.343112    1.897637   -0.654414
    146          1           0      -34.576525    0.421133   -0.829674
    147          1           0      -31.099564    4.471937    0.439955
    148          1           0      -32.869440    4.402967    0.716933
    149          1           0      -31.850273    6.625418   -0.365729
    150          1           0      -33.389215    5.835452   -0.858441
    151          1           0      -31.844196    5.542563   -1.810483
    152          1           0      -27.959790    4.984107   -2.506746
    153          1           0      -27.476523    4.161600   -3.996347
    154          1           0      -26.171817    4.789507   -2.973356
    155          1           0      -23.841733    0.646313   -1.022035
    156          1           0      -22.426218   -1.773161   -4.545898
    157          1           0      -22.863444   -2.818558   -3.199571
    158          1           0      -21.356606   -2.082056   -3.101345
 ---------------------------------------------------------------------

 SCF Done:  E(RwB97XD) =  -4070.61067978     A.U. after   18 cycles

 Excitation energies and oscillator strengths:

 Excited State   1:      Singlet-A      1.6238 eV  763.56 nm  f=0.3755  <S**2>=0.000
     310 -> 316       -0.18260
     312 -> 313        0.68420
     310 <- 316       -0.11752
 This state for optimization and/or second-order correction.
 Total Energy, E(TD-HF/TD-DFT) =  -4070.55100721
 Copying the excited state density for this state as the 1-particle RhoCI density.

 Excited State   2:      Singlet-A      1.6637 eV  745.25 nm  f=0.3760  <S**2>=0.000
     309 -> 315       -0.18690
     311 -> 314        0.68287
     309 <- 315       -0.11707

 Excited State   3:      Singlet-A      2.2000 eV  563.57 nm  f=0.1020  <S**2>=0.000
     310 -> 313        0.63113
     312 -> 316        0.30770

 Excited State   4:      Singlet-A      2.2612 eV  548.31 nm  f=0.0697  <S**2>=0.000
     309 -> 314        0.61504
     311 -> 315        0.33675

 Excited State   5:      Singlet-A      3.3922 eV  365.49 nm  f=0.0179  <S**2>=0.000
     308 -> 313        0.66084
     312 -> 316       -0.17978

 The electronic state is 1-A.
 Alpha  occ. eigenvalues --  -46.95305 -46.94260 -19.31046 -19.30268 -19.25223
 Alpha  occ. eigenvalues --  -19.25046 -19.24753 -19.24664 -19.24280 -19.24177
 Alpha  occ. eigenvalues --  -14.47310 -14.46760 -14.46677 -14.46021 -14.44584
 Alpha  occ. eigenvalues --  -14.43918 -14.43904 -14.43791 -10.43913 -10.43558
 Alpha  occ. eigenvalues --  -10.40528 -10.39590 -10.39548 -10.39408 -10.35994
 Alpha  occ. eigenvalues --  -10.35869 -10.35546 -10.35443 -10.35363 -10.35028
 Alpha  occ. eigenvalues --  -10.34639 -10.34612 -10.34604 -10.34558 -10.34126
 Alpha  occ. eigenvalues --  -10.34019 -10.33919 -10.33876 -10.33801 -10.33528
 Alpha  occ. eigenvalues --  -10.33384 -10.33372 -10.32993 -10.32907 -10.32844
 Alpha  occ. eigenvalues --  -10.32581 -10.32540 -10.32463 -10.32380 -10.32374
 Alpha  occ. eigenvalues --  -10.32369 -10.32354 -10.32285 -10.32228 -10.32151
 Alpha  occ. eigenvalues --  -10.31930 -10.31907 -10.31827 -10.31703 -10.31635
 Alpha  occ. eigenvalues --  -10.31609 -10.31463 -10.31381 -10.31273 -10.31142
 Alpha  occ. eigenvalues --  -10.31043 -10.30820 -10.30776 -10.30734 -10.30701
 Alpha  occ. eigenvalues --  -10.30686 -10.30506 -10.30461 -10.30184 -10.30155
 Alpha  occ. eigenvalues --  -10.29975 -10.29880 -10.29790 -10.29721 -10.29659
 Alpha  occ. eigenvalues --  -10.29472 -10.29440 -10.29378 -10.29366 -10.29249
 Alpha  occ. eigenvalues --  -10.28357  -3.21371  -3.20380  -1.94916  -1.94510
 Alpha  occ. eigenvalues --   -1.94346  -1.93978  -1.93483  -1.93384  -1.17332
 Alpha  occ. eigenvalues --   -1.17165  -1.15225  -1.12664  -1.12341  -1.11315
 Alpha  occ. eigenvalues --   -1.09663  -1.09240  -1.07166  -1.06173  -1.05617
 Alpha  occ. eigenvalues --   -1.05569  -1.04892  -1.04627  -1.04174  -1.03923
 Alpha  occ. eigenvalues --   -0.95152  -0.93853  -0.91078  -0.90887  -0.90736
 Alpha  occ. eigenvalues --   -0.90464  -0.89974  -0.89942  -0.89138  -0.88815
 Alpha  occ. eigenvalues --   -0.88745  -0.88209  -0.88034  -0.87558  -0.86481
 Alpha  occ. eigenvalues --   -0.86054  -0.85805  -0.85487  -0.84708  -0.84444
 Alpha  occ. eigenvalues --   -0.83761  -0.83593  -0.82973  -0.82951  -0.82329
 Alpha  occ. eigenvalues --   -0.82066  -0.80186  -0.80115  -0.79178  -0.79163
 Alpha  occ. eigenvalues --   -0.78718  -0.78676  -0.78466  -0.77757  -0.76881
 Alpha  occ. eigenvalues --   -0.76783  -0.74342  -0.74250  -0.73749  -0.73430
 Alpha  occ. eigenvalues --   -0.71256  -0.71137  -0.70892  -0.70504  -0.70388
 Alpha  occ. eigenvalues --   -0.69678  -0.68845  -0.68697  -0.67711  -0.67636
 Alpha  occ. eigenvalues --   -0.67209  -0.66612  -0.66603  -0.66239  -0.66206
 Alpha  occ. eigenvalues --   -0.66032  -0.64455  -0.63804  -0.62261  -0.62130
 Alpha  occ. eigenvalues --   -0.61621  -0.61543  -0.61048  -0.60874  -0.60666
 Alpha  occ. eigenvalues --   -0.60097  -0.59752  -0.59741  -0.59221  -0.59207
 Alpha  occ. eigenvalues --   -0.58131  -0.57787  -0.57553  -0.57478  -0.57296
 Alpha  occ. eigenvalues --   -0.56901  -0.56753  -0.56385  -0.56170  -0.56051
 Alpha  occ. eigenvalues --   -0.55735  -0.55517  -0.55307  -0.55008  -0.54860
 Alpha  occ. eigenvalues --   -0.54517  -0.54425  -0.54321  -0.54088  -0.54076
 Alpha  occ. eigenvalues --   -0.53697  -0.53546  -0.53504  -0.53305  -0.53203
 Alpha  occ. eigenvalues --   -0.53175  -0.52904  -0.52675  -0.52328  -0.52256
 Alpha  occ. eigenvalues --   -0.52119  -0.52006  -0.51964  -0.51546  -0.51428
 Alpha  occ. eigenvalues --   -0.51339  -0.51273  -0.51203  -0.51042  -0.50924
 Alpha  occ. eigenvalues --   -0.50521  -0.50497  -0.50284  -0.50225  -0.50093
 Alpha  occ. eigenvalues --   -0.49897  -0.49722  -0.49289  -0.49211  -0.48888
 Alpha  occ. eigenvalues --   -0.48768  -0.48570  -0.48507  -0.48397  -0.48186
 Alpha  occ. eigenvalues --   -0.48182  -0.48101  -0.48037  -0.47743  -0.47700
 Alpha  occ. eigenvalues --   -0.47417  -0.47314  -0.47127  -0.46916  -0.46867
 Alpha  occ. eigenvalues --   -0.46743  -0.46590  -0.46547  -0.46485  -0.46273
 Alpha  occ. eigenvalues --   -0.46139  -0.46091  -0.45890  -0.45650  -0.45256
 Alpha  occ. eigenvalues --   -0.45196  -0.45176  -0.45035  -0.44901  -0.44708
 Alpha  occ. eigenvalues --   -0.44666  -0.44587  -0.44374  -0.44195  -0.44067
 Alpha  occ. eigenvalues --   -0.43782  -0.43566  -0.43509  -0.43439  -0.43356
 Alpha  occ. eigenvalues --   -0.43080  -0.42977  -0.42506  -0.42376  -0.42164
 Alpha  occ. eigenvalues --   -0.42111  -0.41780  -0.41616  -0.41034  -0.40862
 Alpha  occ. eigenvalues --   -0.40589  -0.39953  -0.39619  -0.39597  -0.39481
 Alpha  occ. eigenvalues --   -0.39175  -0.39005  -0.38939  -0.38660  -0.38648
 Alpha  occ. eigenvalues --   -0.38593  -0.37836  -0.36760  -0.36421  -0.36332
 Alpha  occ. eigenvalues --   -0.36274  -0.35493  -0.35060  -0.33555  -0.33396
 Alpha  occ. eigenvalues --   -0.33273  -0.33254  -0.33125  -0.33037  -0.32463
 Alpha  occ. eigenvalues --   -0.32183  -0.31784  -0.31762  -0.26088  -0.25901
 Alpha  occ. eigenvalues --   -0.22655  -0.22581
 Alpha virt. eigenvalues --   -0.06807  -0.06525   0.00095   0.00542   0.02323
 Alpha virt. eigenvalues --    0.02487   0.04087   0.04544   0.04905   0.05560
 Alpha virt. eigenvalues --    0.05915   0.06734   0.07473   0.07785   0.08079

 Mulliken charges:
               1
     1  Mg   0.983778
     2  C    0.016664
     3  C   -0.089925
     4  C   -0.082484
     5  C   -0.106068
     6  N   -0.316909
     7  C    0.009816
     8  C   -0.040669
     9  C   -0.128931
    10  C    0.104228
    11  C   -0.004728
    12  C    0.028234
    13  C   -0.147850
    14  H    0.026097
    15  N   -0.452994
    16  C    0.111775
    17  C   -0.155665
    18  C   -0.103406
    19  C    0.123576
    20  C    0.045839
    21  C    0.084817
    22  O   -0.233046
    23  C   -0.023516
    24  N   -0.364496
    25  C    0.051394
    26  C   -0.052972
    27  C   -0.060191
    28  C    0.046817
    29  C    0.044652
    30  C   -0.025408
    31  C   -0.034973
    32  N   -0.448151
    33  C    0.163697
    34  C   -0.168917
    35  C   -0.084412
    36  C    0.117494
    37  C    0.077002
    38  C    0.137620
    39  O   -0.142209
    40  C   -0.138913
    41  C    0.283358
    42  O   -0.249095
    43  O   -0.383358
    44  C    0.147023
    45  H   -0.013059
    46  H    0.021639
    47  H   -0.009720
    48  H    0.043037
    49  H    0.044052
    50  H    0.031219
    51  H    0.051231
    52  H    0.038067
    53  H    0.037907
    54  H    0.036929
    55  H    0.053915
    56  H    0.051444
    57  H    0.057682
    58  H    0.063546
    59  H    0.032699
    60  H    0.059369
    61  H    0.038692
    62  H    0.062607
    63  H    0.024383
    64  H    0.023871
    65  H    0.039145
    66  H    0.044482
    67  H    0.032102
    68  H    0.026712
    69  H    0.023440
    70  H    0.026958
    71  H    0.051714
    72  H    0.040161
    73  H    0.057372
    74  H    0.036663
    75  H    0.074600
    76  H    0.075964
    77  H    0.054246
    78  H    0.040559
    79  H    0.061774
    80  Mg   0.987048
    81  C   -0.108926
    82  C   -0.085541
    83  C   -0.110606
    84  C   -0.096035
    85  N   -0.341908
    86  C   -0.038051
    87  C   -0.062663
    88  C   -0.058505
    89  C    0.026519
    90  C    0.027364
    91  C   -0.014912
    92  C   -0.118747
    93  H    0.036883
    94  N   -0.448550
    95  C    0.153457
    96  C   -0.157672
    97  C   -0.113567
    98  C    0.206811
    99  C    0.095263
   100  C    0.069639
   101  O   -0.226510
   102  C   -0.026183
   103  N   -0.421859
   104  C    0.079414
   105  C   -0.103148
   106  C   -0.075614
   107  C    0.085714
   108  C    0.009841
   109  C   -0.024319
   110  C   -0.038127
   111  N   -0.406658
   112  C    0.119728
   113  C   -0.211641
   114  C   -0.096356
   115  C    0.263395
   116  C    0.092504
   117  C    0.145490
   118  O   -0.217884
   119  C   -0.059570
   120  C    0.315920
   121  O   -0.277628
   122  O   -0.382231
   123  C    0.152233
   124  H   -0.009133
   125  H   -0.035038
   126  H   -0.015869
   127  H    0.049480
   128  H    0.045646
   129  H    0.043689
   130  H    0.040413
   131  H    0.046398
   132  H    0.038204
   133  H    0.048312
   134  H    0.063097
   135  H    0.056398
   136  H    0.065410
   137  H    0.023054
   138  H    0.044134
   139  H    0.073653
   140  H    0.060932
   141  H    0.052795
   142  H    0.044439
   143  H    0.036134
   144  H    0.037591
   145  H    0.038526
   146  H    0.031784
   147  H    0.048511
   148  H    0.025125
   149  H    0.051615
   150  H    0.041630
   151  H    0.037705
   152  H    0.034756
   153  H    0.054941
   154  H    0.066666
   155  H    0.059836
   156  H    0.069367
   157  H    0.033791
   158  H    0.052199
 Sum of Mulliken charges =  -0.00000

 Dipole moment (field-independent basis, Debye):
    X=             -5.7408    Y=             -0.1029    Z=             -0.3719  Tot=              5.7538
 Quadrupole moment (field-independent basis, Debye-Ang):
   XX=           -540.1090   YY=           -517.8002   ZZ=           -504.8752
   XY=              3.6826   XZ=              4.5705   YZ=             11.1764

 Normal termination of Gaussian 16 at Sat Sep 18 20:45:07 2021.
