 Gaussian 16, Revision A.03,
 Gaussian 16:  ES64L-G16RevA.03 25-Dec-2016

 --------------------------------
 #p wB97XD/Def2SVP td=(nstates=5)
 --------------------------------

 --------------------------------
 TDDFT excited states in gaussian
 --------------------------------
 Symbolic Z-matrix:
 Charge =  0 Multiplicity = 1

                         Standard orientation:
 ---------------------------------------------------------------------
 Center     Atomic      Atomic             Coordinates (Angstroms)
 Number     Number       Type             X           Y           Z
 ---------------------------------------------------------------------
      1         12           0      -26.183656   -0.406170   -0.260517
      2          6           0      -24.348494    2.399900   -0.724057
      3          6           0      -27.425397    0.896576    2.710287
      4          6           0      -28.014293   -3.215556    0.205944
      5          6           0      -24.584024   -1.897413   -2.943876
      6          7           0      -25.965437    1.442229    0.724041
      7          6           0      -25.140007    2.471052    0.405330
      8          6           0      -25.381838    3.688555    1.258914
      9          6           0      -26.151811    3.106192    2.504508
     10          6           0      -26.572201    1.715964    1.924596
     11          6           0      -25.454052    3.058697    3.927757
     12          6           0      -26.289329    4.765368    0.510122
     13          6           0      -26.075850    6.208080    1.055871
     14          1           0      -25.618660    6.470664    2.500576
     15          7           0      -27.498949   -1.148013    1.291272
     16          6           0      -27.873298   -0.400709    2.438702
     17          6           0      -28.797164   -1.163246    3.223115
     18          6           0      -28.982827   -2.403441    2.514314
     19          6           0      -28.145437   -2.259833    1.270104
     20          6           0      -29.468824   -0.672575    4.457556
     21          6           0      -29.849249   -3.603959    2.878254
     22          8           0      -29.874199   -4.710136    2.263003
     23          6           0      -30.764302   -3.522351    4.088303
     24          7           0      -26.243461   -2.303853   -1.173929
     25          6           0      -27.230568   -3.258939   -0.925730
     26          6           0      -27.352103   -4.363968   -2.014496
     27          6           0      -26.212498   -3.823222   -3.047294
     28          6           0      -25.655142   -2.607206   -2.402812
     29          6           0      -27.041446   -5.726596   -1.381898
     30          6           0      -26.698589   -3.615396   -4.451377
     31          6           0      -25.909155   -4.376612   -5.477682
     32          7           0      -24.728911   -0.014580   -1.509821
     33          6           0      -24.159790   -0.669706   -2.594801
     34          6           0      -23.157739    0.139444   -3.183118
     35          6           0      -23.129878    1.369580   -2.472739
     36          6           0      -24.173098    1.284385   -1.526710
     37          6           0      -22.293169   -0.146015   -4.350572
     38          6           0      -22.421627    2.619296   -2.302376
     39          8           0      -21.445286    3.131729   -2.813875
     40          6           0      -23.286030    3.353051   -1.170590
     41          6           0      -22.436566    4.086843   -0.196344
     42          8           0      -21.416929    3.692449    0.309234
     43          8           0      -22.888314    5.320281    0.078906
     44          6           0      -22.062455    6.073096    1.065436
     45          1           0      -27.614690    1.319932    3.699046
     46          1           0      -28.505611   -4.162403    0.439127
     47          1           0      -24.114118   -2.248517   -3.864865
     48          1           0      -24.460863    4.091598    1.679841
     49          1           0      -27.087798    3.653327    2.612398
     50          1           0      -24.496366    3.570923    3.834489
     51          1           0      -25.290593    2.081092    4.378489
     52          1           0      -26.128934    3.563967    4.618914
     53          1           0      -27.306359    4.397030    0.645715
     54          1           0      -26.021583    4.732261   -0.546035
     55          1           0      -27.052805    6.662387    0.889736
     56          1           0      -25.424269    6.708159    0.339794
     57          1           0      -30.346914   -0.045474    4.302951
     58          1           0      -28.693519   -0.150409    5.016817
     59          1           0      -29.683708   -1.465647    5.173154
     60          1           0      -30.140157   -3.760815    4.949378
     61          1           0      -31.493980   -4.317913    3.939487
     62          1           0      -31.216448   -2.541851    4.238621
     63          1           0      -28.396550   -4.363092   -2.326542
     64          1           0      -25.421778   -4.571703   -3.108768
     65          1           0      -26.657870   -5.701982   -0.361701
     66          1           0      -26.426832   -6.303431   -2.072586
     67          1           0      -28.003508   -6.229099   -1.277661
     68          1           0      -26.618821   -2.580909   -4.785666
     69          1           0      -27.748759   -3.860444   -4.610608
     70          1           0      -26.536112   -4.932510   -6.174235
     71          1           0      -25.242422   -5.100170   -5.009357
     72          1           0      -25.258192   -3.623474   -5.922648
     73          1           0      -22.031725   -1.192740   -4.508687
     74          1           0      -21.319401    0.228156   -4.033236
     75          1           0      -22.722570    0.296494   -5.249470
     76          1           0      -23.744373    4.094737   -1.825395
     77          1           0      -21.152531    6.474629    0.617182
     78          1           0      -21.907903    5.507104    1.984211
     79          1           0      -22.634068    6.942524    1.391096
     80         12           0       25.422682   -0.795371    0.058044
     81          6           0       26.306572    2.425449   -0.981529
     82          6           0       24.660327    0.349970    3.037432
     83          6           0       25.305789   -4.025182    1.223574
     84          6           0       26.721745   -2.085251   -2.960922
     85          7           0       25.398752    1.162890    0.836486
     86          6           0       25.725842    2.374274    0.267906
     87          6           0       25.338419    3.542883    1.164827
     88          6           0       25.032969    2.814079    2.512669
     89          6           0       24.921349    1.388089    2.098578
     90          6           0       25.913675    3.066657    3.717276
     91          6           0       24.198592    4.452050    0.604068
     92          6           0       23.821811    5.646014    1.487955
     93          1           0       23.806755    7.004945    0.803427
     94          7           0       25.076538   -1.748440    1.992795
     95          6           0       24.630894   -1.064456    3.067172
     96          6           0       24.279809   -1.992622    4.106020
     97          6           0       24.569692   -3.280086    3.622359
     98          6           0       25.020772   -3.046493    2.223495
     99          6           0       23.766919   -1.578977    5.469256
    100          6           0       24.375348   -4.611514    4.270812
    101          8           0       24.789281   -5.719370    3.835873
    102          6           0       23.574734   -4.723432    5.562502
    103          7           0       25.959793   -2.728348   -0.735469
    104          6           0       25.876696   -3.879510   -0.028670
    105          6           0       26.142035   -5.141800   -1.013324
    106          6           0       26.124021   -4.460115   -2.426464
    107          6           0       26.204879   -3.010441   -2.069983
    108          6           0       27.506504   -5.828155   -0.613983
    109          6           0       24.736771   -4.677241   -3.134214
    110          6           0       23.457617   -4.329761   -2.388707
    111          7           0       26.308658   -0.004760   -1.726480
    112          6           0       26.760142   -0.681004   -2.826449
    113          6           0       27.238065    0.269071   -3.719883
    114          6           0       27.134838    1.545667   -3.096056
    115          6           0       26.559095    1.325337   -1.872461
    116          6           0       27.876923    0.067351   -5.048604
    117          6           0       27.386833    3.001853   -3.185529
    118          8           0       27.924948    3.715625   -4.024166
    119          6           0       26.752748    3.639634   -1.830651
    120          6           0       27.695764    4.615492   -1.222210
    121          8           0       28.957243    4.498834   -1.221648
    122          8           0       26.978053    5.669154   -0.856860
    123          6           0       27.754959    6.880877   -0.678490
    124          1           0       24.285586    0.685859    4.006682
    125          1           0       25.239457   -5.060205    1.567253
    126          1           0       26.993248   -2.507354   -3.929758
    127          1           0       26.218497    4.186142    1.152912
    128          1           0       24.040161    3.040787    2.902821
    129          1           0       26.517024    3.974326    3.704281
    130          1           0       26.553679    2.198726    3.878252
    131          1           0       25.283417    2.950435    4.599183
    132          1           0       23.315805    3.846489    0.397322
    133          1           0       24.499530    4.836286   -0.370013
    134          1           0       24.642337    5.924489    2.148995
    135          1           0       22.903364    5.453953    2.043418
    136          1           0       23.796133   -0.506964    5.663926
    137          1           0       24.371218   -1.894561    6.319393
    138          1           0       22.746469   -1.908295    5.667449
    139          1           0       24.155622   -4.254143    6.356017
    140          1           0       23.562076   -5.742797    5.947629
    141          1           0       22.545709   -4.376115    5.463054
    142          1           0       25.360520   -5.887765   -0.868763
    143          1           0       27.033458   -4.808488   -2.915974
    144          1           0       27.885907   -5.509856    0.357176
    145          1           0       28.325138   -5.629519   -1.305899
    146          1           0       27.432861   -6.908344   -0.496480
    147          1           0       24.810820   -5.748406   -3.322173
    148          1           0       24.636958   -4.185218   -4.101240
    149          1           0       23.674004   -4.152687   -1.334960
    150          1           0       22.618465   -5.011921   -2.520628
    151          1           0       23.119640   -3.436529   -2.914129
    152          1           0       27.284586   -0.524699   -5.746706
    153          1           0       28.783890   -0.499387   -4.840079
    154          1           0       28.167201    1.005498   -5.520479
    155          1           0       25.884309    4.190778   -2.190499
    156          1           0       27.232111    7.728339   -1.123582
    157          1           0       28.742397    6.894028   -1.139274
    158          1           0       27.827484    7.031633    0.399090
 ---------------------------------------------------------------------

 SCF Done:  E(RwB97XD) =  -4070.62254146     A.U. after   19 cycles

 Excitation energies and oscillator strengths:

 Excited State   1:      Singlet-A      1.5874 eV  781.05 nm  f=0.3891  <S**2>=0.000
     309 -> 315       -0.17574
     312 -> 314        0.68655
     309 <- 315       -0.11663
 This state for optimization and/or second-order correction.
 Total Energy, E(TD-HF/TD-DFT) =  -4070.56420554
 Copying the excited state density for this state as the 1-particle RhoCI density.

 Excited State   2:      Singlet-A      1.6681 eV  743.28 nm  f=0.3918  <S**2>=0.000
     310 -> 316       -0.17128
     311 -> 313        0.68673
     310 <- 316       -0.11162

 Excited State   3:      Singlet-A      2.0911 eV  592.91 nm  f=0.1648  <S**2>=0.000
     310 -> 313        0.66094
     311 -> 316        0.23075

 Excited State   4:      Singlet-A      2.1692 eV  571.57 nm  f=0.1097  <S**2>=0.000
     309 -> 314        0.63605
     312 -> 315        0.29408

 Excited State   5:      Singlet-A      3.0725 eV  403.53 nm  f=0.0090  <S**2>=0.000
     308 -> 313        0.67869

 The electronic state is 1-A.
 Alpha  occ. eigenvalues --  -46.95708 -46.93532 -19.31842 -19.30398 -19.24307
 Alpha  occ. eigenvalues --  -19.24213 -19.24008 -19.23721 -19.23576 -19.23447
 Alpha  occ. eigenvalues --  -14.47504 -14.47485 -14.46407 -14.46323 -14.44356
 Alpha  occ. eigenvalues --  -14.44136 -14.43430 -14.42581 -10.43058 -10.42444
 Alpha  occ. eigenvalues --  -10.39794 -10.39244 -10.39200 -10.38816 -10.36193
 Alpha  occ. eigenvalues --  -10.35842 -10.35726 -10.35407 -10.35157 -10.34996
 Alpha  occ. eigenvalues --  -10.34975 -10.34868 -10.34742 -10.34735 -10.34542
 Alpha  occ. eigenvalues --  -10.34146 -10.34044 -10.33992 -10.33923 -10.33356
 Alpha  occ. eigenvalues --  -10.33207 -10.32988 -10.32917 -10.32861 -10.32583
 Alpha  occ. eigenvalues --  -10.32373 -10.32346 -10.32343 -10.32341 -10.32331
 Alpha  occ. eigenvalues --  -10.32212 -10.32128 -10.32124 -10.31939 -10.31933
 Alpha  occ. eigenvalues --  -10.31880 -10.31834 -10.31809 -10.31799 -10.31787
 Alpha  occ. eigenvalues --  -10.31786 -10.31784 -10.31625 -10.31615 -10.31566
 Alpha  occ. eigenvalues --  -10.31166 -10.31014 -10.30705 -10.30489 -10.30435
 Alpha  occ. eigenvalues --  -10.30404 -10.30371 -10.30207 -10.30034 -10.29996
 Alpha  occ. eigenvalues --  -10.29736 -10.29654 -10.29521 -10.29521 -10.29468
 Alpha  occ. eigenvalues --  -10.29350 -10.29305 -10.29232 -10.28939 -10.28690
 Alpha  occ. eigenvalues --  -10.28250  -3.21554  -3.19782  -1.95149  -1.94645
 Alpha  occ. eigenvalues --   -1.94533  -1.93372  -1.92896  -1.92804  -1.20273
 Alpha  occ. eigenvalues --   -1.19504  -1.12412  -1.10978  -1.10634  -1.09648
 Alpha  occ. eigenvalues --   -1.09478  -1.08085  -1.07495  -1.06545  -1.06373
 Alpha  occ. eigenvalues --   -1.05628  -1.05310  -1.04753  -1.04452  -1.03448
 Alpha  occ. eigenvalues --   -0.95383  -0.93776  -0.91607  -0.91477  -0.91183
 Alpha  occ. eigenvalues --   -0.90752  -0.90471  -0.90336  -0.89960  -0.89620
 Alpha  occ. eigenvalues --   -0.89195  -0.89047  -0.88385  -0.87578  -0.86703
 Alpha  occ. eigenvalues --   -0.86261  -0.85747  -0.85658  -0.84757  -0.84405
 Alpha  occ. eigenvalues --   -0.83802  -0.83614  -0.83288  -0.83029  -0.82623
 Alpha  occ. eigenvalues --   -0.82490  -0.80868  -0.80333  -0.79733  -0.79486
 Alpha  occ. eigenvalues --   -0.79297  -0.79246  -0.78489  -0.78046  -0.77181
 Alpha  occ. eigenvalues --   -0.77172  -0.74903  -0.74706  -0.73841  -0.73702
 Alpha  occ. eigenvalues --   -0.71870  -0.71101  -0.71075  -0.70615  -0.70345
 Alpha  occ. eigenvalues --   -0.70169  -0.69675  -0.68705  -0.67812  -0.67449
 Alpha  occ. eigenvalues --   -0.67328  -0.67188  -0.66800  -0.66664  -0.66497
 Alpha  occ. eigenvalues --   -0.66109  -0.64688  -0.64354  -0.63064  -0.62357
 Alpha  occ. eigenvalues --   -0.61913  -0.61730  -0.61211  -0.60962  -0.60524
 Alpha  occ. eigenvalues --   -0.60390  -0.59991  -0.59745  -0.59502  -0.59231
 Alpha  occ. eigenvalues --   -0.58210  -0.58103  -0.57946  -0.57711  -0.57383
 Alpha  occ. eigenvalues --   -0.57366  -0.57275  -0.57182  -0.57012  -0.56327
 Alpha  occ. eigenvalues --   -0.55883  -0.55307  -0.55232  -0.55089  -0.54983
 Alpha  occ. eigenvalues --   -0.54889  -0.54834  -0.54481  -0.54456  -0.54388
 Alpha  occ. eigenvalues --   -0.54131  -0.53930  -0.53633  -0.53503  -0.53271
 Alpha  occ. eigenvalues --   -0.53109  -0.52901  -0.52507  -0.52408  -0.52262
 Alpha  occ. eigenvalues --   -0.52041  -0.52024  -0.51951  -0.51625  -0.51518
 Alpha  occ. eigenvalues --   -0.51062  -0.50970  -0.50822  -0.50807  -0.50483
 Alpha  occ. eigenvalues --   -0.50437  -0.50335  -0.50248  -0.50160  -0.50005
 Alpha  occ. eigenvalues --   -0.49927  -0.49777  -0.49280  -0.49205  -0.49153
 Alpha  occ. eigenvalues --   -0.49122  -0.48681  -0.48658  -0.48567  -0.48435
 Alpha  occ. eigenvalues --   -0.48324  -0.48275  -0.47867  -0.47866  -0.47754
 Alpha  occ. eigenvalues --   -0.47350  -0.47171  -0.47070  -0.46875  -0.46735
 Alpha  occ. eigenvalues --   -0.46608  -0.46500  -0.46339  -0.46195  -0.46021
 Alpha  occ. eigenvalues --   -0.45852  -0.45787  -0.45628  -0.45489  -0.45343
 Alpha  occ. eigenvalues --   -0.45232  -0.45147  -0.45137  -0.44815  -0.44556
 Alpha  occ. eigenvalues --   -0.44391  -0.44303  -0.44278  -0.44008  -0.43984
 Alpha  occ. eigenvalues --   -0.43863  -0.43801  -0.43364  -0.43356  -0.43134
 Alpha  occ. eigenvalues --   -0.42977  -0.42860  -0.42757  -0.42526  -0.42373
 Alpha  occ. eigenvalues --   -0.42350  -0.42303  -0.41948  -0.41507  -0.41123
 Alpha  occ. eigenvalues --   -0.40600  -0.40231  -0.39908  -0.39838  -0.39659
 Alpha  occ. eigenvalues --   -0.39360  -0.39196  -0.39011  -0.38856  -0.38669
 Alpha  occ. eigenvalues --   -0.38557  -0.38326  -0.36646  -0.36232  -0.36114
 Alpha  occ. eigenvalues --   -0.35937  -0.35457  -0.35033  -0.34152  -0.33708
 Alpha  occ. eigenvalues --   -0.33171  -0.32953  -0.32842  -0.32667  -0.32160
 Alpha  occ. eigenvalues --   -0.32065  -0.31781  -0.30619  -0.26257  -0.25978
 Alpha  occ. eigenvalues --   -0.23582  -0.22861
 Alpha virt. eigenvalues --   -0.07710  -0.07349   0.00271   0.00655   0.01994
 Alpha virt. eigenvalues --    0.02143   0.04312   0.04544   0.04955   0.06100
 Alpha virt. eigenvalues --    0.06630   0.07156   0.07412   0.07824   0.08003

 Mulliken charges:
               1
     1  Mg   0.985425
     2  C    0.012818
     3  C   -0.095374
     4  C   -0.062453
     5  C   -0.128110
     6  N   -0.378432
     7  C   -0.008439
     8  C   -0.043381
     9  C   -0.122048
    10  C    0.057938
    11  C    0.021186
    12  C    0.005390
    13  C   -0.092442
    14  H    0.043431
    15  N   -0.389528
    16  C    0.164112
    17  C   -0.155468
    18  C   -0.073781
    19  C    0.099979
    20  C    0.064933
    21  C    0.052962
    22  O   -0.274727
    23  C   -0.022244
    24  N   -0.392021
    25  C    0.057958
    26  C   -0.092068
    27  C   -0.027233
    28  C    0.108884
    29  C    0.008986
    30  C   -0.008514
    31  C   -0.062959
    32  N   -0.527490
    33  C    0.189822
    34  C   -0.191415
    35  C   -0.054999
    36  C    0.141544
    37  C    0.072781
    38  C    0.153084
    39  O   -0.183141
    40  C   -0.107255
    41  C    0.224620
    42  O   -0.229928
    43  O   -0.358838
    44  C    0.140867
    45  H   -0.003530
    46  H    0.017285
    47  H   -0.016870
    48  H    0.024537
    49  H    0.035452
    50  H    0.042308
    51  H    0.048417
    52  H    0.037253
    53  H    0.035731
    54  H    0.041456
    55  H    0.044255
    56  H    0.060613
    57  H    0.073845
    58  H    0.034814
    59  H    0.031893
    60  H    0.066663
    61  H    0.059225
    62  H    0.050482
    63  H    0.056063
    64  H    0.035261
    65  H    0.060706
    66  H    0.037239
    67  H    0.041391
    68  H    0.033228
    69  H    0.028313
    70  H    0.043833
    71  H    0.022308
    72  H    0.037624
    73  H    0.026934
    74  H    0.061459
    75  H    0.068399
    76  H    0.069235
    77  H    0.070798
    78  H    0.058546
    79  H    0.040403
    80  Mg   0.940741
    81  C    0.025490
    82  C   -0.076086
    83  C   -0.054424
    84  C   -0.071336
    85  N   -0.396500
    86  C   -0.020281
    87  C   -0.029476
    88  C   -0.089388
    89  C    0.104757
    90  C    0.044358
    91  C    0.022475
    92  C   -0.128876
    93  H    0.030697
    94  N   -0.379676
    95  C    0.094754
    96  C   -0.112277
    97  C   -0.048686
    98  C    0.101649
    99  C    0.053436
   100  C    0.041246
   101  O   -0.259339
   102  C   -0.009067
   103  N   -0.351497
   104  C    0.069202
   105  C   -0.145233
   106  C   -0.029850
   107  C    0.038965
   108  C    0.014272
   109  C   -0.014315
   110  C   -0.051436
   111  N   -0.418340
   112  C    0.151774
   113  C   -0.204257
   114  C   -0.041182
   115  C    0.088508
   116  C    0.077116
   117  C    0.161925
   118  O   -0.201881
   119  C   -0.129148
   120  C    0.263411
   121  O   -0.280601
   122  O   -0.330296
   123  C    0.127195
   124  H   -0.027662
   125  H    0.024830
   126  H   -0.001104
   127  H    0.031547
   128  H    0.031558
   129  H    0.056302
   130  H    0.033575
   131  H    0.025682
   132  H    0.024449
   133  H    0.044918
   134  H    0.046494
   135  H    0.062200
   136  H    0.028518
   137  H    0.048625
   138  H    0.055055
   139  H    0.043755
   140  H    0.044659
   141  H    0.064213
   142  H    0.043788
   143  H    0.030737
   144  H    0.043528
   145  H    0.032442
   146  H    0.040110
   147  H    0.029591
   148  H    0.030956
   149  H    0.055287
   150  H    0.043847
   151  H    0.033839
   152  H    0.035256
   153  H    0.042845
   154  H    0.057957
   155  H    0.082040
   156  H    0.053498
   157  H    0.078567
   158  H    0.049575
 Sum of Mulliken charges =  -0.00000

 Dipole moment (field-independent basis, Debye):
    X=             -9.5857    Y=              2.1888    Z=              5.7299  Tot=             11.3802
 Quadrupole moment (field-independent basis, Debye-Ang):
   XX=           -593.3093   YY=           -497.7114   ZZ=           -472.3361
   XY=            -77.6715   XZ=             77.3149   YZ=             59.8212

 Normal termination of Gaussian 16 at Sun Sep 19 22:32:33 2021.
