 Gaussian 16, Revision A.03,
 Gaussian 16:  ES64L-G16RevA.03 25-Dec-2016

 --------------------------------
 #p wB97XD/Def2SVP td=(nstates=5)
 --------------------------------

 --------------------------------
 TDDFT excited states in gaussian
 --------------------------------
 Symbolic Z-matrix:
 Charge =  0 Multiplicity = 1

                         Standard orientation:
 ---------------------------------------------------------------------
 Center     Atomic      Atomic             Coordinates (Angstroms)
 Number     Number       Type             X           Y           Z
 ---------------------------------------------------------------------
      1         12           0      -33.317533    0.155474   -0.116322
      2          6           0      -29.905618   -0.153360    0.195650
      3          6           0      -33.771009   -3.207188    0.346571
      4          6           0      -36.798552    0.526893   -0.242695
      5          6           0      -33.063134    3.578999    0.259133
      6          7           0      -31.931528   -1.414424    0.445547
      7          6           0      -30.537232   -1.401802    0.351372
      8          6           0      -29.941008   -2.770700    0.688876
      9          6           0      -31.211160   -3.645186    0.533942
     10          6           0      -32.435920   -2.707680    0.520801
     11          6           0      -31.123153   -4.638187   -0.645588
     12          6           0      -29.323867   -2.806639    2.101039
     13          6           0      -27.954366   -3.553813    2.255760
     14          1           0      -27.711295   -4.207839    3.559636
     15          7           0      -34.989915   -1.147275   -0.023134
     16          6           0      -34.969373   -2.496016    0.078338
     17          6           0      -36.246552   -3.094697   -0.170270
     18          6           0      -37.127383   -2.045735   -0.481124
     19          6           0      -36.298545   -0.785735   -0.280230
     20          6           0      -36.494860   -4.602665   -0.243762
     21          6           0      -38.645186   -2.165518   -0.871220
     22          8           0      -39.183446   -3.301604   -0.835352
     23          6           0      -39.522016   -0.946187   -1.390863
     24          7           0      -34.749688    1.800899    0.293918
     25          6           0      -36.075990    1.709549    0.030692
     26          6           0      -36.763091    3.050676    0.002131
     27          6           0      -35.599885    4.044616    0.209056
     28          6           0      -34.387033    3.110646    0.217756
     29          6           0      -37.641980    3.308062   -1.266627
     30          6           0      -35.795108    4.990608    1.487984
     31          6           0      -36.187755    6.435961    1.160701
     32          7           0      -31.818438    1.485391    0.113295
     33          6           0      -31.817589    2.893056    0.227495
     34          6           0      -30.439195    3.387199    0.111757
     35          6           0      -29.692466    2.220619    0.023277
     36          6           0      -30.572451    1.133976    0.156378
     37          6           0      -29.915507    4.778730    0.117527
     38          6           0      -28.318377    1.710286   -0.085947
     39          8           0      -27.248498    2.270592   -0.375890
     40          6           0      -28.402903    0.132509   -0.022972
     41          6           0      -27.873342   -0.503215   -1.301380
     42          8           0      -28.113909   -0.168915   -2.465749
     43          8           0      -27.026616   -1.470440   -0.847488
     44          6           0      -26.220974   -2.149432   -1.848513
     45          1           0      -33.928251   -4.278561    0.486952
     46          1           0      -37.854804    0.774836   -0.366871
     47          1           0      -32.911711    4.654662    0.369279
     48          1           0      -29.150247   -3.009963   -0.022922
     49          1           0      -31.222594   -4.231428    1.452743
     50          1           0      -30.146589   -4.916924   -1.041418
     51          1           0      -31.616118   -4.140956   -1.480825
     52          1           0      -31.618811   -5.583552   -0.426132
     53          1           0      -30.017342   -3.174091    2.856971
     54          1           0      -29.257761   -1.761033    2.402736
     55          1           0      -27.144408   -2.847882    2.072309
     56          1           0      -27.922220   -4.366790    1.529063
     57          1           0      -36.922178   -4.779821   -1.230476
     58          1           0      -37.020989   -4.932447    0.652163
     59          1           0      -35.496262   -5.038991   -0.264781
     60          1           0      -39.889066   -0.438748   -0.499512
     61          1           0      -40.355797   -1.385463   -1.938042
     62          1           0      -38.916674   -0.433341   -2.138782
     63          1           0      -37.441897    3.096856    0.853809
     64          1           0      -35.336416    4.667360   -0.645537
     65          1           0      -37.465448    4.299704   -1.682354
     66          1           0      -38.708986    3.220838   -1.062522
     67          1           0      -37.456372    2.517791   -1.992863
     68          1           0      -34.878907    5.101440    2.067831
     69          1           0      -36.499601    4.535659    2.184183
     70          1           0      -36.916390    6.792175    1.889135
     71          1           0      -36.627951    6.480711    0.164779
     72          1           0      -35.349520    7.132467    1.158758
     73          1           0      -30.774585    5.449644    0.117907
     74          1           0      -29.132128    4.884479   -0.633225
     75          1           0      -29.475955    4.926487    1.104549
     76          1           0      -27.884913   -0.277264    0.844543
     77          1           0      -26.776313   -2.438136   -2.741801
     78          1           0      -25.673067   -3.035135   -1.526968
     79          1           0      -25.415327   -1.492573   -2.177492
     80         12           0       32.996931    0.586715   -0.610674
     81          6           0       30.984044   -2.259440   -0.085070
     82          6           0       30.602620    2.416482    0.978788
     83          6           0       35.245305    3.155042   -0.437581
     84          6           0       35.512014   -1.669200   -1.744349
     85          7           0       31.047022    0.088095    0.480680
     86          6           0       30.327282   -1.071953    0.453971
     87          6           0       29.040175   -0.978966    1.291581
     88          6           0       28.875625    0.618322    1.227422
     89          6           0       30.266290    1.079953    0.868895
     90          6           0       27.825693    1.147300    0.213837
     91          6           0       29.189555   -1.484959    2.796585
     92          6           0       27.949388   -1.954678    3.541204
     93          1           0       27.345787   -1.158237    4.717585
     94          7           0       32.992003    2.604235    0.133088
     95          6           0       31.846053    3.165304    0.617049
     96          6           0       31.993461    4.543095    0.785809
     97          6           0       33.344115    4.828032    0.356013
     98          6           0       33.966141    3.517706    0.013840
     99          6           0       30.907025    5.485556    1.289625
    100          6           0       33.912225    6.229055    0.334679
    101          8           0       33.192198    7.196370    0.693255
    102          6           0       35.336867    6.582584   -0.220420
    103          7           0       35.031394    0.662671   -1.040505
    104          6           0       35.750341    1.882633   -0.919585
    105          6           0       37.074403    1.769155   -1.622635
    106          6           0       37.322920    0.248899   -1.729036
    107          6           0       35.878603   -0.311671   -1.578836
    108          6           0       37.245764    2.359735   -3.040465
    109          6           0       38.260261   -0.306740   -0.532064
    110          6           0       39.770363   -0.204261   -0.684818
    111          7           0       33.121255   -1.521194   -1.029989
    112          6           0       34.189399   -2.277247   -1.488980
    113          6           0       33.881678   -3.624080   -1.530431
    114          6           0       32.571172   -3.686485   -1.026555
    115          6           0       32.168436   -2.376868   -0.715138
    116          6           0       34.797007   -4.704304   -2.013940
    117          6           0       31.509420   -4.521198   -0.815931
    118          8           0       31.362125   -5.691190   -1.109559
    119          6           0       30.541663   -3.674469    0.037249
    120          6           0       30.634583   -4.256064    1.416341
    121          8           0       31.646970   -4.338780    2.039482
    122          8           0       29.391081   -4.747785    1.817281
    123          6           0       29.462773   -5.458605    3.046332
    124          1           0       29.785619    3.071359    1.289561
    125          1           0       35.941731    3.981656   -0.595895
    126          1           0       36.279239   -2.274356   -2.231337
    127          1           0       28.172327   -1.378596    0.768016
    128          1           0       28.528505    0.929444    2.212328
    129          1           0       26.958121    1.328554    0.848940
    130          1           0       27.555669    0.398608   -0.530815
    131          1           0       28.140908    2.088800   -0.236258
    132          1           0       29.572558   -0.684539    3.429693
    133          1           0       29.974535   -2.241480    2.789116
    134          1           0       28.220531   -2.949751    3.896896
    135          1           0       27.163588   -2.093942    2.798933
    136          1           0       30.832026    6.492786    0.878423
    137          1           0       31.147570    5.437774    2.351422
    138          1           0       29.924466    5.091608    1.029761
    139          1           0       35.385300    6.331536   -1.279664
    140          1           0       35.986554    5.981426    0.415373
    141          1           0       35.688537    7.596748   -0.031412
    142          1           0       37.817075    2.183455   -0.941575
    143          1           0       37.772332   -0.031428   -2.681758
    144          1           0       37.395860    1.626683   -3.832866
    145          1           0       37.805339    3.295040   -3.015719
    146          1           0       36.253610    2.741092   -3.281385
    147          1           0       37.934513   -1.346523   -0.511239
    148          1           0       38.005458    0.172054    0.413604
    149          1           0       40.185445    0.286160    0.195276
    150          1           0       40.002094    0.387872   -1.570567
    151          1           0       40.233077   -1.190464   -0.730358
    152          1           0       34.783287   -5.473806   -1.242617
    153          1           0       35.834250   -4.375189   -2.087691
    154          1           0       34.465809   -5.153539   -2.950366
    155          1           0       29.537346   -3.805740   -0.364035
    156          1           0       29.615826   -6.518851    2.846812
    157          1           0       28.516495   -5.486708    3.587921
    158          1           0       30.268262   -5.102446    3.686275
 ---------------------------------------------------------------------

 SCF Done:  E(RwB97XD) =  -4070.60279245     A.U. after   19 cycles

 Excitation energies and oscillator strengths:

 Excited State   1:      Singlet-A      1.6461 eV  753.18 nm  f=0.3986  <S**2>=0.000
     309 -> 315       -0.19122
     311 -> 313        0.68054
     309 <- 315       -0.11798
 This state for optimization and/or second-order correction.
 Total Energy, E(TD-HF/TD-DFT) =  -4070.54229804
 Copying the excited state density for this state as the 1-particle RhoCI density.

 Excited State   2:      Singlet-A      1.6650 eV  744.66 nm  f=0.3642  <S**2>=0.000
     310 -> 316        0.17868
     312 -> 314        0.68382
     310 <- 316        0.11336

 Excited State   3:      Singlet-A      2.0912 eV  592.88 nm  f=0.1262  <S**2>=0.000
     309 -> 313        0.64853
     311 -> 315        0.26305

 Excited State   4:      Singlet-A      2.1965 eV  564.45 nm  f=0.0911  <S**2>=0.000
     310 -> 314        0.62327
     312 -> 316       -0.31706

 Excited State   5:      Singlet-A      3.1711 eV  390.98 nm  f=0.0097  <S**2>=0.000
     306 -> 313       -0.26137
     308 -> 313        0.60992
     308 -> 317       -0.13670

 The electronic state is 1-A.
 Alpha  occ. eigenvalues --  -46.96657 -46.95529 -19.31578 -19.30633 -19.25847
 Alpha  occ. eigenvalues --  -19.25210 -19.24797 -19.23474 -19.23169 -19.22927
 Alpha  occ. eigenvalues --  -14.47782 -14.47272 -14.47032 -14.46762 -14.44877
 Alpha  occ. eigenvalues --  -14.44410 -14.43820 -14.43672 -10.43809 -10.43562
 Alpha  occ. eigenvalues --  -10.40767 -10.39024 -10.38756 -10.37356 -10.36473
 Alpha  occ. eigenvalues --  -10.36368 -10.36328 -10.35785 -10.35746 -10.35691
 Alpha  occ. eigenvalues --  -10.35242 -10.35116 -10.34995 -10.34744 -10.34729
 Alpha  occ. eigenvalues --  -10.34527 -10.34434 -10.34289 -10.33981 -10.33642
 Alpha  occ. eigenvalues --  -10.33323 -10.33083 -10.32769 -10.32713 -10.32559
 Alpha  occ. eigenvalues --  -10.32476 -10.32404 -10.32377 -10.32371 -10.32204
 Alpha  occ. eigenvalues --  -10.32140 -10.32110 -10.32094 -10.32067 -10.32038
 Alpha  occ. eigenvalues --  -10.32000 -10.31982 -10.31903 -10.31868 -10.31791
 Alpha  occ. eigenvalues --  -10.31773 -10.31715 -10.31713 -10.31651 -10.31532
 Alpha  occ. eigenvalues --  -10.31499 -10.31410 -10.31396 -10.31305 -10.31003
 Alpha  occ. eigenvalues --  -10.30838 -10.30635 -10.30514 -10.30473 -10.30433
 Alpha  occ. eigenvalues --  -10.30350 -10.30266 -10.30234 -10.29965 -10.29940
 Alpha  occ. eigenvalues --  -10.29796 -10.29794 -10.29562 -10.29466 -10.28571
 Alpha  occ. eigenvalues --  -10.28197  -3.22427  -3.21507  -1.96007  -1.95536
 Alpha  occ. eigenvalues --   -1.95385  -1.95061  -1.94616  -1.94504  -1.19802
 Alpha  occ. eigenvalues --   -1.19019  -1.12265  -1.11745  -1.10911  -1.10545
 Alpha  occ. eigenvalues --   -1.09951  -1.09532  -1.07782  -1.06717  -1.06676
 Alpha  occ. eigenvalues --   -1.06030  -1.05982  -1.05594  -1.04174  -1.03908
 Alpha  occ. eigenvalues --   -0.96376  -0.93362  -0.90869  -0.90818  -0.90720
 Alpha  occ. eigenvalues --   -0.90636  -0.90569  -0.90563  -0.89528  -0.89190
 Alpha  occ. eigenvalues --   -0.89032  -0.88962  -0.88393  -0.87869  -0.86304
 Alpha  occ. eigenvalues --   -0.86239  -0.85773  -0.85535  -0.84837  -0.84410
 Alpha  occ. eigenvalues --   -0.83820  -0.83576  -0.83090  -0.82655  -0.82305
 Alpha  occ. eigenvalues --   -0.82140  -0.80023  -0.79869  -0.79437  -0.79311
 Alpha  occ. eigenvalues --   -0.78899  -0.78695  -0.77909  -0.77811  -0.77651
 Alpha  occ. eigenvalues --   -0.77247  -0.75612  -0.74697  -0.74245  -0.73721
 Alpha  occ. eigenvalues --   -0.71481  -0.71125  -0.70918  -0.70421  -0.70394
 Alpha  occ. eigenvalues --   -0.69836  -0.69286  -0.69168  -0.68256  -0.68050
 Alpha  occ. eigenvalues --   -0.67328  -0.67077  -0.66978  -0.66715  -0.66573
 Alpha  occ. eigenvalues --   -0.66241  -0.64809  -0.64668  -0.62508  -0.62163
 Alpha  occ. eigenvalues --   -0.61914  -0.61612  -0.61589  -0.61194  -0.61035
 Alpha  occ. eigenvalues --   -0.60946  -0.60604  -0.60090  -0.59699  -0.59221
 Alpha  occ. eigenvalues --   -0.58499  -0.57997  -0.57733  -0.57696  -0.57285
 Alpha  occ. eigenvalues --   -0.57240  -0.57081  -0.56964  -0.55812  -0.55718
 Alpha  occ. eigenvalues --   -0.55513  -0.55327  -0.55126  -0.55112  -0.54770
 Alpha  occ. eigenvalues --   -0.54739  -0.54542  -0.54530  -0.54221  -0.53915
 Alpha  occ. eigenvalues --   -0.53787  -0.53533  -0.53359  -0.53292  -0.53173
 Alpha  occ. eigenvalues --   -0.53154  -0.53043  -0.52793  -0.52786  -0.52551
 Alpha  occ. eigenvalues --   -0.52071  -0.51866  -0.51784  -0.51668  -0.51382
 Alpha  occ. eigenvalues --   -0.51339  -0.51245  -0.51026  -0.50936  -0.50744
 Alpha  occ. eigenvalues --   -0.50432  -0.50420  -0.50248  -0.50090  -0.49873
 Alpha  occ. eigenvalues --   -0.49754  -0.49692  -0.49400  -0.49281  -0.49159
 Alpha  occ. eigenvalues --   -0.49122  -0.48967  -0.48823  -0.48546  -0.48515
 Alpha  occ. eigenvalues --   -0.48348  -0.48294  -0.48260  -0.47980  -0.47975
 Alpha  occ. eigenvalues --   -0.47726  -0.47456  -0.47238  -0.47153  -0.47008
 Alpha  occ. eigenvalues --   -0.46737  -0.46669  -0.46517  -0.46355  -0.46076
 Alpha  occ. eigenvalues --   -0.45821  -0.45719  -0.45706  -0.45660  -0.45459
 Alpha  occ. eigenvalues --   -0.45289  -0.45208  -0.45175  -0.44935  -0.44899
 Alpha  occ. eigenvalues --   -0.44557  -0.44514  -0.44441  -0.44375  -0.44159
 Alpha  occ. eigenvalues --   -0.44101  -0.43897  -0.43494  -0.43453  -0.43296
 Alpha  occ. eigenvalues --   -0.43177  -0.43080  -0.42918  -0.42721  -0.42507
 Alpha  occ. eigenvalues --   -0.42397  -0.42206  -0.41613  -0.41361  -0.41275
 Alpha  occ. eigenvalues --   -0.40687  -0.40443  -0.40294  -0.40075  -0.39826
 Alpha  occ. eigenvalues --   -0.39583  -0.39421  -0.39136  -0.38919  -0.38901
 Alpha  occ. eigenvalues --   -0.38635  -0.38390  -0.37495  -0.37064  -0.36853
 Alpha  occ. eigenvalues --   -0.36781  -0.35674  -0.35282  -0.33750  -0.33659
 Alpha  occ. eigenvalues --   -0.33312  -0.32698  -0.32465  -0.32409  -0.32161
 Alpha  occ. eigenvalues --   -0.31984  -0.31945  -0.31641  -0.26239  -0.26138
 Alpha  occ. eigenvalues --   -0.23841  -0.22906
 Alpha virt. eigenvalues --   -0.07957  -0.06920  -0.00585  -0.00127   0.02003
 Alpha virt. eigenvalues --    0.02236   0.04059   0.04560   0.04694   0.04812
 Alpha virt. eigenvalues --    0.06750   0.07151   0.07410   0.07437   0.07990

 Mulliken charges:
               1
     1  Mg   0.973257
     2  C   -0.080575
     3  C   -0.110080
     4  C   -0.086188
     5  C   -0.082916
     6  N   -0.403963
     7  C   -0.008394
     8  C   -0.052836
     9  C   -0.091986
    10  C    0.125830
    11  C    0.013991
    12  C    0.023149
    13  C   -0.127700
    14  H    0.043600
    15  N   -0.430199
    16  C    0.152984
    17  C   -0.190607
    18  C   -0.078542
    19  C    0.194558
    20  C    0.116390
    21  C    0.044381
    22  O   -0.256247
    23  C   -0.009175
    24  N   -0.324976
    25  C    0.022961
    26  C   -0.076424
    27  C   -0.052162
    28  C    0.038410
    29  C    0.010503
    30  C   -0.007620
    31  C   -0.058071
    32  N   -0.440774
    33  C    0.101333
    34  C   -0.206470
    35  C   -0.043997
    36  C    0.153093
    37  C    0.107369
    38  C    0.155625
    39  O   -0.229716
    40  C   -0.059940
    41  C    0.289197
    42  O   -0.247457
    43  O   -0.356463
    44  C    0.133495
    45  H    0.007808
    46  H   -0.019743
    47  H   -0.011102
    48  H    0.025069
    49  H    0.032688
    50  H    0.036828
    51  H    0.034833
    52  H    0.038407
    53  H    0.030656
    54  H    0.030142
    55  H    0.066467
    56  H    0.049602
    57  H    0.065600
    58  H    0.072128
    59  H    0.012152
    60  H    0.080678
    61  H    0.058283
    62  H    0.060663
    63  H    0.046728
    64  H    0.034040
    65  H    0.046867
    66  H    0.033554
    67  H    0.037725
    68  H    0.032989
    69  H    0.028778
    70  H    0.039097
    71  H    0.028609
    72  H    0.041138
    73  H    0.021206
    74  H    0.075381
    75  H    0.050509
    76  H    0.064465
    77  H    0.055242
    78  H    0.052200
    79  H    0.053665
    80  Mg   0.948393
    81  C    0.000478
    82  C   -0.064781
    83  C   -0.087399
    84  C   -0.085735
    85  N   -0.297883
    86  C   -0.037991
    87  C   -0.036601
    88  C   -0.151852
    89  C    0.082333
    90  C    0.029889
    91  C   -0.001055
    92  C   -0.097732
    93  H    0.043775
    94  N   -0.425922
    95  C    0.122628
    96  C   -0.157872
    97  C   -0.085140
    98  C    0.168914
    99  C    0.086469
   100  C    0.032064
   101  O   -0.271699
   102  C   -0.011414
   103  N   -0.428102
   104  C    0.087265
   105  C   -0.092016
   106  C   -0.113433
   107  C    0.082375
   108  C    0.055269
   109  C   -0.033198
   110  C   -0.022707
   111  N   -0.388438
   112  C    0.120816
   113  C   -0.174840
   114  C    0.038991
   115  C    0.121203
   116  C    0.098338
   117  C    0.025942
   118  O   -0.206341
   119  C   -0.074480
   120  C    0.254165
   121  O   -0.209798
   122  O   -0.358108
   123  C    0.118670
   124  H   -0.004347
   125  H   -0.015927
   126  H    0.009973
   127  H    0.028218
   128  H    0.041458
   129  H    0.039150
   130  H    0.042968
   131  H    0.043393
   132  H    0.044051
   133  H    0.047741
   134  H    0.049663
   135  H    0.043086
   136  H    0.069579
   137  H    0.065453
   138  H    0.029170
   139  H    0.067710
   140  H    0.050335
   141  H    0.051446
   142  H    0.031762
   143  H    0.027926
   144  H    0.049149
   145  H    0.044392
   146  H    0.015818
   147  H    0.024908
   148  H    0.036996
   149  H    0.036025
   150  H    0.032848
   151  H    0.043089
   152  H    0.055737
   153  H    0.023771
   154  H    0.063715
   155  H    0.047908
   156  H    0.048933
   157  H    0.048440
   158  H    0.062028
 Sum of Mulliken charges =  -0.00000

 Dipole moment (field-independent basis, Debye):
    X=             -1.7146    Y=              0.7339    Z=             -0.6372  Tot=              1.9709
 Quadrupole moment (field-independent basis, Debye-Ang):
   XX=           -259.9295   YY=           -542.1908   ZZ=           -508.1096
   XY=             -9.5012   XZ=            -64.0907   YZ=             -9.5393

 Normal termination of Gaussian 16 at Mon Sep 20 17:03:16 2021.
