 Gaussian 16, Revision A.03,
 Gaussian 16:  ES64L-G16RevA.03 25-Dec-2016

 --------------------------------
 #p wB97XD/Def2SVP td=(nstates=5)
 --------------------------------

 --------------------------------
 TDDFT excited states in gaussian
 --------------------------------
 Symbolic Z-matrix:
 Charge =  0 Multiplicity = 1

                         Standard orientation:
 ---------------------------------------------------------------------
 Center     Atomic      Atomic             Coordinates (Angstroms)
 Number     Number       Type             X           Y           Z
 ---------------------------------------------------------------------
      1         12           0      -17.510858   -0.697523    0.170279
      2          6           0      -17.302497    2.604935   -0.735336
      3          6           0      -16.200495    0.124431    3.230470
      4          6           0      -17.608298   -4.047289    1.063430
      5          6           0      -18.409677   -1.533310   -3.072243
      6          7           0      -16.761333    1.170540    1.162003
      7          6           0      -16.882800    2.400258    0.580224
      8          6           0      -16.432914    3.448727    1.478049
      9          6           0      -15.866124    2.728622    2.691399
     10          6           0      -16.252293    1.219043    2.369195
     11          6           0      -14.343959    2.898108    3.026400
     12          6           0      -17.585311    4.453763    1.819243
     13          6           0      -17.179018    5.948578    2.060955
     14          1           0      -15.761868    6.213959    2.605836
     15          7           0      -17.073013   -1.767713    1.970822
     16          6           0      -16.552222   -1.209973    3.125864
     17          6           0      -16.369495   -2.276959    4.130669
     18          6           0      -16.790734   -3.527743    3.503063
     19          6           0      -17.204222   -3.156876    2.138509
     20          6           0      -15.803152   -2.063930    5.525013
     21          6           0      -16.912782   -4.887764    4.149791
     22          8           0      -17.367649   -5.834258    3.483693
     23          6           0      -16.493414   -5.205266    5.536290
     24          7           0      -17.869524   -2.550179   -0.865838
     25          6           0      -17.900584   -3.740487   -0.259739
     26          6           0      -18.408893   -4.828452   -1.220299
     27          6           0      -18.930533   -4.009141   -2.523123
     28          6           0      -18.440412   -2.582364   -2.090852
     29          6           0      -17.303628   -5.889222   -1.513771
     30          6           0      -20.467452   -4.019025   -2.748055
     31          6           0      -20.954735   -4.792331   -3.982534
     32          7           0      -17.746198    0.286744   -1.613007
     33          6           0      -18.105030   -0.179884   -2.879707
     34          6           0      -18.171912    0.946244   -3.837362
     35          6           0      -17.839457    2.036508   -2.999138
     36          6           0      -17.584048    1.586088   -1.676289
     37          6           0      -18.549002    0.920702   -5.236168
     38          6           0      -17.752082    3.511108   -2.966402
     39          8           0      -17.973448    4.343509   -3.805357
     40          6           0      -17.357902    3.919888   -1.502436
     41          6           0      -16.156972    4.768263   -1.564055
     42          8           0      -15.055057    4.274304   -1.852701
     43          8           0      -16.340585    6.052841   -1.152578
     44          6           0      -15.170815    6.909513   -0.985525
     45          1           0      -15.782733    0.419623    4.195253
     46          1           0      -17.596800   -5.100715    1.351705
     47          1           0      -18.818126   -1.826615   -4.041466
     48          1           0      -15.630894    3.993781    0.979082
     49          1           0      -16.467684    2.916884    3.581421
     50          1           0      -13.691477    3.538916    2.432440
     51          1           0      -13.891766    1.906653    3.032700
     52          1           0      -14.157782    3.210239    4.054322
     53          1           0      -18.175139    4.065331    2.649585
     54          1           0      -18.361631    4.367088    1.059267
     55          1           0      -17.888962    6.422828    2.739161
     56          1           0      -17.131706    6.529536    1.140370
     57          1           0      -15.657945   -1.013888    5.776489
     58          1           0      -14.817517   -2.520002    5.622036
     59          1           0      -16.541184   -2.347598    6.275094
     60          1           0      -16.796028   -6.235970    5.718677
     61          1           0      -16.932139   -4.545898    6.286335
     62          1           0      -15.423817   -5.023186    5.642126
     63          1           0      -19.311611   -5.245304   -0.773527
     64          1           0      -18.406308   -4.296383   -3.434528
     65          1           0      -17.645163   -6.917376   -1.393228
     66          1           0      -16.455238   -5.761638   -0.840866
     67          1           0      -16.976584   -5.653249   -2.526700
     68          1           0      -20.895842   -3.021552   -2.838795
     69          1           0      -20.999868   -4.440464   -1.895118
     70          1           0      -20.247844   -5.589404   -4.213212
     71          1           0      -20.976961   -4.100434   -4.823898
     72          1           0      -21.980380   -5.094234   -3.774420
     73          1           0      -18.844050    1.900116   -5.612076
     74          1           0      -19.358537    0.223686   -5.451887
     75          1           0      -17.642833    0.750238   -5.817643
     76          1           0      -18.254619    4.457268   -1.191990
     77          1           0      -14.647497    7.140152   -1.913851
     78          1           0      -14.502874    6.513720   -0.220532
     79          1           0      -15.486960    7.887177   -0.622091
     80         12           0       17.582641   -0.650110    0.035365
     81          6           0       15.214094    1.801204    0.465314
     82          6           0       20.081842    1.803859    0.661189
     83          6           0       20.030974   -2.794944   -0.878433
     84          6           0       15.243844   -2.873812   -0.878865
     85          7           0       17.629047    1.561690    0.506462
     86          6           0       16.500462    2.329475    0.612117
     87          6           0       16.844158    3.755342    1.048830
     88          6           0       18.435096    3.736898    0.897383
     89          6           0       18.747678    2.286445    0.672353
     90          6           0       18.989803    4.722093   -0.195957
     91          6           0       16.378439    4.100094    2.536792
     92          6           0       15.722741    5.410126    2.901845
     93          1           0       16.332634    6.670760    2.400453
     94          7           0       19.787191   -0.559939   -0.053013
     95          6           0       20.584898    0.431768    0.400720
     96          6           0       21.952630    0.033705    0.418176
     97          6           0       21.972166   -1.334003   -0.000913
     98          6           0       20.553628   -1.579514   -0.398170
     99          6           0       22.987720    1.044241    0.794243
    100          6           0       23.168643   -2.240879   -0.233178
    101          8           0       23.082527   -3.302516   -0.858152
    102          6           0       24.538954   -1.848780    0.290975
    103          7           0       17.645383   -2.549355   -0.926362
    104          6           0       18.783467   -3.277691   -1.072347
    105          6           0       18.458353   -4.706900   -1.503267
    106          6           0       16.893500   -4.759423   -1.323671
    107          6           0       16.561830   -3.312468   -1.016304
    108          6           0       18.976323   -5.280743   -2.855156
    109          6           0       16.329777   -5.811383   -0.279637
    110          6           0       16.075209   -5.405600    1.156636
    111          7           0       15.658517   -0.569734   -0.270957
    112          6           0       14.745997   -1.566300   -0.507687
    113          6           0       13.409334   -1.100435   -0.582052
    114          6           0       13.528404    0.218772   -0.156160
    115          6           0       14.908130    0.483434    0.041067
    116          6           0       12.083068   -1.781590   -0.893478
    117          6           0       12.846347    1.408066    0.113121
    118          8           0       11.656720    1.636955   -0.005823
    119          6           0       13.908576    2.573329    0.528531
    120          6           0       13.787795    3.654189   -0.442038
    121          8           0       14.063782    3.581734   -1.655943
    122          8           0       13.278115    4.799274    0.084135
    123          6           0       12.809510    5.850209   -0.826195
    124          1           0       20.749485    2.617012    0.952304
    125          1           0       20.778849   -3.589911   -0.905853
    126          1           0       14.459800   -3.629399   -0.805703
    127          1           0       16.302273    4.450834    0.406660
    128          1           0       18.924990    4.083606    1.807429
    129          1           0       19.663569    5.419846    0.300134
    130          1           0       18.098500    5.147162   -0.657796
    131          1           0       19.647130    4.270859   -0.939819
    132          1           0       17.322290    4.015759    3.075720
    133          1           0       15.837548    3.264528    2.979796
    134          1           0       15.550201    5.453161    3.977219
    135          1           0       14.760526    5.402301    2.391082
    136          1           0       23.649623    0.519830    1.482463
    137          1           0       22.542248    1.862516    1.360546
    138          1           0       23.563223    1.474659   -0.026001
    139          1           0       24.526474   -1.432565    1.298737
    140          1           0       25.075280   -1.284014   -0.472815
    141          1           0       25.066596   -2.798255    0.386410
    142          1           0       19.016294   -5.309841   -0.786521
    143          1           0       16.379669   -5.130835   -2.209516
    144          1           0       18.149816   -5.401728   -3.555256
    145          1           0       19.392540   -6.262158   -2.628416
    146          1           0       19.726771   -4.573387   -3.206395
    147          1           0       17.037936   -6.638761   -0.265175
    148          1           0       15.373742   -6.201016   -0.630059
    149          1           0       16.560421   -6.081409    1.861269
    150          1           0       15.016605   -5.351372    1.414096
    151          1           0       16.501524   -4.405995    1.241377
    152          1           0       12.259374   -2.845310   -1.057759
    153          1           0       11.638653   -1.313635   -1.772255
    154          1           0       11.415469   -1.641182   -0.043826
    155          1           0       13.477051    2.893698    1.477263
    156          1           0       12.071371    6.521604   -0.387254
    157          1           0       12.502195    5.512753   -1.815579
    158          1           0       13.657427    6.527774   -0.927604
 ---------------------------------------------------------------------

 SCF Done:  E(RwB97XD) =  -4070.67040570     A.U. after   19 cycles

 Excitation energies and oscillator strengths:

 Excited State   1:      Singlet-A      1.6605 eV  746.68 nm  f=0.4243  <S**2>=0.000
     310 -> 316       -0.18397
     311 -> 313        0.68389
     310 <- 316       -0.11628
 This state for optimization and/or second-order correction.
 Total Energy, E(TD-HF/TD-DFT) =  -4070.60938433
 Copying the excited state density for this state as the 1-particle RhoCI density.

 Excited State   2:      Singlet-A      1.6697 eV  742.57 nm  f=0.3790  <S**2>=0.000
     309 -> 315        0.19458
     312 -> 314        0.67985
     309 <- 315        0.11861

 Excited State   3:      Singlet-A      2.1344 eV  580.89 nm  f=0.1689  <S**2>=0.000
     310 -> 313        0.66025
     311 -> 316        0.24163

 Excited State   4:      Singlet-A      2.1969 eV  564.37 nm  f=0.0834  <S**2>=0.000
     309 -> 314        0.62408
     312 -> 315       -0.31820

 Excited State   5:      Singlet-A      3.7052 eV  334.62 nm  f=0.0000  <S**2>=0.000
     312 -> 313        0.70707

 The electronic state is 1-A.
 Alpha  occ. eigenvalues --  -46.95441 -46.95194 -19.31156 -19.30273 -19.24228
 Alpha  occ. eigenvalues --  -19.24059 -19.23925 -19.23645 -19.23472 -19.23384
 Alpha  occ. eigenvalues --  -14.46707 -14.46382 -14.46263 -14.46113 -14.44160
 Alpha  occ. eigenvalues --  -14.44093 -14.44084 -14.43802 -10.43387 -10.42772
 Alpha  occ. eigenvalues --  -10.39356 -10.38910 -10.38843 -10.38530 -10.36040
 Alpha  occ. eigenvalues --  -10.35353 -10.35078 -10.34895 -10.34894 -10.34665
 Alpha  occ. eigenvalues --  -10.34638 -10.34399 -10.34393 -10.34143 -10.34123
 Alpha  occ. eigenvalues --  -10.34115 -10.34094 -10.34044 -10.33924 -10.33884
 Alpha  occ. eigenvalues --  -10.33317 -10.33264 -10.32989 -10.32649 -10.32531
 Alpha  occ. eigenvalues --  -10.32523 -10.32522 -10.32492 -10.32313 -10.32301
 Alpha  occ. eigenvalues --  -10.32111 -10.32086 -10.32044 -10.32030 -10.31940
 Alpha  occ. eigenvalues --  -10.31864 -10.31777 -10.31631 -10.31596 -10.31541
 Alpha  occ. eigenvalues --  -10.31406 -10.31405 -10.31350 -10.31305 -10.31226
 Alpha  occ. eigenvalues --  -10.31005 -10.30858 -10.30810 -10.30645 -10.30498
 Alpha  occ. eigenvalues --  -10.30282 -10.30148 -10.30072 -10.30059 -10.29946
 Alpha  occ. eigenvalues --  -10.29924 -10.29908 -10.29898 -10.29897 -10.29560
 Alpha  occ. eigenvalues --  -10.29335 -10.29288 -10.29237 -10.29136 -10.28835
 Alpha  occ. eigenvalues --  -10.28635  -3.21493  -3.21064  -1.95065  -1.94675
 Alpha  occ. eigenvalues --   -1.94578  -1.94508  -1.94170  -1.94040  -1.18584
 Alpha  occ. eigenvalues --   -1.18021  -1.13160  -1.12119  -1.11690  -1.11110
 Alpha  occ. eigenvalues --   -1.09280  -1.08016  -1.07395  -1.07088  -1.06691
 Alpha  occ. eigenvalues --   -1.06158  -1.06031  -1.05503  -1.05369  -1.02979
 Alpha  occ. eigenvalues --   -0.94583  -0.94426  -0.90983  -0.90946  -0.90142
 Alpha  occ. eigenvalues --   -0.90103  -0.90056  -0.89720  -0.89567  -0.89365
 Alpha  occ. eigenvalues --   -0.89101  -0.88632  -0.88366  -0.88184  -0.86213
 Alpha  occ. eigenvalues --   -0.85858  -0.85653  -0.85423  -0.84563  -0.84180
 Alpha  occ. eigenvalues --   -0.83771  -0.83766  -0.83125  -0.83106  -0.82484
 Alpha  occ. eigenvalues --   -0.82275  -0.80377  -0.80352  -0.79460  -0.79400
 Alpha  occ. eigenvalues --   -0.79216  -0.79029  -0.78157  -0.78123  -0.77426
 Alpha  occ. eigenvalues --   -0.76792  -0.75529  -0.74569  -0.73519  -0.73461
 Alpha  occ. eigenvalues --   -0.71542  -0.71208  -0.71140  -0.70243  -0.70091
 Alpha  occ. eigenvalues --   -0.69992  -0.69121  -0.68899  -0.67748  -0.67553
 Alpha  occ. eigenvalues --   -0.67315  -0.67102  -0.67018  -0.66722  -0.66303
 Alpha  occ. eigenvalues --   -0.66200  -0.64682  -0.64229  -0.62199  -0.61810
 Alpha  occ. eigenvalues --   -0.61800  -0.61538  -0.61188  -0.61058  -0.60686
 Alpha  occ. eigenvalues --   -0.60267  -0.60188  -0.59874  -0.59272  -0.59252
 Alpha  occ. eigenvalues --   -0.58232  -0.58016  -0.57802  -0.57327  -0.57325
 Alpha  occ. eigenvalues --   -0.56994  -0.56771  -0.56641  -0.55984  -0.55887
 Alpha  occ. eigenvalues --   -0.55370  -0.55222  -0.55086  -0.54851  -0.54740
 Alpha  occ. eigenvalues --   -0.54698  -0.54478  -0.54317  -0.54165  -0.54122
 Alpha  occ. eigenvalues --   -0.54012  -0.53526  -0.53393  -0.53387  -0.53208
 Alpha  occ. eigenvalues --   -0.53044  -0.52679  -0.52521  -0.52189  -0.52108
 Alpha  occ. eigenvalues --   -0.51887  -0.51794  -0.51782  -0.51457  -0.51265
 Alpha  occ. eigenvalues --   -0.51158  -0.51003  -0.50902  -0.50725  -0.50665
 Alpha  occ. eigenvalues --   -0.50496  -0.50429  -0.50350  -0.50163  -0.49988
 Alpha  occ. eigenvalues --   -0.49826  -0.49770  -0.49496  -0.49379  -0.49132
 Alpha  occ. eigenvalues --   -0.49088  -0.49035  -0.48792  -0.48613  -0.48420
 Alpha  occ. eigenvalues --   -0.48159  -0.48088  -0.47879  -0.47796  -0.47785
 Alpha  occ. eigenvalues --   -0.47601  -0.47418  -0.47227  -0.47127  -0.46950
 Alpha  occ. eigenvalues --   -0.46817  -0.46449  -0.46445  -0.46230  -0.45853
 Alpha  occ. eigenvalues --   -0.45824  -0.45730  -0.45548  -0.45532  -0.45374
 Alpha  occ. eigenvalues --   -0.45285  -0.45162  -0.45067  -0.44930  -0.44920
 Alpha  occ. eigenvalues --   -0.44514  -0.44180  -0.44043  -0.43902  -0.43785
 Alpha  occ. eigenvalues --   -0.43764  -0.43449  -0.43353  -0.43224  -0.43110
 Alpha  occ. eigenvalues --   -0.43027  -0.42811  -0.42556  -0.42488  -0.42220
 Alpha  occ. eigenvalues --   -0.41917  -0.41835  -0.41749  -0.41450  -0.41387
 Alpha  occ. eigenvalues --   -0.40404  -0.40143  -0.40061  -0.39394  -0.39271
 Alpha  occ. eigenvalues --   -0.39174  -0.38751  -0.38675  -0.38654  -0.38037
 Alpha  occ. eigenvalues --   -0.37907  -0.37669  -0.36542  -0.35996  -0.35886
 Alpha  occ. eigenvalues --   -0.35412  -0.35336  -0.35074  -0.33531  -0.33252
 Alpha  occ. eigenvalues --   -0.33242  -0.33025  -0.32869  -0.32673  -0.32443
 Alpha  occ. eigenvalues --   -0.32249  -0.32203  -0.31673  -0.25770  -0.25740
 Alpha  occ. eigenvalues --   -0.23267  -0.22578
 Alpha virt. eigenvalues --   -0.07454  -0.06627   0.00211   0.00734   0.02319
 Alpha virt. eigenvalues --    0.02615   0.04565   0.04712   0.04945   0.06146
 Alpha virt. eigenvalues --    0.06640   0.06880   0.07968   0.08562   0.08693

 Mulliken charges:
               1
     1  Mg   0.952493
     2  C   -0.029901
     3  C   -0.087581
     4  C   -0.053809
     5  C   -0.079033
     6  N   -0.317197
     7  C   -0.008887
     8  C   -0.054112
     9  C   -0.041561
    10  C   -0.009085
    11  C    0.019966
    12  C    0.021247
    13  C   -0.115166
    14  H    0.015674
    15  N   -0.461408
    16  C    0.197438
    17  C   -0.169586
    18  C   -0.061164
    19  C    0.119926
    20  C    0.061131
    21  C    0.038475
    22  O   -0.262840
    23  C    0.013421
    24  N   -0.333119
    25  C    0.064286
    26  C   -0.091914
    27  C   -0.098978
    28  C    0.041421
    29  C    0.031119
    30  C   -0.015230
    31  C   -0.053810
    32  N   -0.449296
    33  C    0.129988
    34  C   -0.162307
    35  C   -0.055486
    36  C    0.144864
    37  C    0.075972
    38  C    0.096440
    39  O   -0.183882
    40  C   -0.042214
    41  C    0.280620
    42  O   -0.276009
    43  O   -0.352471
    44  C    0.141014
    45  H   -0.023818
    46  H    0.028177
    47  H   -0.002413
    48  H    0.045977
    49  H    0.034421
    50  H    0.048950
    51  H    0.031185
    52  H    0.026854
    53  H    0.018593
    54  H    0.024764
    55  H    0.055031
    56  H    0.067003
    57  H    0.025631
    58  H    0.064246
    59  H    0.051388
    60  H    0.063636
    61  H    0.041588
    62  H    0.053123
    63  H    0.040513
    64  H    0.038383
    65  H    0.048206
    66  H    0.046098
    67  H    0.029759
    68  H    0.031743
    69  H    0.025702
    70  H    0.040604
    71  H    0.032181
    72  H    0.041501
    73  H    0.049750
    74  H    0.047481
    75  H    0.057554
    76  H    0.066865
    77  H    0.067269
    78  H    0.052515
    79  H    0.050091
    80  Mg   0.974627
    81  C   -0.004297
    82  C   -0.064892
    83  C   -0.065417
    84  C   -0.074795
    85  N   -0.330590
    86  C    0.000594
    87  C   -0.084377
    88  C   -0.117805
    89  C    0.051530
    90  C    0.025246
    91  C    0.010948
    92  C   -0.102347
    93  H    0.032755
    94  N   -0.356538
    95  C    0.128967
    96  C   -0.163774
    97  C   -0.075515
    98  C    0.099959
    99  C    0.082181
   100  C    0.043312
   101  O   -0.246914
   102  C   -0.017088
   103  N   -0.351519
   104  C    0.050195
   105  C   -0.080568
   106  C   -0.041471
   107  C    0.061422
   108  C    0.035317
   109  C   -0.057999
   110  C   -0.043058
   111  N   -0.478562
   112  C    0.099429
   113  C   -0.189101
   114  C    0.040995
   115  C    0.137986
   116  C    0.096922
   117  C    0.037775
   118  O   -0.207878
   119  C   -0.055983
   120  C    0.260175
   121  O   -0.281259
   122  O   -0.359762
   123  C    0.146669
   124  H   -0.010935
   125  H    0.017284
   126  H   -0.000416
   127  H    0.049014
   128  H    0.042606
   129  H    0.031637
   130  H    0.050445
   131  H    0.040592
   132  H    0.012356
   133  H    0.032256
   134  H    0.055966
   135  H    0.054309
   136  H    0.030595
   137  H    0.036833
   138  H    0.063569
   139  H    0.053798
   140  H    0.071510
   141  H    0.050415
   142  H    0.036323
   143  H    0.036921
   144  H    0.036546
   145  H    0.040342
   146  H    0.051421
   147  H    0.029691
   148  H    0.029367
   149  H    0.038429
   150  H    0.037284
   151  H    0.035900
   152  H    0.026420
   153  H    0.066891
   154  H    0.060961
   155  H    0.060636
   156  H    0.053390
   157  H    0.075528
   158  H    0.036626
 Sum of Mulliken charges =  -0.00000

 Dipole moment (field-independent basis, Debye):
    X=              2.0933    Y=              1.0396    Z=              7.3734  Tot=              7.7350
 Quadrupole moment (field-independent basis, Debye-Ang):
   XX=           -402.5201   YY=           -485.0546   ZZ=           -495.7414
   XY=             23.8969   XZ=             18.6215   YZ=             31.1993

 Normal termination of Gaussian 16 at Mon Sep 20 01:06:07 2021.
