 Gaussian 16, Revision A.03,
 Gaussian 16:  ES64L-G16RevA.03 25-Dec-2016

 --------------------------------
 #p wB97XD/Def2SVP td=(nstates=5)
 --------------------------------

 --------------------------------
 TDDFT excited states in gaussian
 --------------------------------
 Symbolic Z-matrix:
 Charge =  0 Multiplicity = 1

                         Standard orientation:
 ---------------------------------------------------------------------
 Center     Atomic      Atomic             Coordinates (Angstroms)
 Number     Number       Type             X           Y           Z
 ---------------------------------------------------------------------
      1         12           0       -0.626746    0.045627    0.099593
      2          6           0        2.765606    0.189990    0.228469
      3          6           0       -0.695134   -3.403405    0.048896
      4          6           0       -4.033136    0.155316   -0.228797
      5          6           0       -0.669542    3.641691   -0.297116
      6          7           0        0.875374   -1.402301   -0.074740
      7          6           0        2.245796   -1.138583    0.260344
      8          6           0        2.968405   -2.392302    0.553204
      9          6           0        1.908402   -3.483519    0.075872
     10          6           0        0.584286   -2.757153   -0.005982
     11          6           0        2.281569   -4.152369   -1.340311
     12          6           0        3.544109   -2.492303    1.999282
     13          6           0        4.946155   -3.001999    2.093873
     14          1           0        5.323037   -4.184291    1.116617
     15          7           0       -2.161626   -1.426750    0.005704
     16          6           0       -1.922641   -2.768732   -0.012608
     17          6           0       -3.182885   -3.426840   -0.066605
     18          6           0       -4.226078   -2.420396   -0.060342
     19          6           0       -3.504050   -1.104785   -0.019083
     20          6           0       -3.304639   -4.959521   -0.211786
     21          6           0       -5.720879   -2.495647   -0.044422
     22          8           0       -6.537971   -1.573655   -0.146173
     23          6           0       -6.315550   -3.937187    0.180865
     24          7           0       -2.180996    1.691898   -0.332212
     25          6           0       -3.470392    1.462727   -0.311050
     26          6           0       -4.289962    2.749666   -0.242275
     27          6           0       -3.194540    3.853719   -0.264930
     28          6           0       -1.916007    3.019818   -0.319455
     29          6           0       -5.351896    2.905766   -1.445938
     30          6           0       -3.307289    4.714119    1.070068
     31          6           0       -2.985070    4.091666    2.451097
     32          7           0        0.760807    1.604383   -0.176413
     33          6           0        0.581734    2.972062   -0.263596
     34          6           0        1.927857    3.573820   -0.176260
     35          6           0        2.844309    2.586503    0.028342
     36          6           0        2.056979    1.378350    0.016905
     37          6           0        2.218579    5.010816   -0.441416
     38          6           0        4.253533    2.250475    0.230027
     39          8           0        5.248679    2.954034    0.276093
     40          6           0        4.227840    0.664044    0.356252
     41          6           0        5.009873    0.125212   -0.775007
     42          8           0        4.839938    0.329847   -1.989592
     43          8           0        5.980035   -0.649734   -0.172431
     44          6           0        6.783283   -1.450949   -1.105220
     45          1           0       -0.762300   -4.492623    0.084275
     46          1           0       -5.125017    0.119261   -0.212630
     47          1           0       -0.667232    4.732381   -0.337033
     48          1           0        3.826033   -2.371518   -0.120407
     49          1           0        1.849094   -4.250747    0.847247
     50          1           0        3.308403   -3.965626   -1.654700
     51          1           0        1.696216   -3.617133   -2.087833
     52          1           0        1.968477   -5.188514   -1.218835
     53          1           0        2.921078   -3.157805    2.596878
     54          1           0        3.505205   -1.458391    2.341939
     55          1           0        5.176011   -3.440015    3.064369
     56          1           0        5.803639   -2.335144    2.002683
     57          1           0       -3.118242   -5.538574    0.692603
     58          1           0       -2.608458   -5.170005   -1.023484
     59          1           0       -4.320871   -5.286645   -0.430657
     60          1           0       -6.180886   -4.520705   -0.729923
     61          1           0       -7.313977   -3.825747    0.603348
     62          1           0       -5.850518   -4.477381    1.005764
     63          1           0       -4.807359    2.778148    0.716381
     64          1           0       -3.282749    4.539520   -1.107594
     65          1           0       -6.331402    2.720944   -1.003451
     66          1           0       -5.163927    2.153374   -2.212569
     67          1           0       -5.458867    3.864901   -1.951005
     68          1           0       -4.259054    5.226523    1.209430
     69          1           0       -2.518795    5.449359    0.906183
     70          1           0       -2.108679    4.658898    2.764910
     71          1           0       -2.813259    3.017295    2.398758
     72          1           0       -3.779636    4.213777    3.187167
     73          1           0        3.063870    5.206104    0.217749
     74          1           0        1.371105    5.662101   -0.226789
     75          1           0        2.689114    5.068595   -1.422055
     76          1           0        4.801407    0.554274    1.276237
     77          1           0        7.539093   -1.877038   -0.444810
     78          1           0        7.272812   -0.735324   -1.765790
     79          1           0        6.225490   -2.134718   -1.745416
 ---------------------------------------------------------------------

 SCF Done:  E(RwB97XD) =  -2035.30169325     A.U. after   20 cycles

 Excitation energies and oscillator strengths:

 Excited State   1:      Singlet-A      1.6460 eV  753.23 nm  f=0.3784  <S**2>=0.000
     155 ->158        -0.19188
     156 ->157         0.68168
     155 <-158        -0.11822
 This state for optimization and/or second-order correction.
 Total Energy, E(TD-HF/TD-DFT) =  -2035.24120265
 Copying the excited state density for this state as the 1-particle RhoCI density.

 Excited State   2:      Singlet-A      2.2138 eV  560.04 nm  f=0.0445  <S**2>=0.000
     155 ->157         0.60812
     156 ->158         0.34949

 Excited State   3:      Singlet-A      3.3630 eV  368.68 nm  f=0.3743  <S**2>=0.000
     153 ->157        -0.18408
     154 ->157        -0.37613
     155 ->157        -0.24791
     156 ->158         0.50143

 Excited State   4:      Singlet-A      3.4688 eV  357.42 nm  f=0.0076  <S**2>=0.000
     152 ->157         0.54384
     152 ->158         0.10542
     152 ->159        -0.33264
     152 ->160         0.19849
     154 ->157        -0.13106

 Excited State   5:      Singlet-A      3.5759 eV  346.72 nm  f=0.3664  <S**2>=0.000
     152 ->157         0.12152
     154 ->157         0.55128
     155 ->157        -0.22208
     156 ->158         0.32291

 The electronic state is 1-A.
 Alpha  occ. eigenvalues --  -46.95613 -19.30882 -19.25219 -19.24604 -19.24595
 Alpha  occ. eigenvalues --  -14.46920 -14.46804 -14.44130 -14.44084 -10.43387
 Alpha  occ. eigenvalues --  -10.39753 -10.39440 -10.36085 -10.35833 -10.35592
 Alpha  occ. eigenvalues --  -10.34910 -10.34446 -10.34160 -10.33984 -10.33581
 Alpha  occ. eigenvalues --  -10.33467 -10.33071 -10.32799 -10.32468 -10.32411
 Alpha  occ. eigenvalues --  -10.32190 -10.32026 -10.31965 -10.31823 -10.31670
 Alpha  occ. eigenvalues --  -10.31551 -10.31510 -10.31444 -10.31422 -10.31416
 Alpha  occ. eigenvalues --  -10.30484 -10.30454 -10.30360 -10.29773 -10.29737
 Alpha  occ. eigenvalues --  -10.29438 -10.29323 -10.28756  -3.21471  -1.95060
 Alpha  occ. eigenvalues --   -1.94580  -1.94440  -1.18141  -1.12438  -1.11883
 Alpha  occ. eigenvalues --   -1.09668  -1.07148  -1.05797  -1.04971  -1.03749
 Alpha  occ. eigenvalues --   -0.94349  -0.91052  -0.90683  -0.89919  -0.89219
 Alpha  occ. eigenvalues --   -0.88863  -0.88247  -0.86597  -0.85295  -0.84310
 Alpha  occ. eigenvalues --   -0.83489  -0.83197  -0.81947  -0.80066  -0.79300
 Alpha  occ. eigenvalues --   -0.79150  -0.77744  -0.76933  -0.74461  -0.74187
 Alpha  occ. eigenvalues --   -0.71808  -0.71237  -0.70339  -0.69464  -0.67274
 Alpha  occ. eigenvalues --   -0.66965  -0.66692  -0.66386  -0.64525  -0.62342
 Alpha  occ. eigenvalues --   -0.61402  -0.60926  -0.60787  -0.59951  -0.59502
 Alpha  occ. eigenvalues --   -0.57924  -0.57493  -0.56961  -0.56923  -0.56385
 Alpha  occ. eigenvalues --   -0.55476  -0.55169  -0.55138  -0.54324  -0.54216
 Alpha  occ. eigenvalues --   -0.54103  -0.53926  -0.53470  -0.53004  -0.52856
 Alpha  occ. eigenvalues --   -0.51843  -0.51589  -0.51243  -0.50909  -0.50509
 Alpha  occ. eigenvalues --   -0.50484  -0.50415  -0.50101  -0.49635  -0.49328
 Alpha  occ. eigenvalues --   -0.49193  -0.48820  -0.48720  -0.48143  -0.47790
 Alpha  occ. eigenvalues --   -0.47529  -0.47133  -0.46719  -0.46506  -0.45871
 Alpha  occ. eigenvalues --   -0.45436  -0.45186  -0.44959  -0.44893  -0.44747
 Alpha  occ. eigenvalues --   -0.44319  -0.44083  -0.44028  -0.43889  -0.43626
 Alpha  occ. eigenvalues --   -0.43460  -0.42708  -0.42422  -0.41704  -0.41419
 Alpha  occ. eigenvalues --   -0.39865  -0.39541  -0.39115  -0.38731  -0.38371
 Alpha  occ. eigenvalues --   -0.38288  -0.36642  -0.36219  -0.35733  -0.33440
 Alpha  occ. eigenvalues --   -0.33142  -0.32984  -0.32541  -0.32104  -0.26367
 Alpha  occ. eigenvalues --   -0.22779
 Alpha virt. eigenvalues --   -0.06849  -0.00481   0.01788   0.04209   0.05040
 Alpha virt. eigenvalues --    0.06921   0.07429   0.07788   0.09778   0.10793
 Alpha virt. eigenvalues --    0.11620   0.11963   0.12537   0.13030   0.13418

 Mulliken charges:
               1
     1  Mg   0.932656
     2  C   -0.005113
     3  C   -0.105939
     4  C   -0.037041
     5  C   -0.077771
     6  N   -0.442548
     7  C   -0.000965
     8  C   -0.039868
     9  C   -0.135904
    10  C    0.130607
    11  C    0.033353
    12  C    0.070030
    13  C   -0.138391
    14  H    0.000491
    15  N   -0.460733
    16  C    0.168971
    17  C   -0.150551
    18  C   -0.078092
    19  C    0.134053
    20  C    0.056741
    21  C    0.061863
    22  O   -0.237562
    23  C   -0.054770
    24  N   -0.260665
    25  C    0.017990
    26  C   -0.075263
    27  C   -0.047653
    28  C    0.027445
    29  C   -0.001697
    30  C   -0.063135
    31  C   -0.056340
    32  N   -0.406613
    33  C    0.141184
    34  C   -0.240996
    35  C   -0.006318
    36  C    0.120143
    37  C    0.082722
    38  C    0.139222
    39  O   -0.194709
    40  C   -0.109557
    41  C    0.275713
    42  O   -0.259076
    43  O   -0.369964
    44  C    0.139911
    45  H    0.001501
    46  H    0.024227
    47  H    0.003071
    48  H    0.030699
    49  H    0.027182
    50  H    0.043612
    51  H    0.045669
    52  H    0.050287
    53  H    0.039581
    54  H    0.041751
    55  H    0.043902
    56  H    0.061523
    57  H    0.055347
    58  H    0.062183
    59  H    0.016801
    60  H    0.079309
    61  H    0.051760
    62  H    0.041983
    63  H    0.050157
    64  H    0.039076
    65  H    0.042692
    66  H    0.048638
    67  H    0.040730
    68  H    0.041657
    69  H    0.020555
    70  H    0.044567
    71  H    0.039792
    72  H    0.038686
    73  H    0.047130
    74  H    0.040278
    75  H    0.066250
    76  H    0.068455
    77  H    0.059492
    78  H    0.056224
    79  H    0.059370
 Sum of Mulliken charges =  -0.00000

 Dipole moment (field-independent basis, Debye):
    X=             -1.1940    Y=             -3.5757    Z=              2.6678  Tot=              4.6183
 Quadrupole moment (field-independent basis, Debye-Ang):
   XX=           -277.0390   YY=           -225.5547   ZZ=           -257.3895
   XY=            -25.2153   XZ=              1.4605   YZ=              0.2255

 Normal termination of Gaussian 16 at Sat Sep 18 13:42:52 2021.
