 Gaussian 16, Revision A.03,
 Gaussian 16:  ES64L-G16RevA.03 25-Dec-2016

 --------------------------------
 #p wB97XD/Def2SVP td=(nstates=5)
 --------------------------------

 --------------------------------
 TDDFT excited states in gaussian
 --------------------------------
 Symbolic Z-matrix:
 Charge =  0 Multiplicity = 1

                         Standard orientation:
 ---------------------------------------------------------------------
 Center     Atomic      Atomic             Coordinates (Angstroms)
 Number     Number       Type             X           Y           Z
 ---------------------------------------------------------------------
      1         12           0       12.549999   -0.776966   -0.440525
      2          6           0       14.569004    2.180213   -0.065138
      3          6           0        9.861139    1.153578    0.394266
      4          6           0       10.728850   -3.593337   -0.494705
      5          6           0       15.416078   -2.573998   -0.768290
      6          7           0       12.261685    1.527822    0.071804
      7          6           0       13.250812    2.467640    0.100121
      8          6           0       12.595193    3.787356    0.254559
      9          6           0       11.101301    3.471981    0.542993
     10          6           0       10.995940    1.930274    0.386421
     11          6           0       10.680439    3.912437    1.981162
     12          6           0       12.785747    4.755151   -0.886413
     13          6           0       12.352738    6.201905   -0.712208
     14          1           0       13.329860    7.236877   -1.083685
     15          7           0       10.579722   -1.139751   -0.210909
     16          6           0        9.609017   -0.203825    0.241374
     17          6           0        8.305145   -0.890683    0.180067
     18          6           0        8.593633   -2.242951    0.015606
     19          6           0       10.047638   -2.384167   -0.182084
     20          6           0        7.014449   -0.151898    0.466069
     21          6           0        7.636242   -3.451749   -0.062713
     22          8           0        8.003399   -4.639193    0.014061
     23          6           0        6.206888   -3.156561   -0.270448
     24          7           0       12.994096   -2.846069   -0.544940
     25          6           0       12.125903   -3.836413   -0.568784
     26          6           0       12.789277   -5.237128   -0.673663
     27          6           0       14.230118   -4.843186   -1.006062
     28          6           0       14.209140   -3.344807   -0.808221
     29          6           0       12.669022   -6.033373    0.669432
     30          6           0       14.748157   -5.234121   -2.371780
     31          6           0       16.179063   -5.797597   -2.431904
     32          7           0       14.547510   -0.286644   -0.512674
     33          6           0       15.604947   -1.156410   -0.666298
     34          6           0       16.905846   -0.424423   -0.730468
     35          6           0       16.460538    0.856117   -0.471248
     36          6           0       15.072424    0.905670   -0.295239
     37          6           0       18.250649   -0.943535   -1.126732
     38          6           0       16.950153    2.217091   -0.308457
     39          8           0       18.103188    2.616181   -0.426531
     40          6           0       15.749527    3.152639   -0.038092
     41          6           0       16.086204    3.922828    1.131944
     42          8           0       16.068510    3.531092    2.323729
     43          8           0       16.276440    5.229156    0.797600
     44          6           0       16.352892    6.212829    1.855543
     45          1           0        8.980735    1.773326    0.575215
     46          1           0       10.170493   -4.520379   -0.349868
     47          1           0       16.263132   -3.251789   -0.645114
     48          1           0       13.064750    4.183125    1.154153
     49          1           0       10.428535    3.972589   -0.153555
     50          1           0        9.804624    4.527622    2.189952
     51          1           0       11.539560    4.475125    2.346051
     52          1           0       10.643458    3.109680    2.718072
     53          1           0       12.198824    4.459639   -1.756229
     54          1           0       13.765097    4.648321   -1.352025
     55          1           0       12.099898    6.405242    0.327304
     56          1           0       11.604169    6.369347   -1.486181
     57          1           0        6.340879   -0.673526    1.145683
     58          1           0        6.439811    0.098745   -0.425370
     59          1           0        7.135363    0.798275    0.986895
     60          1           0        6.115253   -2.482659   -1.122364
     61          1           0        5.941159   -2.645126    0.654058
     62          1           0        5.739840   -4.096591   -0.561919
     63          1           0       12.293592   -5.743883   -1.502376
     64          1           0       14.995249   -5.196402   -0.315339
     65          1           0       13.639531   -6.162355    1.147661
     66          1           0       12.296515   -7.043450    0.498810
     67          1           0       12.021770   -5.428195    1.304378
     68          1           0       14.681432   -4.409905   -3.081221
     69          1           0       13.944884   -5.838637   -2.791737
     70          1           0       16.217055   -6.460443   -3.295817
     71          1           0       16.508735   -6.230140   -1.486771
     72          1           0       16.755316   -4.883577   -2.573886
     73          1           0       18.533898   -0.716192   -2.154611
     74          1           0       18.247957   -1.993471   -0.835328
     75          1           0       18.994526   -0.587950   -0.412694
     76          1           0       15.788305    3.879804   -0.849108
     77          1           0       16.135953    5.826984    2.851972
     78          1           0       15.748266    7.086186    1.612584
     79          1           0       17.350839    6.643570    1.941271
     80         12           0      -12.921051   -0.696564    0.344930
     81          6           0      -13.582531    2.615257   -0.921599
     82          6           0      -11.179851    0.851013    2.966104
     83          6           0      -12.409182   -3.695343    1.579925
     84          6           0      -14.428814   -2.039724   -2.508787
     85          7           0      -12.437399    1.547118    0.900688
     86          6           0      -12.978696    2.678230    0.376442
     87          6           0      -12.750491    3.886021    1.270650
     88          6           0      -11.659383    3.365094    2.363010
     89          6           0      -11.732693    1.841341    2.056187
     90          6           0      -10.262559    4.027247    2.259910
     91          6           0      -14.073876    4.419204    1.916364
     92          6           0      -14.367651    5.910918    1.611144
     93          1           0      -14.358914    6.868450    2.937626
     94          7           0      -11.966592   -1.312462    1.990811
     95          6           0      -11.252644   -0.567345    2.989428
     96          6           0      -10.681844   -1.416481    4.061657
     97          6           0      -11.110228   -2.721716    3.652554
     98          6           0      -11.850642   -2.610015    2.384605
     99          6           0       -9.848564   -0.903964    5.238069
    100          6           0      -10.807998   -4.028753    4.280678
    101          8           0      -11.378559   -5.086784    4.038216
    102          6           0       -9.787825   -4.054245    5.435800
    103          7           0      -13.507896   -2.540790   -0.283152
    104          6           0      -13.148196   -3.658893    0.387661
    105          6           0      -13.408450   -4.919261   -0.389557
    106          6           0      -14.099671   -4.433992   -1.687532
    107          6           0      -14.078687   -2.901657   -1.488562
    108          6           0      -12.196616   -5.806415   -0.583330
    109          6           0      -15.638512   -4.996579   -1.768334
    110          6           0      -16.024592   -5.798938   -3.126801
    111          7           0      -13.595609    0.086103   -1.513451
    112          6           0      -14.263528   -0.621069   -2.542060
    113          6           0      -14.741535    0.362290   -3.520660
    114          6           0      -14.605516    1.598363   -2.835602
    115          6           0      -13.811987    1.389683   -1.706558
    116          6           0      -15.325742    0.153022   -4.914483
    117          6           0      -14.739091    3.064538   -3.066385
    118          8           0      -15.152438    3.792263   -4.011375
    119          6           0      -14.180823    3.734613   -1.751765
    120          6           0      -13.162701    4.765889   -2.140015
    121          8           0      -12.310692    4.596797   -2.965774
    122          8           0      -13.436792    5.942389   -1.499573
    123          6           0      -12.696454    7.091226   -2.079768
    124          1           0      -10.539301    1.372123    3.680375
    125          1           0      -12.269481   -4.718558    1.935679
    126          1           0      -14.937425   -2.435399   -3.390112
    127          1           0      -12.264858    4.634501    0.644467
    128          1           0      -12.011628    3.473134    3.389203
    129          1           0       -9.507159    3.297042    1.968135
    130          1           0       -9.987308    4.486064    3.210446
    131          1           0      -10.189753    4.882410    1.587933
    132          1           0      -14.057817    4.328673    3.002790
    133          1           0      -14.945149    3.869538    1.559204
    134          1           0      -15.392718    6.087045    1.284041
    135          1           0      -13.764241    6.350372    0.817487
    136          1           0       -9.912510    0.160739    5.464827
    137          1           0       -8.789951   -1.162051    5.211056
    138          1           0      -10.249514   -1.423541    6.108929
    139          1           0       -8.811739   -3.716650    5.087501
    140          1           0       -9.720505   -5.034772    5.908322
    141          1           0      -10.138786   -3.365287    6.204069
    142          1           0      -14.062479   -5.553224    0.210667
    143          1           0      -13.514278   -4.694608   -2.568797
    144          1           0      -12.222509   -6.715444    0.018210
    145          1           0      -11.247180   -5.365211   -0.280212
    146          1           0      -12.122355   -6.042930   -1.644968
    147          1           0      -16.398779   -4.223137   -1.664316
    148          1           0      -15.869007   -5.696730   -0.965796
    149          1           0      -15.074565   -6.127467   -3.548707
    150          1           0      -16.572946   -5.169205   -3.828614
    151          1           0      -16.538489   -6.733551   -2.903575
    152          1           0      -16.059778    0.916286   -5.172047
    153          1           0      -15.921523   -0.759894   -4.881526
    154          1           0      -14.443312    0.010309   -5.538389
    155          1           0      -15.017112    4.292131   -1.330753
    156          1           0      -11.639024    6.827458   -2.081476
    157          1           0      -12.821635    7.874374   -1.332193
    158          1           0      -12.925205    7.414439   -3.095264
 ---------------------------------------------------------------------

 SCF Done:  E(RwB97XD) =  -4070.60843248     A.U. after   20 cycles

 Excitation energies and oscillator strengths:

 Excited State   1:      Singlet-A      1.6153 eV  767.54 nm  f=0.3782  <S**2>=0.000
     310 -> 315       -0.19308
     311 -> 313        0.68176
     310 <- 315       -0.12118
 This state for optimization and/or second-order correction.
 Total Energy, E(TD-HF/TD-DFT) =  -4070.54906976
 Copying the excited state density for this state as the 1-particle RhoCI density.

 Excited State   2:      Singlet-A      1.6934 eV  732.17 nm  f=0.3722  <S**2>=0.000
     309 -> 316        0.20448
     312 -> 314        0.67902
     309 <- 316        0.12251

 Excited State   3:      Singlet-A      2.1191 eV  585.09 nm  f=0.1281  <S**2>=0.000
     310 -> 313        0.64520
     311 -> 315        0.27992

 Excited State   4:      Singlet-A      2.2626 eV  547.97 nm  f=0.0700  <S**2>=0.000
     309 -> 314        0.61594
     312 -> 316       -0.33989

 Excited State   5:      Singlet-A      3.6116 eV  343.30 nm  f=0.0000  <S**2>=0.000
     312 -> 313        0.70705

 The electronic state is 1-A.
 Alpha  occ. eigenvalues --  -46.94933 -46.94885 -19.30943 -19.30446 -19.24742
 Alpha  occ. eigenvalues --  -19.24124 -19.24081 -19.23864 -19.23816 -19.23715
 Alpha  occ. eigenvalues --  -14.47321 -14.46571 -14.46517 -14.45753 -14.45441
 Alpha  occ. eigenvalues --  -14.44435 -14.44229 -14.43901 -10.43038 -10.42731
 Alpha  occ. eigenvalues --  -10.39270 -10.39253 -10.39188 -10.38521 -10.35985
 Alpha  occ. eigenvalues --  -10.35757 -10.35754 -10.35697 -10.35370 -10.34996
 Alpha  occ. eigenvalues --  -10.34985 -10.34973 -10.34843 -10.34833 -10.34648
 Alpha  occ. eigenvalues --  -10.34626 -10.34602 -10.34504 -10.34482 -10.34128
 Alpha  occ. eigenvalues --  -10.34047 -10.33364 -10.33241 -10.33201 -10.33029
 Alpha  occ. eigenvalues --  -10.32986 -10.32787 -10.32604 -10.32577 -10.32570
 Alpha  occ. eigenvalues --  -10.32444 -10.32419 -10.32300 -10.32215 -10.32182
 Alpha  occ. eigenvalues --  -10.32100 -10.32074 -10.32057 -10.31939 -10.31762
 Alpha  occ. eigenvalues --  -10.31550 -10.31475 -10.31352 -10.31300 -10.31249
 Alpha  occ. eigenvalues --  -10.31224 -10.31150 -10.31073 -10.31007 -10.30787
 Alpha  occ. eigenvalues --  -10.30549 -10.30266 -10.30259 -10.30127 -10.30017
 Alpha  occ. eigenvalues --  -10.30011 -10.30005 -10.29886 -10.29878 -10.29873
 Alpha  occ. eigenvalues --  -10.29800 -10.29783 -10.29613 -10.29412 -10.29280
 Alpha  occ. eigenvalues --  -10.28687  -3.21009  -3.20921  -1.94598  -1.94522
 Alpha  occ. eigenvalues --   -1.94133  -1.94039  -1.93999  -1.93903  -1.19197
 Alpha  occ. eigenvalues --   -1.18351  -1.12279  -1.11755  -1.11326  -1.10950
 Alpha  occ. eigenvalues --   -1.09361  -1.08199  -1.07811  -1.06659  -1.06050
 Alpha  occ. eigenvalues --   -1.05345  -1.05131  -1.04701  -1.04277  -1.04137
 Alpha  occ. eigenvalues --   -0.95201  -0.93612  -0.91989  -0.91231  -0.90681
 Alpha  occ. eigenvalues --   -0.90457  -0.90427  -0.90077  -0.89585  -0.89427
 Alpha  occ. eigenvalues --   -0.89051  -0.89017  -0.88619  -0.87618  -0.86670
 Alpha  occ. eigenvalues --   -0.86017  -0.85996  -0.85127  -0.84860  -0.84577
 Alpha  occ. eigenvalues --   -0.83766  -0.83405  -0.83240  -0.82904  -0.82689
 Alpha  occ. eigenvalues --   -0.81780  -0.81156  -0.80680  -0.79688  -0.79415
 Alpha  occ. eigenvalues --   -0.79081  -0.78777  -0.78524  -0.78038  -0.77237
 Alpha  occ. eigenvalues --   -0.77226  -0.75031  -0.74619  -0.73972  -0.73473
 Alpha  occ. eigenvalues --   -0.71493  -0.71269  -0.71227  -0.70720  -0.70082
 Alpha  occ. eigenvalues --   -0.69602  -0.69173  -0.68574  -0.68367  -0.67893
 Alpha  occ. eigenvalues --   -0.67677  -0.67416  -0.67150  -0.66609  -0.66481
 Alpha  occ. eigenvalues --   -0.66088  -0.64577  -0.64416  -0.62909  -0.62435
 Alpha  occ. eigenvalues --   -0.61942  -0.61534  -0.61289  -0.60808  -0.60804
 Alpha  occ. eigenvalues --   -0.60404  -0.60399  -0.59996  -0.59667  -0.59202
 Alpha  occ. eigenvalues --   -0.58516  -0.58220  -0.57739  -0.57565  -0.57328
 Alpha  occ. eigenvalues --   -0.57020  -0.56532  -0.56412  -0.56004  -0.55869
 Alpha  occ. eigenvalues --   -0.55790  -0.55469  -0.55420  -0.55169  -0.54926
 Alpha  occ. eigenvalues --   -0.54696  -0.54590  -0.54208  -0.53951  -0.53837
 Alpha  occ. eigenvalues --   -0.53684  -0.53678  -0.53404  -0.53346  -0.53171
 Alpha  occ. eigenvalues --   -0.52846  -0.52759  -0.52498  -0.52478  -0.52261
 Alpha  occ. eigenvalues --   -0.52046  -0.51960  -0.51907  -0.51779  -0.51625
 Alpha  occ. eigenvalues --   -0.51475  -0.51229  -0.51052  -0.50799  -0.50644
 Alpha  occ. eigenvalues --   -0.50353  -0.50310  -0.50280  -0.50121  -0.50009
 Alpha  occ. eigenvalues --   -0.49923  -0.49805  -0.49607  -0.49487  -0.49337
 Alpha  occ. eigenvalues --   -0.49206  -0.49044  -0.49019  -0.48840  -0.48556
 Alpha  occ. eigenvalues --   -0.48510  -0.48200  -0.48200  -0.48007  -0.47939
 Alpha  occ. eigenvalues --   -0.47558  -0.47557  -0.47133  -0.47054  -0.46976
 Alpha  occ. eigenvalues --   -0.46814  -0.46745  -0.46506  -0.46404  -0.46099
 Alpha  occ. eigenvalues --   -0.45917  -0.45873  -0.45851  -0.45788  -0.45670
 Alpha  occ. eigenvalues --   -0.45386  -0.45343  -0.45108  -0.44838  -0.44612
 Alpha  occ. eigenvalues --   -0.44505  -0.44392  -0.44255  -0.44078  -0.44024
 Alpha  occ. eigenvalues --   -0.43713  -0.43688  -0.43578  -0.43550  -0.43329
 Alpha  occ. eigenvalues --   -0.43257  -0.43021  -0.42807  -0.42774  -0.42665
 Alpha  occ. eigenvalues --   -0.42447  -0.42129  -0.42087  -0.41851  -0.41366
 Alpha  occ. eigenvalues --   -0.40750  -0.40587  -0.40240  -0.39883  -0.39514
 Alpha  occ. eigenvalues --   -0.39405  -0.39265  -0.38591  -0.38057  -0.37953
 Alpha  occ. eigenvalues --   -0.37706  -0.37576  -0.36711  -0.36464  -0.35925
 Alpha  occ. eigenvalues --   -0.35536  -0.35321  -0.35208  -0.33928  -0.33822
 Alpha  occ. eigenvalues --   -0.33036  -0.33030  -0.32799  -0.32666  -0.32573
 Alpha  occ. eigenvalues --   -0.32548  -0.32479  -0.31571  -0.26046  -0.25887
 Alpha  occ. eigenvalues --   -0.23181  -0.22767
 Alpha virt. eigenvalues --   -0.07415  -0.06553   0.00001   0.00056   0.02105
 Alpha virt. eigenvalues --    0.02744   0.04082   0.04576   0.06091   0.06499
 Alpha virt. eigenvalues --    0.06641   0.06724   0.07649   0.07831   0.08087

 Mulliken charges:
               1
     1  Mg   0.974693
     2  C    0.002875
     3  C   -0.074111
     4  C   -0.058749
     5  C   -0.108706
     6  N   -0.330667
     7  C   -0.063206
     8  C    0.015597
     9  C   -0.121684
    10  C    0.063819
    11  C    0.011267
    12  C    0.011738
    13  C   -0.120035
    14  H    0.035398
    15  N   -0.515850
    16  C    0.189969
    17  C   -0.128872
    18  C   -0.091724
    19  C    0.167068
    20  C    0.036638
    21  C    0.055221
    22  O   -0.254779
    23  C    0.008595
    24  N   -0.326386
    25  C   -0.014199
    26  C   -0.059993
    27  C   -0.104846
    28  C    0.037615
    29  C    0.034227
    30  C    0.005116
    31  C   -0.035277
    32  N   -0.421200
    33  C    0.133110
    34  C   -0.209135
    35  C   -0.009043
    36  C    0.152839
    37  C    0.108959
    38  C    0.073458
    39  O   -0.209106
    40  C   -0.032060
    41  C    0.264660
    42  O   -0.283671
    43  O   -0.351437
    44  C    0.134866
    45  H   -0.012460
    46  H    0.030641
    47  H    0.003693
    48  H    0.033925
    49  H    0.037545
    50  H    0.040889
    51  H    0.017664
    52  H    0.035832
    53  H    0.014350
    54  H    0.025779
    55  H    0.056507
    56  H    0.056757
    57  H    0.040093
    58  H    0.054086
    59  H    0.038830
    60  H    0.053289
    61  H    0.060242
    62  H    0.061954
    63  H    0.043826
    64  H    0.028147
    65  H    0.033575
    66  H    0.048051
    67  H    0.054429
    68  H    0.023127
    69  H    0.008930
    70  H    0.052259
    71  H    0.038541
    72  H    0.041149
    73  H    0.077551
    74  H    0.017141
    75  H    0.049480
    76  H    0.080887
    77  H    0.066813
    78  H    0.047337
    79  H    0.046147
    80  Mg   0.990293
    81  C   -0.017493
    82  C   -0.078584
    83  C   -0.086315
    84  C   -0.079766
    85  N   -0.298169
    86  C   -0.019856
    87  C   -0.052995
    88  C   -0.107169
    89  C    0.010860
    90  C    0.015770
    91  C    0.042937
    92  C   -0.139133
    93  H   -0.009559
    94  N   -0.512259
    95  C    0.177280
    96  C   -0.130276
    97  C   -0.070882
    98  C    0.182011
    99  C    0.070196
   100  C    0.029603
   101  O   -0.236536
   102  C   -0.016500
   103  N   -0.420543
   104  C    0.093716
   105  C   -0.078841
   106  C   -0.074248
   107  C    0.101995
   108  C    0.012626
   109  C   -0.031850
   110  C   -0.079636
   111  N   -0.424277
   112  C    0.112388
   113  C   -0.186305
   114  C   -0.110847
   115  C    0.145404
   116  C    0.092636
   117  C    0.193606
   118  O   -0.247657
   119  C   -0.086683
   120  C    0.237206
   121  O   -0.215110
   122  O   -0.372138
   123  C    0.133814
   124  H   -0.004654
   125  H    0.021024
   126  H   -0.003229
   127  H    0.041418
   128  H    0.042992
   129  H    0.048034
   130  H    0.034590
   131  H    0.041206
   132  H    0.049136
   133  H    0.046254
   134  H    0.054814
   135  H    0.060288
   136  H    0.047019
   137  H    0.062773
   138  H    0.044972
   139  H    0.052650
   140  H    0.053833
   141  H    0.038530
   142  H    0.046356
   143  H    0.048410
   144  H    0.040370
   145  H    0.041990
   146  H    0.029171
   147  H    0.043087
   148  H    0.034753
   149  H    0.027507
   150  H    0.051985
   151  H    0.041032
   152  H    0.064001
   153  H    0.026540
   154  H    0.068651
   155  H    0.067164
   156  H    0.049974
   157  H    0.052130
   158  H    0.076513
 Sum of Mulliken charges =  -0.00000

 Dipole moment (field-independent basis, Debye):
    X=             -2.2393    Y=             -0.2065    Z=              2.4784  Tot=              3.3466
 Quadrupole moment (field-independent basis, Debye-Ang):
   XX=           -664.3667   YY=           -485.6862   ZZ=           -512.8972
   XY=             -5.3741   XZ=            -72.5556   YZ=             38.6198

 Normal termination of Gaussian 16 at Mon Sep 20 03:55:39 2021.
