 Gaussian 16, Revision A.03,
 Gaussian 16:  ES64L-G16RevA.03 25-Dec-2016

 --------------------------------
 #p wB97XD/Def2SVP td=(nstates=5)
 --------------------------------

 --------------------------------
 TDDFT excited states in gaussian
 --------------------------------
 Symbolic Z-matrix:
 Charge =  0 Multiplicity = 1

                         Standard orientation:
 ---------------------------------------------------------------------
 Center     Atomic      Atomic             Coordinates (Angstroms)
 Number     Number       Type             X           Y           Z
 ---------------------------------------------------------------------
      1         12           0       24.517599   -0.809614    0.344760
      2          6           0       24.662773    2.228118   -1.542916
      3          6           0       25.739452    0.955057    2.997320
      4          6           0       24.827385   -3.560063    1.892560
      5          6           0       24.402906   -2.517355   -2.691048
      6          7           0       25.087865    1.317014    0.574746
      7          6           0       25.039202    2.390534   -0.207788
      8          6           0       25.353361    3.718209    0.544513
      9          6           0       26.206443    3.126200    1.754379
     10          6           0       25.619592    1.726510    1.803367
     11          6           0       27.698453    3.023036    1.454770
     12          6           0       24.057213    4.434041    1.053742
     13          6           0       24.246939    5.884655    1.506596
     14          1           0       23.180777    6.842216    1.254162
     15          7           0       24.715127   -1.177975    2.275600
     16          6           0       25.216619   -0.338374    3.213077
     17          6           0       25.152817   -1.073499    4.494561
     18          6           0       24.750300   -2.475793    4.195152
     19          6           0       24.773933   -2.467418    2.754753
     20          6           0       25.408550   -0.432930    5.824230
     21          6           0       24.410126   -3.641721    5.068665
     22          8           0       24.313579   -4.830772    4.608870
     23          6           0       24.278134   -3.365763    6.510701
     24          7           0       24.824998   -2.772570   -0.295508
     25          6           0       24.863501   -3.785137    0.577538
     26          6           0       24.808487   -5.111154   -0.121456
     27          6           0       24.477897   -4.791433   -1.650587
     28          6           0       24.481602   -3.244677   -1.574411
     29          6           0       26.082960   -5.962882   -0.042160
     30          6           0       23.242942   -5.496669   -2.265360
     31          6           0       21.979485   -4.977201   -1.616569
     32          7           0       24.350893   -0.269808   -1.750917
     33          6           0       24.344913   -1.142686   -2.848516
     34          6           0       24.323626   -0.308227   -4.063956
     35          6           0       24.335520    1.000727   -3.586103
     36          6           0       24.389033    0.984948   -2.163015
     37          6           0       24.355322   -0.786287   -5.403690
     38          6           0       24.340342    2.409030   -3.947375
     39          8           0       24.212044    3.034453   -5.000883
     40          6           0       24.675357    3.259649   -2.643520
     41          6           0       23.678239    4.383464   -2.565383
     42          8           0       22.469532    4.152964   -2.357385
     43          8           0       24.331437    5.554272   -2.509866
     44          6           0       23.400708    6.709310   -2.401320
     45          1           0       26.336660    1.348509    3.822232
     46          1           0       24.823155   -4.532722    2.388901
     47          1           0       24.281019   -2.980222   -3.672042
     48          1           0       25.954398    4.430078   -0.021545
     49          1           0       26.008722    3.652875    2.687782
     50          1           0       27.912069    3.253208    0.411070
     51          1           0       27.970002    1.991616    1.680438
     52          1           0       28.275325    3.642062    2.142376
     53          1           0       23.745233    3.984668    1.996501
     54          1           0       23.271285    4.391880    0.298847
     55          1           0       25.205549    6.283880    1.174036
     56          1           0       24.311084    5.897160    2.594681
     57          1           0       25.843296    0.559692    5.713587
     58          1           0       26.186849   -1.017215    6.314710
     59          1           0       24.515261   -0.412932    6.448705
     60          1           0       25.214997   -2.952852    6.885322
     61          1           0       23.944823   -4.297708    6.965928
     62          1           0       23.523031   -2.592406    6.654534
     63          1           0       24.019174   -5.738228    0.291083
     64          1           0       25.298788   -5.067443   -2.312879
     65          1           0       25.921930   -6.953213    0.384478
     66          1           0       26.825016   -5.406591    0.529840
     67          1           0       26.600072   -6.101205   -0.991306
     68          1           0       23.284257   -6.568476   -2.074390
     69          1           0       23.158376   -5.354793   -3.342844
     70          1           0       21.906842   -5.577225   -0.710189
     71          1           0       21.120607   -5.146632   -2.266825
     72          1           0       22.088001   -3.936492   -1.310572
     73          1           0       23.622789   -0.197067   -5.955219
     74          1           0       24.123867   -1.850186   -5.450062
     75          1           0       25.390220   -0.572100   -5.670086
     76          1           0       25.695220    3.624662   -2.760854
     77          1           0       23.628905    7.384056   -3.226474
     78          1           0       23.504347    7.096574   -1.387569
     79          1           0       22.347697    6.499449   -2.592282
     80         12           0      -25.144268   -0.424459   -0.483853
     81          6           0      -22.875740    2.230686   -0.429305
     82          6           0      -26.987624    1.335735    1.924088
     83          6           0      -27.100143   -3.097229   -0.004444
     84          6           0      -22.738696   -2.368108   -1.993408
     85          7           0      -25.024259    1.657251    0.584557
     86          6           0      -23.944411    2.468738    0.430132
     87          6           0      -24.082060    3.753460    1.339720
     88          6           0      -25.308384    3.309661    2.286445
     89          6           0      -25.794096    2.013073    1.616996
     90          6           0      -24.704748    2.933180    3.686048
     91          6           0      -24.494854    4.948173    0.403608
     92          6           0      -24.823704    6.306452    1.080917
     93          1           0      -25.957585    7.248209    0.803859
     94          7           0      -26.894593   -0.723717    0.621687
     95          6           0      -27.550415    0.114894    1.538377
     96          6           0      -28.665164   -0.577968    2.032543
     97          6           0      -28.822952   -1.778635    1.353319
     98          6           0      -27.583419   -1.907792    0.605089
     99          6           0      -29.593011    0.084016    2.997878
    100          6           0      -29.930492   -2.878250    1.460025
    101          8           0      -29.968161   -3.902837    0.787163
    102          6           0      -31.206651   -2.669461    2.279881
    103          7           0      -24.870857   -2.449780   -0.839179
    104          6           0      -25.893380   -3.319756   -0.681610
    105          6           0      -25.640103   -4.695151   -1.329306
    106          6           0      -24.186072   -4.506875   -1.844198
    107          6           0      -23.927742   -3.020750   -1.672458
    108          6           0      -25.961905   -5.917574   -0.406947
    109          6           0      -23.862367   -5.035316   -3.268542
    110          6           0      -24.362825   -4.234631   -4.394966
    111          7           0      -23.236331   -0.156091   -1.190066
    112          6           0      -22.400768   -0.991708   -1.762055
    113          6           0      -21.176388   -0.321593   -2.212025
    114          6           0      -21.369538    0.992587   -1.678256
    115          6           0      -22.595415    1.036297   -1.043469
    116          6           0      -20.249820   -0.710647   -3.267101
    117          6           0      -20.746400    2.302404   -1.602768
    118          8           0      -19.737764    2.727635   -2.118803
    119          6           0      -21.696799    3.115751   -0.715733
    120          6           0      -20.980517    3.682119    0.514748
    121          8           0      -20.715039    3.043362    1.499662
    122          8           0      -20.633108    4.990368    0.276347
    123          6           0      -19.941245    5.612399    1.428729
    124          1           0      -27.617963    1.946743    2.572228
    125          1           0      -27.808940   -3.926873   -0.052114
    126          1           0      -22.228569   -3.143147   -2.568037
    127          1           0      -23.198357    3.927514    1.954151
    128          1           0      -26.089100    4.062528    2.401903
    129          1           0      -24.652547    1.871323    3.924393
    130          1           0      -25.383033    3.198392    4.497403
    131          1           0      -23.713349    3.348255    3.866411
    132          1           0      -25.342888    4.611716   -0.192215
    133          1           0      -23.692978    5.069897   -0.325096
    134          1           0      -23.879683    6.850512    1.038645
    135          1           0      -25.031054    5.971889    2.096617
    136          1           0      -29.302482    1.083221    3.323454
    137          1           0      -29.807423   -0.628569    3.795516
    138          1           0      -30.507532    0.219239    2.419758
    139          1           0      -31.035288   -2.621948    3.355334
    140          1           0      -32.015955   -3.361348    2.046051
    141          1           0      -31.632563   -1.724364    1.942475
    142          1           0      -26.386850   -4.613739   -2.118649
    143          1           0      -23.575901   -5.017146   -1.098932
    144          1           0      -26.754942   -5.675190    0.299700
    145          1           0      -25.069513   -6.182941    0.160509
    146          1           0      -26.318916   -6.784221   -0.963720
    147          1           0      -24.351763   -6.008590   -3.250046
    148          1           0      -22.794718   -5.240074   -3.350228
    149          1           0      -23.666215   -3.421832   -4.599759
    150          1           0      -25.376523   -3.881818   -4.206125
    151          1           0      -24.374210   -4.803530   -5.325132
    152          1           0      -20.835102   -1.353355   -3.925153
    153          1           0      -19.390109   -1.337744   -3.030468
    154          1           0      -19.909344    0.212763   -3.734404
    155          1           0      -22.097376    3.929781   -1.320779
    156          1           0      -19.196442    6.309652    1.045514
    157          1           0      -19.295171    4.956219    2.012308
    158          1           0      -20.636954    6.190355    2.036184
 ---------------------------------------------------------------------

 SCF Done:  E(RwB97XD) =  -4070.62913801     A.U. after   19 cycles

 Excitation energies and oscillator strengths:

 Excited State   1:      Singlet-A      1.6216 eV  764.59 nm  f=0.3851  <S**2>=0.000
     309 -> 315        0.18181
     311 -> 313        0.68329
     309 <- 315        0.11455
 This state for optimization and/or second-order correction.
 Total Energy, E(TD-HF/TD-DFT) =  -4070.56954575
 Copying the excited state density for this state as the 1-particle RhoCI density.

 Excited State   2:      Singlet-A      1.6938 eV  731.97 nm  f=0.3900  <S**2>=0.000
     310 -> 316       -0.19055
     312 -> 314        0.68142
     310 <- 316       -0.11528

 Excited State   3:      Singlet-A      2.1385 eV  579.76 nm  f=0.0951  <S**2>=0.000
     309 -> 313        0.63834
     311 -> 315       -0.28197

 Excited State   4:      Singlet-A      2.2136 eV  560.09 nm  f=0.1128  <S**2>=0.000
     310 -> 314        0.64264
     312 -> 316        0.27813

 Excited State   5:      Singlet-A      3.3016 eV  375.53 nm  f=0.0077  <S**2>=0.000
     306 -> 313       -0.44220
     307 -> 313        0.48827
     311 -> 315       -0.17013

 The electronic state is 1-A.
 Alpha  occ. eigenvalues --  -46.95041 -46.94095 -19.31462 -19.31008 -19.25329
 Alpha  occ. eigenvalues --  -19.24487 -19.23956 -19.23852 -19.23841 -19.23189
 Alpha  occ. eigenvalues --  -14.47007 -14.46850 -14.46016 -14.45607 -14.43987
 Alpha  occ. eigenvalues --  -14.43772 -14.43683 -14.43127 -10.43624 -10.42901
 Alpha  occ. eigenvalues --  -10.40189 -10.39398 -10.38478 -10.38377 -10.35550
 Alpha  occ. eigenvalues --  -10.35418 -10.35396 -10.35118 -10.34874 -10.34673
 Alpha  occ. eigenvalues --  -10.34576 -10.34559 -10.34510 -10.34450 -10.34162
 Alpha  occ. eigenvalues --  -10.33931 -10.33861 -10.33794 -10.33730 -10.33561
 Alpha  occ. eigenvalues --  -10.33211 -10.32781 -10.32746 -10.32664 -10.32638
 Alpha  occ. eigenvalues --  -10.32563 -10.32432 -10.32298 -10.32113 -10.31991
 Alpha  occ. eigenvalues --  -10.31834 -10.31756 -10.31719 -10.31679 -10.31676
 Alpha  occ. eigenvalues --  -10.31642 -10.31559 -10.31516 -10.31515 -10.31477
 Alpha  occ. eigenvalues --  -10.31440 -10.31394 -10.31365 -10.31155 -10.31142
 Alpha  occ. eigenvalues --  -10.31000 -10.30898 -10.30600 -10.30245 -10.30245
 Alpha  occ. eigenvalues --  -10.30087 -10.30047 -10.30038 -10.29966 -10.29958
 Alpha  occ. eigenvalues --  -10.29864 -10.29701 -10.29644 -10.29315 -10.29242
 Alpha  occ. eigenvalues --  -10.29094 -10.28920 -10.28833 -10.28771 -10.28441
 Alpha  occ. eigenvalues --  -10.28295  -3.21047  -3.20253  -1.94621  -1.94183
 Alpha  occ. eigenvalues --   -1.94003  -1.93830  -1.93397  -1.93234  -1.18983
 Alpha  occ. eigenvalues --   -1.18786  -1.12643  -1.12499  -1.10957  -1.10817
 Alpha  occ. eigenvalues --   -1.09399  -1.08799  -1.06953  -1.06534  -1.05793
 Alpha  occ. eigenvalues --   -1.05735  -1.05349  -1.05223  -1.04495  -1.04402
 Alpha  occ. eigenvalues --   -0.95788  -0.93892  -0.91376  -0.91274  -0.91014
 Alpha  occ. eigenvalues --   -0.90505  -0.90135  -0.90086  -0.89754  -0.89555
 Alpha  occ. eigenvalues --   -0.89451  -0.89195  -0.89127  -0.88102  -0.86841
 Alpha  occ. eigenvalues --   -0.85972  -0.85779  -0.85506  -0.84862  -0.84526
 Alpha  occ. eigenvalues --   -0.84293  -0.83485  -0.83459  -0.82849  -0.82518
 Alpha  occ. eigenvalues --   -0.82360  -0.80736  -0.80494  -0.79510  -0.79105
 Alpha  occ. eigenvalues --   -0.78812  -0.78503  -0.78041  -0.77819  -0.76798
 Alpha  occ. eigenvalues --   -0.76776  -0.74716  -0.74443  -0.73751  -0.73594
 Alpha  occ. eigenvalues --   -0.71945  -0.71761  -0.71122  -0.70795  -0.70307
 Alpha  occ. eigenvalues --   -0.69611  -0.69137  -0.69019  -0.67329  -0.67184
 Alpha  occ. eigenvalues --   -0.66802  -0.66772  -0.66557  -0.66401  -0.66188
 Alpha  occ. eigenvalues --   -0.65962  -0.64471  -0.64242  -0.62400  -0.62094
 Alpha  occ. eigenvalues --   -0.61722  -0.61441  -0.61322  -0.60935  -0.60553
 Alpha  occ. eigenvalues --   -0.60456  -0.60234  -0.59510  -0.59334  -0.59232
 Alpha  occ. eigenvalues --   -0.58467  -0.58257  -0.57821  -0.57590  -0.57458
 Alpha  occ. eigenvalues --   -0.57458  -0.57225  -0.57218  -0.56548  -0.56430
 Alpha  occ. eigenvalues --   -0.55927  -0.55777  -0.55216  -0.55206  -0.55127
 Alpha  occ. eigenvalues --   -0.55060  -0.54838  -0.54644  -0.54586  -0.54499
 Alpha  occ. eigenvalues --   -0.54285  -0.54020  -0.53797  -0.53494  -0.53093
 Alpha  occ. eigenvalues --   -0.53053  -0.52908  -0.52499  -0.52493  -0.52263
 Alpha  occ. eigenvalues --   -0.51906  -0.51857  -0.51843  -0.51598  -0.51413
 Alpha  occ. eigenvalues --   -0.51359  -0.51156  -0.51134  -0.50980  -0.50891
 Alpha  occ. eigenvalues --   -0.50729  -0.50477  -0.50447  -0.50386  -0.50347
 Alpha  occ. eigenvalues --   -0.49835  -0.49584  -0.49424  -0.49205  -0.49041
 Alpha  occ. eigenvalues --   -0.48659  -0.48602  -0.48439  -0.48276  -0.48066
 Alpha  occ. eigenvalues --   -0.48058  -0.47892  -0.47699  -0.47628  -0.47264
 Alpha  occ. eigenvalues --   -0.47068  -0.46980  -0.46899  -0.46627  -0.46466
 Alpha  occ. eigenvalues --   -0.46378  -0.46339  -0.46113  -0.46015  -0.45975
 Alpha  occ. eigenvalues --   -0.45960  -0.45903  -0.45753  -0.45607  -0.45342
 Alpha  occ. eigenvalues --   -0.45288  -0.45254  -0.45167  -0.44926  -0.44823
 Alpha  occ. eigenvalues --   -0.44621  -0.44525  -0.44511  -0.44415  -0.44300
 Alpha  occ. eigenvalues --   -0.43879  -0.43798  -0.43674  -0.43610  -0.43392
 Alpha  occ. eigenvalues --   -0.42993  -0.42826  -0.42704  -0.42618  -0.42416
 Alpha  occ. eigenvalues --   -0.42145  -0.42087  -0.41494  -0.41346  -0.40718
 Alpha  occ. eigenvalues --   -0.40385  -0.40325  -0.39808  -0.39662  -0.39653
 Alpha  occ. eigenvalues --   -0.39321  -0.39310  -0.39154  -0.38806  -0.38675
 Alpha  occ. eigenvalues --   -0.38261  -0.38152  -0.36893  -0.36250  -0.36245
 Alpha  occ. eigenvalues --   -0.35745  -0.35396  -0.35310  -0.33609  -0.33321
 Alpha  occ. eigenvalues --   -0.33152  -0.33092  -0.32764  -0.32249  -0.31968
 Alpha  occ. eigenvalues --   -0.31584  -0.31446  -0.31319  -0.25970  -0.25719
 Alpha  occ. eigenvalues --   -0.22889  -0.22880
 Alpha virt. eigenvalues --   -0.07072  -0.06715   0.00213   0.00607   0.02018
 Alpha virt. eigenvalues --    0.02496   0.04345   0.04362   0.05401   0.06300
 Alpha virt. eigenvalues --    0.07136   0.07292   0.07364   0.08079   0.08856

 Mulliken charges:
               1
     1  Mg   0.978408
     2  C   -0.020088
     3  C   -0.101307
     4  C   -0.061295
     5  C   -0.071002
     6  N   -0.323256
     7  C   -0.008564
     8  C   -0.058246
     9  C   -0.138108
    10  C    0.061933
    11  C    0.058286
    12  C    0.014040
    13  C   -0.126935
    14  H    0.052403
    15  N   -0.518236
    16  C    0.183484
    17  C   -0.196098
    18  C   -0.036976
    19  C    0.166569
    20  C    0.061056
    21  C    0.056780
    22  O   -0.280031
    23  C    0.001466
    24  N   -0.410040
    25  C    0.066123
    26  C   -0.084785
    27  C   -0.063931
    28  C    0.089655
    29  C    0.031889
    30  C   -0.016716
    31  C   -0.058148
    32  N   -0.398775
    33  C    0.097333
    34  C   -0.187952
    35  C   -0.040095
    36  C    0.126395
    37  C    0.081448
    38  C    0.128825
    39  O   -0.224740
    40  C   -0.076868
    41  C    0.275897
    42  O   -0.284550
    43  O   -0.335679
    44  C    0.120623
    45  H    0.007850
    46  H    0.010687
    47  H   -0.017353
    48  H    0.026014
    49  H    0.022607
    50  H    0.047106
    51  H    0.037786
    52  H    0.040072
    53  H    0.035394
    54  H    0.067722
    55  H    0.038938
    56  H    0.040608
    57  H    0.029623
    58  H    0.048882
    59  H    0.062070
    60  H    0.057848
    61  H    0.061858
    62  H    0.053100
    63  H    0.042923
    64  H    0.035653
    65  H    0.045310
    66  H    0.034311
    67  H    0.025695
    68  H    0.032615
    69  H    0.029416
    70  H    0.029218
    71  H    0.042229
    72  H    0.049666
    73  H    0.070919
    74  H    0.031421
    75  H    0.069394
    76  H    0.065860
    77  H    0.061276
    78  H    0.062802
    79  H    0.070291
    80  Mg   0.972860
    81  C   -0.006757
    82  C   -0.074276
    83  C   -0.111214
    84  C   -0.060495
    85  N   -0.282011
    86  C   -0.051657
    87  C   -0.080796
    88  C   -0.121413
    89  C    0.038225
    90  C    0.009338
    91  C   -0.013333
    92  C   -0.096424
    93  H    0.058559
    94  N   -0.474602
    95  C    0.176500
    96  C   -0.164682
    97  C   -0.081290
    98  C    0.151358
    99  C    0.071420
   100  C    0.085582
   101  O   -0.233796
   102  C   -0.021744
   103  N   -0.406202
   104  C    0.075670
   105  C   -0.112125
   106  C   -0.035689
   107  C   -0.010099
   108  C    0.035585
   109  C   -0.020905
   110  C   -0.015392
   111  N   -0.411249
   112  C    0.152417
   113  C   -0.157262
   114  C   -0.070526
   115  C    0.151090
   116  C    0.070553
   117  C    0.116258
   118  O   -0.187603
   119  C   -0.074820
   120  C    0.263901
   121  O   -0.227661
   122  O   -0.360623
   123  C    0.124771
   124  H   -0.012622
   125  H    0.022327
   126  H   -0.019464
   127  H    0.047400
   128  H    0.048719
   129  H    0.042534
   130  H    0.025840
   131  H    0.050538
   132  H    0.035469
   133  H    0.032156
   134  H    0.051121
   135  H    0.036219
   136  H    0.044459
   137  H    0.048602
   138  H    0.050157
   139  H    0.058404
   140  H    0.054785
   141  H    0.041332
   142  H    0.041042
   143  H    0.042849
   144  H    0.049060
   145  H    0.031777
   146  H    0.040089
   147  H    0.022779
   148  H    0.034935
   149  H    0.032058
   150  H    0.032790
   151  H    0.035431
   152  H    0.029559
   153  H    0.041872
   154  H    0.063996
   155  H    0.079214
   156  H    0.049963
   157  H    0.069114
   158  H    0.056057
 Sum of Mulliken charges =  -0.00000

 Dipole moment (field-independent basis, Debye):
    X=             -1.2710    Y=              1.3706    Z=              5.7155  Tot=              6.0134
 Quadrupole moment (field-independent basis, Debye-Ang):
   XX=           -217.9669   YY=           -479.9709   ZZ=           -496.4162
   XY=            -12.9393   XZ=             52.4873   YZ=             56.0304

 Normal termination of Gaussian 16 at Sun Sep 19 07:46:05 2021.
