 Gaussian 16, Revision A.03,
 Gaussian 16:  ES64L-G16RevA.03 25-Dec-2016

 --------------------------------
 #p wB97XD/Def2SVP td=(nstates=5)
 --------------------------------

 --------------------------------
 TDDFT excited states in gaussian
 --------------------------------
 Symbolic Z-matrix:
 Charge =  0 Multiplicity = 1

                         Standard orientation:
 ---------------------------------------------------------------------
 Center     Atomic      Atomic             Coordinates (Angstroms)
 Number     Number       Type             X           Y           Z
 ---------------------------------------------------------------------
      1         12           0       -0.654784    0.128745    0.128102
      2          6           0        2.716215    0.408414    0.250024
      3          6           0       -0.363808   -3.330663    0.015951
      4          6           0       -4.026299   -0.150401   -0.000102
      5          6           0       -0.926987    3.558379   -0.254725
      6          7           0        0.973410   -1.201313    0.244226
      7          6           0        2.298192   -0.907747    0.256870
      8          6           0        3.154398   -2.122097    0.505194
      9          6           0        2.191196   -3.318410    0.152224
     10          6           0        0.821692   -2.563412    0.166174
     11          6           0        2.456137   -4.208337   -1.133309
     12          6           0        3.612768   -2.221177    2.029608
     13          6           0        4.917424   -3.052537    2.207225
     14          1           0        5.314054   -4.162588    1.219492
     15          7           0       -2.059106   -1.508671   -0.059323
     16          6           0       -1.684498   -2.877851   -0.073839
     17          6           0       -2.859821   -3.692411   -0.147340
     18          6           0       -3.970956   -2.776021   -0.171034
     19          6           0       -3.341741   -1.411801   -0.057467
     20          6           0       -2.864962   -5.180257   -0.102412
     21          6           0       -5.464648   -3.070475   -0.252042
     22          8           0       -6.381242   -2.207311   -0.384648
     23          6           0       -5.943863   -4.511008   -0.193571
     24          7           0       -2.243169    1.482131   -0.162542
     25          6           0       -3.588916    1.155488    0.011938
     26          6           0       -4.533452    2.377379    0.201947
     27          6           0       -3.417735    3.565110    0.154533
     28          6           0       -2.124939    2.869765   -0.068785
     29          6           0       -5.546728    2.410874   -0.949397
     30          6           0       -3.435089    4.478086    1.344953
     31          6           0       -3.605077    5.926777    0.986684
     32          7           0        0.514253    1.681974   -0.098207
     33          6           0        0.318630    3.052164   -0.218955
     34          6           0        1.565674    3.719442   -0.286532
     35          6           0        2.583784    2.737459   -0.153070
     36          6           0        1.908005    1.518692    0.067077
     37          6           0        1.843908    5.167533   -0.418946
     38          6           0        4.008588    2.496765   -0.219668
     39          8           0        4.987949    3.182941   -0.437551
     40          6           0        4.110211    0.935604    0.125265
     41          6           0        5.136830    0.240467   -0.694511
     42          8           0        5.325683    0.375015   -1.876477
     43          8           0        5.921945   -0.579712    0.021107
     44          6           0        6.951380   -1.301410   -0.779786
     45          1           0       -0.155697   -4.382997   -0.188964
     46          1           0       -5.098993   -0.254990   -0.175243
     47          1           0       -0.927225    4.650299   -0.259044
     48          1           0        3.967000   -2.213062   -0.215376
     49          1           0        2.146402   -3.984747    1.013072
     50          1           0        3.405211   -3.883716   -1.560061
     51          1           0        1.697517   -4.207075   -1.914388
     52          1           0        2.487729   -5.242841   -0.790870
     53          1           0        2.751234   -2.652957    2.539249
     54          1           0        3.778994   -1.203053    2.381806
     55          1           0        4.785606   -3.475010    3.203506
     56          1           0        5.722379   -2.328288    2.329351
     57          1           0       -2.798697   -5.625440    0.890372
     58          1           0       -2.036532   -5.488556   -0.738953
     59          1           0       -3.683227   -5.623718   -0.668984
     60          1           0       -5.852317   -4.896008   -1.209083
     61          1           0       -6.998181   -4.442868    0.073389
     62          1           0       -5.366253   -5.144865    0.479486
     63          1           0       -5.076757    2.194367    1.129077
     64          1           0       -3.622728    4.194446   -0.712159
     65          1           0       -5.369753    1.704367   -1.760609
     66          1           0       -5.670953    3.442088   -1.279100
     67          1           0       -6.490472    2.071999   -0.521089
     68          1           0       -2.503912    4.464180    1.911512
     69          1           0       -4.196202    4.242022    2.088755
     70          1           0       -4.375939    6.425380    1.573582
     71          1           0       -3.880917    6.047148   -0.060608
     72          1           0       -2.600093    6.340625    1.074444
     73          1           0        1.108748    5.747611   -0.977548
     74          1           0        2.665406    5.195966   -1.135370
     75          1           0        2.030495    5.602561    0.562967
     76          1           0        4.521858    1.056225    1.127734
     77          1           0        7.798624   -0.661661   -1.030826
     78          1           0        6.512583   -1.831294   -1.625398
     79          1           0        7.362937   -2.099109   -0.160916
 ---------------------------------------------------------------------

 SCF Done:  E(RwB97XD) =  -2035.30637324     A.U. after   20 cycles

 Excitation energies and oscillator strengths:

 Excited State   1:      Singlet-A      1.5874 eV  781.05 nm  f=0.3897  <S**2>=0.000
     155 ->158        -0.17583
     156 ->157         0.68653
     155 <-158        -0.11665
 This state for optimization and/or second-order correction.
 Total Energy, E(TD-HF/TD-DFT) =  -2035.24803705
 Copying the excited state density for this state as the 1-particle RhoCI density.

 Excited State   2:      Singlet-A      2.1692 eV  571.57 nm  f=0.1097  <S**2>=0.000
     155 ->157         0.63602
     156 ->158         0.29410

 Excited State   3:      Singlet-A      3.3098 eV  374.60 nm  f=0.0147  <S**2>=0.000
     153 ->157         0.10158
     154 ->157         0.67080
     156 ->158        -0.11087

 Excited State   4:      Singlet-A      3.4668 eV  357.63 nm  f=0.2722  <S**2>=0.000
     151 ->157        -0.25453
     152 ->157         0.23765
     152 ->159         0.14816
     152 ->160         0.10739
     153 ->157        -0.17764
     154 ->157         0.12215
     155 ->157        -0.19013
     156 ->158         0.47850

 Excited State   5:      Singlet-A      3.4808 eV  356.19 nm  f=0.0982  <S**2>=0.000
     151 ->157         0.18774
     152 ->157         0.44382
     152 ->159         0.32409
     152 ->160         0.18526
     153 ->157        -0.14408
     155 ->157         0.11543
     156 ->158        -0.23530

 The electronic state is 1-A.
 Alpha  occ. eigenvalues --  -46.93514 -19.30375 -19.24286 -19.23699 -19.23557
 Alpha  occ. eigenvalues --  -14.47465 -14.46302 -14.44115 -14.43409 -10.42422
 Alpha  occ. eigenvalues --  -10.39225 -10.39178 -10.35819 -10.35386 -10.34956
 Alpha  occ. eigenvalues --  -10.34722 -10.34522 -10.34126 -10.33902 -10.33336
 Alpha  occ. eigenvalues --  -10.32968 -10.32897 -10.32841 -10.32311 -10.32193
 Alpha  occ. eigenvalues --  -10.32105 -10.31919 -10.31913 -10.31815 -10.31764
 Alpha  occ. eigenvalues --  -10.31604 -10.31595 -10.31547 -10.31147 -10.30684
 Alpha  occ. eigenvalues --  -10.29975 -10.29715 -10.29635 -10.29503 -10.29447
 Alpha  occ. eigenvalues --  -10.29331 -10.29286 -10.28921  -3.19763  -1.93353
 Alpha  occ. eigenvalues --   -1.92878  -1.92785  -1.19481  -1.12391  -1.09629
 Alpha  occ. eigenvalues --   -1.09456  -1.06524  -1.05608  -1.04732  -1.03428
 Alpha  occ. eigenvalues --   -0.95363  -0.91587  -0.90732  -0.90451  -0.89600
 Alpha  occ. eigenvalues --   -0.89175  -0.88365  -0.86241  -0.85727  -0.84384
 Alpha  occ. eigenvalues --   -0.83594  -0.83008  -0.82470  -0.80313  -0.79713
 Alpha  occ. eigenvalues --   -0.79277  -0.78468  -0.77161  -0.74883  -0.73820
 Alpha  occ. eigenvalues --   -0.71081  -0.70596  -0.70149  -0.68685  -0.67792
 Alpha  occ. eigenvalues --   -0.67308  -0.66780  -0.66088  -0.64333  -0.62337
 Alpha  occ. eigenvalues --   -0.61892  -0.60942  -0.60370  -0.59970  -0.59725
 Alpha  occ. eigenvalues --   -0.58083  -0.57361  -0.57161  -0.56992  -0.55863
 Alpha  occ. eigenvalues --   -0.55287  -0.54962  -0.54814  -0.54461  -0.54369
 Alpha  occ. eigenvalues --   -0.54111  -0.53910  -0.53251  -0.53089  -0.52242
 Alpha  occ. eigenvalues --   -0.52020  -0.51932  -0.51604  -0.50950  -0.50801
 Alpha  occ. eigenvalues --   -0.50314  -0.50139  -0.49907  -0.49757  -0.49260
 Alpha  occ. eigenvalues --   -0.49133  -0.48637  -0.48547  -0.48304  -0.47846
 Alpha  occ. eigenvalues --   -0.47151  -0.46855  -0.46715  -0.46481  -0.46001
 Alpha  occ. eigenvalues --   -0.45832  -0.45469  -0.45212  -0.45126  -0.44370
 Alpha  occ. eigenvalues --   -0.44258  -0.43985  -0.43844  -0.43336  -0.42958
 Alpha  occ. eigenvalues --   -0.42840  -0.42506  -0.42330  -0.42283  -0.41928
 Alpha  occ. eigenvalues --   -0.40211  -0.39889  -0.39639  -0.39175  -0.38990
 Alpha  occ. eigenvalues --   -0.38648  -0.36626  -0.36212  -0.35436  -0.33688
 Alpha  occ. eigenvalues --   -0.32821  -0.32648  -0.32140  -0.31760  -0.26237
 Alpha  occ. eigenvalues --   -0.22841
 Alpha virt. eigenvalues --   -0.07328   0.00291   0.02163   0.04332   0.06119
 Alpha virt. eigenvalues --    0.07432   0.07844   0.08024   0.09672   0.10950
 Alpha virt. eigenvalues --    0.11470   0.11951   0.12790   0.13023   0.13238

 Mulliken charges:
               1
     1  Mg   0.985570
     2  C    0.012771
     3  C   -0.095381
     4  C   -0.062385
     5  C   -0.128147
     6  N   -0.378309
     7  C   -0.008646
     8  C   -0.043358
     9  C   -0.122010
    10  C    0.058094
    11  C    0.021163
    12  C    0.005367
    13  C   -0.092506
    14  H    0.043465
    15  N   -0.389557
    16  C    0.163940
    17  C   -0.155430
    18  C   -0.073782
    19  C    0.100053
    20  C    0.064891
    21  C    0.052923
    22  O   -0.274735
    23  C   -0.022154
    24  N   -0.391984
    25  C    0.057845
    26  C   -0.092119
    27  C   -0.027234
    28  C    0.108996
    29  C    0.008975
    30  C   -0.008550
    31  C   -0.062932
    32  N   -0.527682
    33  C    0.189836
    34  C   -0.191430
    35  C   -0.055023
    36  C    0.141705
    37  C    0.072770
    38  C    0.153125
    39  O   -0.183124
    40  C   -0.107184
    41  C    0.224478
    42  O   -0.229902
    43  O   -0.358810
    44  C    0.140862
    45  H   -0.003559
    46  H    0.017286
    47  H   -0.016861
    48  H    0.024532
    49  H    0.035442
    50  H    0.042331
    51  H    0.048441
    52  H    0.037250
    53  H    0.035722
    54  H    0.041462
    55  H    0.044252
    56  H    0.060642
    57  H    0.073835
    58  H    0.034848
    59  H    0.031888
    60  H    0.066655
    61  H    0.059206
    62  H    0.050438
    63  H    0.056045
    64  H    0.035268
    65  H    0.060722
    66  H    0.037237
    67  H    0.041381
    68  H    0.033227
    69  H    0.028300
    70  H    0.043814
    71  H    0.022314
    72  H    0.037624
    73  H    0.026943
    74  H    0.061480
    75  H    0.068387
    76  H    0.069224
    77  H    0.070813
    78  H    0.058555
    79  H    0.040398
 Sum of Mulliken charges =  -0.00000

 Dipole moment (field-independent basis, Debye):
    X=             -0.6812    Y=             -3.7187    Z=              3.2336  Tot=              4.9748
 Quadrupole moment (field-independent basis, Debye-Ang):
   XX=           -277.3501   YY=           -222.7310   ZZ=           -257.5004
   XY=            -30.9827   XZ=              7.0316   YZ=              6.0511

 Normal termination of Gaussian 16 at Mon Sep 20 01:14:37 2021.
