 Gaussian 16, Revision A.03,
 Gaussian 16:  ES64L-G16RevA.03 25-Dec-2016

 --------------------------------
 #p wB97XD/Def2SVP td=(nstates=5)
 --------------------------------

 --------------------------------
 TDDFT excited states in gaussian
 --------------------------------
 Symbolic Z-matrix:
 Charge =  0 Multiplicity = 1

                         Standard orientation:
 ---------------------------------------------------------------------
 Center     Atomic      Atomic             Coordinates (Angstroms)
 Number     Number       Type             X           Y           Z
 ---------------------------------------------------------------------
      1         12           0       16.657023   -0.688939    0.175005
      2          6           0       15.389208    2.372009   -1.393639
      3          6           0       17.469915    1.313680    2.932660
      4          6           0       18.123644   -3.283770    1.495405
      5          6           0       15.610082   -2.479911   -2.555977
      6          7           0       16.644949    1.579818    0.617951
      7          6           0       15.965226    2.648222   -0.104123
      8          6           0       16.059788    4.025363    0.587077
      9          6           0       16.943595    3.601334    1.898407
     10          6           0       17.066043    2.065741    1.848156
     11          6           0       18.285802    4.301672    1.983935
     12          6           0       14.637932    4.612501    0.838309
     13          6           0       14.584322    5.793016    1.760803
     14          1           0       13.722802    6.984600    1.406430
     15          7           0       17.701132   -0.979959    1.979563
     16          6           0       17.929134   -0.044628    2.995317
     17          6           0       18.637132   -0.683783    4.102974
     18          6           0       18.842394   -2.068014    3.704595
     19          6           0       18.219014   -2.199917    2.335982
     20          6           0       18.988887    0.011318    5.469207
     21          6           0       19.546106   -3.191196    4.377083
     22          8           0       19.621522   -4.332736    3.942401
     23          6           0       20.117822   -3.003795    5.721104
     24          7           0       16.760062   -2.572797   -0.375889
     25          6           0       17.525542   -3.462218    0.259146
     26          6           0       17.507852   -4.854547   -0.414225
     27          6           0       16.377977   -4.681077   -1.407870
     28          6           0       16.262141   -3.111602   -1.521702
     29          6           0       18.832207   -5.221309   -1.073846
     30          6           0       15.014793   -5.292671   -1.212667
     31          6           0       14.269261   -4.778311    0.000239
     32          7           0       15.791917   -0.196255   -1.654368
     33          6           0       15.328416   -1.087575   -2.638832
     34          6           0       14.717401   -0.330015   -3.703078
     35          6           0       14.686080    0.982971   -3.166750
     36          6           0       15.358368    1.032577   -1.930704
     37          6           0       14.070534   -0.833396   -4.960344
     38          6           0       14.149864    2.342108   -3.486643
     39          8           0       13.404831    2.731216   -4.411337
     40          6           0       14.630570    3.251432   -2.357936
     41          6           0       15.420681    4.428329   -2.934087
     42          8           0       16.516075    4.445316   -3.569463
     43          8           0       14.799023    5.566104   -2.511747
     44          6           0       15.456523    6.836748   -2.892555
     45          1           0       17.534348    1.891140    3.856182
     46          1           0       18.662670   -4.148264    1.888419
     47          1           0       15.274457   -2.980296   -3.466831
     48          1           0       16.532282    4.677657   -0.147277
     49          1           0       16.343316    3.764082    2.793572
     50          1           0       18.328375    4.853232    2.923557
     51          1           0       18.316533    5.005392    1.152866
     52          1           0       19.172595    3.726757    1.718031
     53          1           0       14.018199    3.760917    1.121223
     54          1           0       14.221498    4.928376   -0.118277
     55          1           0       15.522031    6.313794    1.953318
     56          1           0       14.142860    5.485491    2.708333
     57          1           0       18.433572   -0.555655    6.216941
     58          1           0       18.676485    1.054294    5.518967
     59          1           0       20.067761   -0.087872    5.589427
     60          1           0       20.657720   -2.064656    5.843793
     61          1           0       20.810138   -3.839039    5.820757
     62          1           0       19.242198   -2.899200    6.361040
     63          1           0       17.302136   -5.583519    0.369682
     64          1           0       16.629115   -5.086271   -2.388503
     65          1           0       19.033637   -6.274178   -0.879777
     66          1           0       19.652883   -4.631531   -0.666885
     67          1           0       18.736170   -5.180681   -2.159444
     68          1           0       15.130731   -6.376776   -1.224174
     69          1           0       14.334815   -4.992501   -2.009757
     70          1           0       13.821230   -5.586344    0.577393
     71          1           0       13.423117   -4.143289   -0.263178
     72          1           0       14.887603   -4.223819    0.706249
     73          1           0       13.066532   -0.418463   -5.045850
     74          1           0       13.957841   -1.902612   -5.139565
     75          1           0       14.670530   -0.463932   -5.792233
     76          1           0       13.754217    3.698788   -1.888050
     77          1           0       16.023872    7.225125   -2.047009
     78          1           0       14.571210    7.395048   -3.196930
     79          1           0       16.052782    6.741746   -3.800958
     80         12           0      -16.051161   -0.753456   -0.232538
     81          6           0      -18.032199    1.997634    0.674136
     82          6           0      -13.801762    1.249332   -1.664513
     83          6           0      -14.403238   -3.415345   -1.052487
     84          6           0      -18.993704   -2.757160    0.411888
     85          7           0      -16.032423    1.380037   -0.532777
     86          6           0      -16.798607    2.322861    0.030121
     87          6           0      -16.386469    3.709880   -0.390777
     88          6           0      -15.274485    3.418278   -1.476697
     89          6           0      -14.998287    1.950516   -1.214047
     90          6           0      -15.600998    3.716182   -2.976096
     91          6           0      -15.740708    4.509895    0.852765
     92          6           0      -16.311870    5.955324    1.026706
     93          1           0      -15.875811    6.602210    2.450707
     94          7           0      -14.274227   -1.022543   -0.973675
     95          6           0      -13.427354   -0.059463   -1.495252
     96          6           0      -12.139673   -0.657530   -1.717185
     97          6           0      -12.225291   -2.096112   -1.517743
     98          6           0      -13.653791   -2.257206   -1.045742
     99          6           0      -10.986426    0.226106   -2.273556
    100          6           0      -11.267776   -3.275841   -1.641510
    101          8           0      -11.507907   -4.457270   -1.333573
    102          6           0       -9.907289   -2.863035   -2.079670
    103          7           0      -16.735730   -2.734368   -0.431364
    104          6           0      -15.768027   -3.630786   -0.812454
    105          6           0      -16.358329   -5.030018   -0.990970
    106          6           0      -17.705303   -4.890796   -0.234215
    107          6           0      -17.876212   -3.374753   -0.119727
    108          6           0      -16.384957   -5.413906   -2.523636
    109          6           0      -17.790400   -5.612017    1.177581
    110          6           0      -19.193888   -5.987613    1.679328
    111          7           0      -18.100639   -0.492719    0.447096
    112          6           0      -19.109445   -1.386521    0.643129
    113          6           0      -20.263235   -0.750505    1.238573
    114          6           0      -19.823775    0.583278    1.324130
    115          6           0      -18.538443    0.707713    0.777645
    116          6           0      -21.635166   -1.303123    1.688691
    117          6           0      -20.226707    1.884363    1.779974
    118          8           0      -21.145849    2.278673    2.448770
    119          6           0      -19.104965    2.894721    1.203328
    120          6           0      -18.892924    3.758836    2.367553
    121          8           0      -18.166342    3.565823    3.374963
    122          8           0      -19.669423    4.833664    2.146992
    123          6           0      -19.708136    5.881740    3.167821
    124          1           0      -13.017430    1.901833   -2.054148
    125          1           0      -13.826967   -4.320492   -1.256135
    126          1           0      -19.817316   -3.422870    0.678249
    127          1           0      -17.193386    4.340708   -0.764691
    128          1           0      -14.309512    3.899047   -1.315004
    129          1           0      -15.681861    2.760046   -3.493140
    130          1           0      -14.738855    4.269901   -3.347444
    131          1           0      -16.515927    4.257476   -3.214382
    132          1           0      -14.651536    4.563681    0.870343
    133          1           0      -15.901751    3.883547    1.730249
    134          1           0      -17.400483    5.944912    0.976811
    135          1           0      -15.941372    6.689960    0.312169
    136          1           0      -10.449239    0.647406   -1.424944
    137          1           0      -11.327359    1.160851   -2.720354
    138          1           0      -10.396171   -0.185814   -3.091770
    139          1           0       -9.400762   -2.176202   -1.402513
    140          1           0      -10.106683   -2.444569   -3.066948
    141          1           0       -9.229784   -3.699729   -2.252384
    142          1           0      -15.664321   -5.699073   -0.482054
    143          1           0      -18.497764   -5.347506   -0.827038
    144          1           0      -17.406910   -5.385440   -2.901451
    145          1           0      -16.018794   -6.395367   -2.823783
    146          1           0      -15.897532   -4.722093   -3.210913
    147          1           0      -17.467441   -4.828602    1.863726
    148          1           0      -17.178927   -6.502013    1.327828
    149          1           0      -19.477221   -5.422587    2.568291
    150          1           0      -19.408136   -7.026402    1.931391
    151          1           0      -19.877841   -5.623625    0.913916
    152          1           0      -21.798842   -2.202766    1.095433
    153          1           0      -22.427679   -0.573141    1.518684
    154          1           0      -21.526636   -1.568490    2.740258
    155          1           0      -19.534804    3.500700    0.405556
    156          1           0      -19.207855    6.765907    2.773154
    157          1           0      -19.348824    5.530072    4.134357
    158          1           0      -20.744112    6.197620    3.289969
 ---------------------------------------------------------------------

 SCF Done:  E(RwB97XD) =  -4070.61188957     A.U. after   19 cycles

 Excitation energies and oscillator strengths:

 Excited State   1:      Singlet-A      1.6111 eV  769.55 nm  f=0.4016  <S**2>=0.000
     309 -> 316       -0.17043
     311 -> 313        0.68637
     309 <- 316       -0.11379
 This state for optimization and/or second-order correction.
 Total Energy, E(TD-HF/TD-DFT) =  -4070.55268168
 Copying the excited state density for this state as the 1-particle RhoCI density.

 Excited State   2:      Singlet-A      1.6708 eV  742.05 nm  f=0.3760  <S**2>=0.000
     310 -> 315        0.20298
     312 -> 314        0.67862
     310 <- 315        0.11999

 Excited State   3:      Singlet-A      2.1163 eV  585.87 nm  f=0.1324  <S**2>=0.000
     309 -> 313        0.64978
     311 -> 316        0.25750

 Excited State   4:      Singlet-A      2.1932 eV  565.32 nm  f=0.0611  <S**2>=0.000
     310 -> 314        0.61589
     312 -> 315       -0.33613

 Excited State   5:      Singlet-A      3.2651 eV  379.73 nm  f=0.0055  <S**2>=0.000
     303 -> 313       -0.32046
     308 -> 313        0.60846

 The electronic state is 1-A.
 Alpha  occ. eigenvalues --  -46.94140 -46.93910 -19.31017 -19.30075 -19.24720
 Alpha  occ. eigenvalues --  -19.24641 -19.24058 -19.23881 -19.23525 -19.23394
 Alpha  occ. eigenvalues --  -14.47176 -14.47171 -14.46807 -14.46299 -14.44644
 Alpha  occ. eigenvalues --  -14.44083 -14.43457 -14.42986 -10.43857 -10.42415
 Alpha  occ. eigenvalues --  -10.39976 -10.38766 -10.38678 -10.38651 -10.36044
 Alpha  occ. eigenvalues --  -10.35747 -10.35679 -10.35607 -10.35548 -10.35186
 Alpha  occ. eigenvalues --  -10.35186 -10.34833 -10.34813 -10.34776 -10.34734
 Alpha  occ. eigenvalues --  -10.34659 -10.34626 -10.34243 -10.34238 -10.34140
 Alpha  occ. eigenvalues --  -10.33449 -10.33243 -10.33212 -10.33064 -10.33023
 Alpha  occ. eigenvalues --  -10.32946 -10.32911 -10.32780 -10.32679 -10.32657
 Alpha  occ. eigenvalues --  -10.32628 -10.32624 -10.32478 -10.32403 -10.31980
 Alpha  occ. eigenvalues --  -10.31872 -10.31782 -10.31765 -10.31745 -10.31669
 Alpha  occ. eigenvalues --  -10.31646 -10.31634 -10.31595 -10.31448 -10.31325
 Alpha  occ. eigenvalues --  -10.31039 -10.31021 -10.30823 -10.30752 -10.30510
 Alpha  occ. eigenvalues --  -10.30346 -10.30340 -10.30252 -10.30173 -10.29916
 Alpha  occ. eigenvalues --  -10.29857 -10.29827 -10.29822 -10.29761 -10.29717
 Alpha  occ. eigenvalues --  -10.29592 -10.29514 -10.29180 -10.28729 -10.28468
 Alpha  occ. eigenvalues --  -10.28391  -3.20295  -3.20153  -1.93895  -1.93736
 Alpha  occ. eigenvalues --   -1.93433  -1.93297  -1.93274  -1.93143  -1.18215
 Alpha  occ. eigenvalues --   -1.18108  -1.12994  -1.12679  -1.11616  -1.10028
 Alpha  occ. eigenvalues --   -1.07984  -1.07711  -1.07188  -1.07085  -1.06300
 Alpha  occ. eigenvalues --   -1.05601  -1.04837  -1.04458  -1.04387  -1.02645
 Alpha  occ. eigenvalues --   -0.94681  -0.94283  -0.91581  -0.91046  -0.90852
 Alpha  occ. eigenvalues --   -0.90592  -0.90111  -0.89886  -0.89364  -0.89295
 Alpha  occ. eigenvalues --   -0.89026  -0.88918  -0.88202  -0.87827  -0.86708
 Alpha  occ. eigenvalues --   -0.86441  -0.85960  -0.85721  -0.84893  -0.84377
 Alpha  occ. eigenvalues --   -0.84307  -0.84156  -0.83401  -0.83221  -0.82232
 Alpha  occ. eigenvalues --   -0.82074  -0.80558  -0.80172  -0.79225  -0.79218
 Alpha  occ. eigenvalues --   -0.78815  -0.78742  -0.77921  -0.77839  -0.77479
 Alpha  occ. eigenvalues --   -0.77308  -0.74768  -0.74762  -0.74103  -0.73951
 Alpha  occ. eigenvalues --   -0.72242  -0.71438  -0.71211  -0.70707  -0.69838
 Alpha  occ. eigenvalues --   -0.69660  -0.69199  -0.69187  -0.67977  -0.67452
 Alpha  occ. eigenvalues --   -0.67073  -0.66868  -0.66692  -0.66427  -0.66308
 Alpha  occ. eigenvalues --   -0.65838  -0.63948  -0.63746  -0.62279  -0.62250
 Alpha  occ. eigenvalues --   -0.61781  -0.61179  -0.61133  -0.61111  -0.60608
 Alpha  occ. eigenvalues --   -0.60324  -0.59976  -0.59706  -0.59422  -0.59098
 Alpha  occ. eigenvalues --   -0.58332  -0.58310  -0.57904  -0.57837  -0.57492
 Alpha  occ. eigenvalues --   -0.57429  -0.57250  -0.56749  -0.56275  -0.56266
 Alpha  occ. eigenvalues --   -0.55832  -0.55461  -0.55366  -0.55163  -0.55071
 Alpha  occ. eigenvalues --   -0.54746  -0.54736  -0.54478  -0.54429  -0.54137
 Alpha  occ. eigenvalues --   -0.54123  -0.53512  -0.53325  -0.53112  -0.52968
 Alpha  occ. eigenvalues --   -0.52829  -0.52735  -0.52664  -0.52329  -0.52300
 Alpha  occ. eigenvalues --   -0.52130  -0.52110  -0.51937  -0.51730  -0.51554
 Alpha  occ. eigenvalues --   -0.51348  -0.51003  -0.50830  -0.50780  -0.50758
 Alpha  occ. eigenvalues --   -0.50571  -0.50454  -0.50388  -0.50070  -0.50064
 Alpha  occ. eigenvalues --   -0.49917  -0.49696  -0.49572  -0.49304  -0.49177
 Alpha  occ. eigenvalues --   -0.48958  -0.48801  -0.48728  -0.48467  -0.48399
 Alpha  occ. eigenvalues --   -0.48246  -0.48121  -0.47964  -0.47828  -0.47637
 Alpha  occ. eigenvalues --   -0.47622  -0.47445  -0.47414  -0.47054  -0.46857
 Alpha  occ. eigenvalues --   -0.46840  -0.46504  -0.46301  -0.46140  -0.45950
 Alpha  occ. eigenvalues --   -0.45888  -0.45676  -0.45491  -0.45415  -0.45403
 Alpha  occ. eigenvalues --   -0.45187  -0.45000  -0.44797  -0.44768  -0.44633
 Alpha  occ. eigenvalues --   -0.44580  -0.44496  -0.44158  -0.44150  -0.44012
 Alpha  occ. eigenvalues --   -0.43875  -0.43862  -0.43755  -0.43262  -0.43245
 Alpha  occ. eigenvalues --   -0.43142  -0.42855  -0.42694  -0.42452  -0.42428
 Alpha  occ. eigenvalues --   -0.42190  -0.41911  -0.41491  -0.41185  -0.41027
 Alpha  occ. eigenvalues --   -0.40826  -0.40715  -0.39758  -0.39451  -0.39342
 Alpha  occ. eigenvalues --   -0.39172  -0.38935  -0.38826  -0.38509  -0.38143
 Alpha  occ. eigenvalues --   -0.37505  -0.37208  -0.36335  -0.36143  -0.36095
 Alpha  occ. eigenvalues --   -0.35962  -0.35331  -0.34948  -0.33757  -0.33707
 Alpha  occ. eigenvalues --   -0.33490  -0.33286  -0.32619  -0.32608  -0.32452
 Alpha  occ. eigenvalues --   -0.32327  -0.31762  -0.31325  -0.26212  -0.26106
 Alpha  occ. eigenvalues --   -0.23314  -0.22920
 Alpha virt. eigenvalues --   -0.07682  -0.06775  -0.00384   0.00226   0.01764
 Alpha virt. eigenvalues --    0.02340   0.04267   0.04573   0.06223   0.06229
 Alpha virt. eigenvalues --    0.06650   0.07382   0.07612   0.07663   0.08252

 Mulliken charges:
               1
     1  Mg   0.975099
     2  C   -0.025814
     3  C   -0.091681
     4  C   -0.091428
     5  C   -0.077684
     6  N   -0.366262
     7  C   -0.005742
     8  C   -0.064826
     9  C   -0.111867
    10  C    0.089026
    11  C    0.051896
    12  C   -0.005938
    13  C   -0.128093
    14  H    0.029055
    15  N   -0.467454
    16  C    0.163159
    17  C   -0.170410
    18  C   -0.057347
    19  C    0.152326
    20  C    0.067295
    21  C    0.022092
    22  O   -0.243469
    23  C    0.001794
    24  N   -0.422532
    25  C    0.103989
    26  C   -0.088126
    27  C   -0.066172
    28  C    0.109819
    29  C    0.042966
    30  C    0.010230
    31  C   -0.067737
    32  N   -0.449591
    33  C    0.078832
    34  C   -0.151476
    35  C   -0.101772
    36  C    0.167193
    37  C    0.064810
    38  C    0.158595
    39  O   -0.236555
    40  C   -0.063673
    41  C    0.279114
    42  O   -0.286776
    43  O   -0.366350
    44  C    0.125378
    45  H   -0.007289
    46  H    0.021638
    47  H    0.001292
    48  H    0.052026
    49  H    0.035112
    50  H    0.045617
    51  H    0.021890
    52  H    0.048132
    53  H    0.034802
    54  H    0.058160
    55  H    0.052552
    56  H    0.055249
    57  H    0.061443
    58  H    0.044231
    59  H    0.067063
    60  H    0.027239
    61  H    0.066619
    62  H    0.059804
    63  H    0.041461
    64  H    0.013880
    65  H    0.035695
    66  H    0.048300
    67  H    0.036550
    68  H    0.035195
    69  H    0.029027
    70  H    0.029098
    71  H    0.034888
    72  H    0.040804
    73  H    0.061375
    74  H    0.026452
    75  H    0.055477
    76  H    0.079520
    77  H    0.065901
    78  H    0.060750
    79  H    0.076159
    80  Mg   0.994381
    81  C    0.048555
    82  C   -0.082890
    83  C   -0.068791
    84  C   -0.108759
    85  N   -0.341578
    86  C    0.045987
    87  C   -0.121775
    88  C   -0.075773
    89  C    0.029370
    90  C    0.026855
    91  C    0.023973
    92  C   -0.140372
    93  H    0.018634
    94  N   -0.559262
    95  C    0.189712
    96  C   -0.126369
    97  C   -0.130562
    98  C    0.181243
    99  C    0.043741
   100  C    0.089197
   101  O   -0.240710
   102  C   -0.020822
   103  N   -0.363952
   104  C    0.073063
   105  C   -0.083703
   106  C   -0.059627
   107  C    0.063271
   108  C    0.017218
   109  C   -0.011356
   110  C   -0.064796
   111  N   -0.360414
   112  C    0.130586
   113  C   -0.202756
   114  C   -0.017997
   115  C    0.092259
   116  C    0.097862
   117  C    0.101718
   118  O   -0.185147
   119  C   -0.133291
   120  C    0.263461
   121  O   -0.285062
   122  O   -0.350079
   123  C    0.138312
   124  H   -0.014388
   125  H    0.026614
   126  H   -0.019361
   127  H    0.037180
   128  H    0.028930
   129  H    0.042221
   130  H    0.037643
   131  H    0.042995
   132  H    0.031553
   133  H    0.058165
   134  H    0.053256
   135  H    0.056622
   136  H    0.054108
   137  H    0.028201
   138  H    0.054272
   139  H    0.074585
   140  H    0.050280
   141  H    0.047537
   142  H    0.043267
   143  H    0.027325
   144  H    0.021183
   145  H    0.043992
   146  H    0.041059
   147  H    0.036381
   148  H    0.043270
   149  H    0.035175
   150  H    0.044602
   151  H    0.027548
   152  H    0.034192
   153  H    0.066240
   154  H    0.064399
   155  H    0.073477
   156  H    0.048559
   157  H    0.075946
   158  H    0.049414
 Sum of Mulliken charges =  -0.00000

 Dipole moment (field-independent basis, Debye):
    X=              2.9852    Y=              1.5917    Z=              1.1791  Tot=              3.5826
 Quadrupole moment (field-independent basis, Debye-Ang):
   XX=           -561.1197   YY=           -471.3236   ZZ=           -517.6926
   XY=             28.9374   XZ=            156.7708   YZ=             18.8090

 Normal termination of Gaussian 16 at Sun Sep 19 01:59:04 2021.
