 Gaussian 16, Revision A.03,
 Gaussian 16:  ES64L-G16RevA.03 25-Dec-2016

 --------------------------------
 #p wB97XD/Def2SVP td=(nstates=5)
 --------------------------------

 --------------------------------
 TDDFT excited states in gaussian
 --------------------------------
 Symbolic Z-matrix:
 Charge =  0 Multiplicity = 1

                         Standard orientation:
 ---------------------------------------------------------------------
 Center     Atomic      Atomic             Coordinates (Angstroms)
 Number     Number       Type             X           Y           Z
 ---------------------------------------------------------------------
      1         12           0      -23.796630    0.533421    0.173084
      2          6           0      -22.051984   -2.396920   -0.614690
      3          6           0      -20.736093    2.132942   -0.014846
      4          6           0      -25.409496    3.428472    0.572264
      5          6           0      -26.808901   -1.099871   -0.518990
      6          7           0      -21.561820   -0.132909   -0.497401
      7          6           0      -21.120414   -1.397263   -0.640391
      8          6           0      -19.636515   -1.493096   -0.902087
      9          6           0      -19.270328   -0.046398   -0.394640
     10          6           0      -20.564196    0.758658   -0.330399
     11          6           0      -18.668646   -0.122792    1.033975
     12          6           0      -19.350231   -1.898979   -2.353389
     13          6           0      -20.205917   -1.315072   -3.496776
     14          1           0      -19.435460   -0.747272   -4.682897
     15          7           0      -23.177835    2.480503    0.276609
     16          6           0      -21.872624    2.895395    0.296804
     17          6           0      -21.811397    4.243131    0.877306
     18          6           0      -23.176801    4.735622    0.921844
     19          6           0      -23.976567    3.515815    0.594924
     20          6           0      -20.467162    5.056732    1.006871
     21          6           0      -23.629407    6.163549    1.236868
     22          8           0      -22.841061    6.984639    1.615126
     23          6           0      -25.079364    6.535268    1.118870
     24          7           0      -25.866837    1.092441   -0.183690
     25          6           0      -26.348854    2.368052    0.163902
     26          6           0      -27.925620    2.491827    0.030563
     27          6           0      -28.333737    0.970552   -0.265676
     28          6           0      -26.910808    0.245484   -0.287567
     29          6           0      -28.790205    3.176740    1.203251
     30          6           0      -29.214735    0.684235   -1.566003
     31          6           0      -30.218401   -0.545730   -1.309401
     32          7           0      -24.397807   -1.385296   -0.396623
     33          6           0      -25.662648   -1.916089   -0.548375
     34          6           0      -25.553222   -3.348540   -0.796133
     35          6           0      -24.168415   -3.656584   -0.776861
     36          6           0      -23.491954   -2.395188   -0.605335
     37          6           0      -26.687741   -4.337133   -0.862722
     38          6           0      -23.086844   -4.677151   -0.967824
     39          8           0      -23.157111   -5.837068   -1.308053
     40          6           0      -21.726620   -3.873984   -0.807772
     41          6           0      -21.012547   -4.471169    0.373554
     42          8           0      -20.393482   -5.564109    0.341268
     43          8           0      -21.022494   -3.569363    1.427790
     44          6           0      -20.187417   -3.907168    2.531668
     45          1           0      -19.761257    2.624162    0.017180
     46          1           0      -26.045409    4.259765    0.884476
     47          1           0      -27.761690   -1.633420   -0.534096
     48          1           0      -19.146946   -2.173804   -0.205880
     49          1           0      -18.567835    0.539107   -0.986208
     50          1           0      -18.987896    0.788972    1.539402
     51          1           0      -17.592974   -0.286878    0.988032
     52          1           0      -19.057339   -0.861362    1.735773
     53          1           0      -19.554364   -2.968113   -2.402724
     54          1           0      -18.295676   -1.710297   -2.554785
     55          1           0      -20.791914   -0.482616   -3.108040
     56          1           0      -20.823044   -2.117560   -3.899814
     57          1           0      -20.099321    5.492611    0.077601
     58          1           0      -19.693439    4.415852    1.429765
     59          1           0      -20.465067    5.864467    1.737855
     60          1           0      -25.234869    7.609732    1.221399
     61          1           0      -25.712624    6.031108    1.849147
     62          1           0      -25.278894    6.314333    0.069975
     63          1           0      -27.978282    3.097420   -0.873413
     64          1           0      -28.872365    0.539616    0.577795
     65          1           0      -28.853637    4.239736    0.973551
     66          1           0      -28.334724    3.018620    2.180426
     67          1           0      -29.774167    2.707770    1.223414
     68          1           0      -28.596273    0.316741   -2.384798
     69          1           0      -29.730885    1.585602   -1.897422
     70          1           0      -30.012589   -1.367459   -1.995454
     71          1           0      -31.244325   -0.213830   -1.466143
     72          1           0      -30.169770   -1.079250   -0.360767
     73          1           0      -27.358218   -4.035847   -1.666863
     74          1           0      -27.241689   -4.321276    0.076134
     75          1           0      -26.346681   -5.345428   -1.096922
     76          1           0      -21.147836   -4.166650   -1.683535
     77          1           0      -20.197456   -3.089435    3.251937
     78          1           0      -19.197417   -4.218246    2.197705
     79          1           0      -20.604256   -4.719918    3.126405
     80         12           0       23.944151    0.488057   -0.312179
     81          6           0       22.253294   -2.260563    1.352175
     82          6           0       22.514637    2.464718    2.014663
     83          6           0       25.392133    2.898470   -1.827448
     84          6           0       25.027489   -1.786935   -2.799680
     85          7           0       22.502251    0.076330    1.573279
     86          6           0       22.059511   -1.093500    2.065553
     87          6           0       21.359959   -0.871001    3.420063
     88          6           0       21.113103    0.702027    3.267825
     89          6           0       22.126894    1.115846    2.285713
     90          6           0       19.683648    1.197880    3.127276
     91          6           0       22.309498   -1.315874    4.545841
     92          6           0       21.556167   -1.736641    5.842021
     93          1           0       19.977043   -1.978144    5.896406
     94          7           0       24.007884    2.469354    0.058068
     95          6           0       23.283235    3.148626    1.018595
     96          6           0       23.543629    4.575211    0.851622
     97          6           0       24.451024    4.714003   -0.227536
     98          6           0       24.638809    3.315981   -0.708754
     99          6           0       22.942995    5.626007    1.675038
    100          6           0       25.170656    6.036698   -0.818015
    101          8           0       26.052401    5.962773   -1.629472
    102          6           0       24.981691    7.415987   -0.161433
    103          7           0       24.826716    0.561904   -2.221110
    104          6           0       25.486991    1.675197   -2.529506
    105          6           0       26.340121    1.569832   -3.764958
    106          6           0       26.520089    0.032608   -3.805390
    107          6           0       25.257966   -0.410039   -2.987912
    108          6           0       25.642699    2.118835   -5.095492
    109          6           0       27.897090   -0.525389   -3.249711
    110          6           0       29.183986    0.344390   -3.349226
    111          7           0       23.632349   -1.542375   -0.751518
    112          6           0       24.150933   -2.348150   -1.710972
    113          6           0       23.853708   -3.688731   -1.479438
    114          6           0       23.089989   -3.667186   -0.347477
    115          6           0       22.975052   -2.367159    0.103720
    116          6           0       24.356013   -4.875044   -2.297800
    117          6           0       22.393265   -4.580259    0.571005
    118          8           0       22.094792   -5.763246    0.503969
    119          6           0       21.895443   -3.650178    1.761903
    120          6           0       20.478650   -3.907238    1.952154
    121          8           0       19.546565   -3.478116    1.264705
    122          8           0       20.379735   -4.908701    2.851105
    123          6           0       19.064162   -5.522959    2.857360
    124          1           0       21.908424    3.112067    2.651886
    125          1           0       25.839353    3.751317   -2.341245
    126          1           0       25.464767   -2.462419   -3.537649
    127          1           0       20.380418   -1.348401    3.449191
    128          1           0       21.419641    1.138336    4.217514
    129          1           0       19.361461    1.772136    3.995385
    130          1           0       19.005002    0.356231    2.990118
    131          1           0       19.507515    1.800516    2.236232
    132          1           0       22.889088   -0.441634    4.843126
    133          1           0       23.030684   -2.075531    4.244884
    134          1           0       21.831518   -1.109403    6.690484
    135          1           0       22.120914   -2.617358    6.147479
    136          1           0       22.633014    5.248802    2.649348
    137          1           0       22.088861    5.982583    1.099101
    138          1           0       23.610416    6.461802    1.886174
    139          1           0       25.393588    7.484678    0.845378
    140          1           0       23.919954    7.631282   -0.283673
    141          1           0       25.441810    8.186048   -0.781178
    142          1           0       27.209412    2.174719   -3.508100
    143          1           0       26.423855   -0.382714   -4.808262
    144          1           0       26.444790    2.714873   -5.530194
    145          1           0       24.775279    2.756067   -4.919844
    146          1           0       25.357592    1.363953   -5.827281
    147          1           0       28.081808   -1.500610   -3.697940
    148          1           0       27.682128   -0.551599   -2.181289
    149          1           0       29.262526    1.006162   -2.487017
    150          1           0       29.087148    0.821568   -4.325056
    151          1           0       30.086264   -0.261696   -3.423105
    152          1           0       25.318608   -4.546376   -2.690292
    153          1           0       23.735807   -5.091187   -3.167211
    154          1           0       24.451111   -5.732433   -1.631754
    155          1           0       22.468603   -3.946171    2.641426
    156          1           0       18.975642   -6.348860    3.562582
    157          1           0       18.626769   -5.751052    1.885231
    158          1           0       18.324107   -4.829262    3.257848
 ---------------------------------------------------------------------

 SCF Done:  E(RwB97XD) =  -4070.58183738     A.U. after   20 cycles

 Excitation energies and oscillator strengths:

 Excited State   1:      Singlet-A      1.6940 eV  731.91 nm  f=0.3545  <S**2>=0.000
     309 -> 315        0.19922
     311 -> 313        0.67862
     309 <- 315        0.11863
 This state for optimization and/or second-order correction.
 Total Energy, E(TD-HF/TD-DFT) =  -4070.51958494
 Copying the excited state density for this state as the 1-particle RhoCI density.

 Excited State   2:      Singlet-A      1.7989 eV  689.22 nm  f=0.3727  <S**2>=0.000
     310 -> 316       -0.19143
     312 -> 314        0.67947
     310 <- 316       -0.11149

 Excited State   3:      Singlet-A      2.1841 eV  567.66 nm  f=0.1034  <S**2>=0.000
     309 -> 313        0.63329
     311 -> 315       -0.30090

 Excited State   4:      Singlet-A      2.1924 eV  565.51 nm  f=0.1511  <S**2>=0.000
     310 -> 314        0.65248
     312 -> 316        0.25636

 Excited State   5:      Singlet-A      3.4913 eV  355.12 nm  f=0.1739  <S**2>=0.000
     307 -> 313        0.53209
     307 -> 317       -0.10511
     309 -> 313        0.15395
     311 -> 315        0.39141

 The electronic state is 1-A.
 Alpha  occ. eigenvalues --  -46.96735 -46.95677 -19.31240 -19.30082 -19.25578
 Alpha  occ. eigenvalues --  -19.24978 -19.24562 -19.24071 -19.23841 -19.23678
 Alpha  occ. eigenvalues --  -14.46836 -14.46406 -14.46061 -14.45649 -14.45126
 Alpha  occ. eigenvalues --  -14.44547 -14.44038 -14.43185 -10.43841 -10.42011
 Alpha  occ. eigenvalues --  -10.41012 -10.39800 -10.39283 -10.38781 -10.36949
 Alpha  occ. eigenvalues --  -10.35944 -10.35696 -10.35407 -10.35176 -10.34954
 Alpha  occ. eigenvalues --  -10.34842 -10.34832 -10.34683 -10.34555 -10.34238
 Alpha  occ. eigenvalues --  -10.34191 -10.33952 -10.33795 -10.33640 -10.33553
 Alpha  occ. eigenvalues --  -10.33551 -10.33548 -10.33244 -10.33188 -10.33014
 Alpha  occ. eigenvalues --  -10.32697 -10.32582 -10.32495 -10.32473 -10.32440
 Alpha  occ. eigenvalues --  -10.32340 -10.32160 -10.32136 -10.32033 -10.32032
 Alpha  occ. eigenvalues --  -10.31969 -10.31899 -10.31810 -10.31727 -10.31646
 Alpha  occ. eigenvalues --  -10.31621 -10.31619 -10.31521 -10.31434 -10.31419
 Alpha  occ. eigenvalues --  -10.31292 -10.31265 -10.31112 -10.31036 -10.30808
 Alpha  occ. eigenvalues --  -10.30498 -10.30322 -10.30276 -10.30147 -10.30117
 Alpha  occ. eigenvalues --  -10.30113 -10.30108 -10.29934 -10.29926 -10.29858
 Alpha  occ. eigenvalues --  -10.29778 -10.29442 -10.29409 -10.29349 -10.29024
 Alpha  occ. eigenvalues --  -10.27666  -3.22580  -3.21630  -1.96124  -1.95713
 Alpha  occ. eigenvalues --   -1.95531  -1.95220  -1.94770  -1.94580  -1.18630
 Alpha  occ. eigenvalues --   -1.18621  -1.14873  -1.13747  -1.12876  -1.11625
 Alpha  occ. eigenvalues --   -1.09240  -1.08781  -1.07785  -1.07210  -1.06791
 Alpha  occ. eigenvalues --   -1.06711  -1.05956  -1.05403  -1.04946  -1.03900
 Alpha  occ. eigenvalues --   -0.94459  -0.94275  -0.91160  -0.90887  -0.90594
 Alpha  occ. eigenvalues --   -0.90292  -0.89939  -0.89583  -0.89488  -0.89258
 Alpha  occ. eigenvalues --   -0.88810  -0.87973  -0.87664  -0.87467  -0.86754
 Alpha  occ. eigenvalues --   -0.86279  -0.85243  -0.84983  -0.84609  -0.84245
 Alpha  occ. eigenvalues --   -0.83872  -0.83801  -0.82746  -0.82647  -0.82337
 Alpha  occ. eigenvalues --   -0.82048  -0.80612  -0.79490  -0.79215  -0.78716
 Alpha  occ. eigenvalues --   -0.78627  -0.78513  -0.78318  -0.77622  -0.77275
 Alpha  occ. eigenvalues --   -0.77181  -0.74786  -0.74695  -0.74034  -0.73616
 Alpha  occ. eigenvalues --   -0.71854  -0.71579  -0.71329  -0.70695  -0.70216
 Alpha  occ. eigenvalues --   -0.69555  -0.69202  -0.68800  -0.67821  -0.67378
 Alpha  occ. eigenvalues --   -0.67029  -0.66847  -0.66837  -0.66614  -0.66595
 Alpha  occ. eigenvalues --   -0.65686  -0.65644  -0.63758  -0.62858  -0.62075
 Alpha  occ. eigenvalues --   -0.61460  -0.61263  -0.61209  -0.60935  -0.60355
 Alpha  occ. eigenvalues --   -0.60149  -0.59837  -0.59707  -0.59456  -0.59330
 Alpha  occ. eigenvalues --   -0.58571  -0.58261  -0.58014  -0.57472  -0.57382
 Alpha  occ. eigenvalues --   -0.57128  -0.56997  -0.56506  -0.56204  -0.55968
 Alpha  occ. eigenvalues --   -0.55750  -0.55646  -0.55529  -0.55132  -0.55014
 Alpha  occ. eigenvalues --   -0.54934  -0.54838  -0.54756  -0.54164  -0.53842
 Alpha  occ. eigenvalues --   -0.53657  -0.53618  -0.53348  -0.53195  -0.53049
 Alpha  occ. eigenvalues --   -0.53023  -0.52640  -0.52619  -0.52473  -0.52391
 Alpha  occ. eigenvalues --   -0.52005  -0.51918  -0.51901  -0.51674  -0.51629
 Alpha  occ. eigenvalues --   -0.51493  -0.51046  -0.50879  -0.50866  -0.50681
 Alpha  occ. eigenvalues --   -0.50590  -0.50506  -0.50292  -0.50259  -0.49779
 Alpha  occ. eigenvalues --   -0.49501  -0.49403  -0.49299  -0.49264  -0.49170
 Alpha  occ. eigenvalues --   -0.48916  -0.48877  -0.48649  -0.48625  -0.48253
 Alpha  occ. eigenvalues --   -0.48143  -0.48000  -0.47660  -0.47616  -0.47445
 Alpha  occ. eigenvalues --   -0.47335  -0.47242  -0.47109  -0.46823  -0.46798
 Alpha  occ. eigenvalues --   -0.46537  -0.46424  -0.46206  -0.46170  -0.45974
 Alpha  occ. eigenvalues --   -0.45890  -0.45835  -0.45802  -0.45729  -0.45594
 Alpha  occ. eigenvalues --   -0.45387  -0.45240  -0.45228  -0.45167  -0.44925
 Alpha  occ. eigenvalues --   -0.44881  -0.44693  -0.44571  -0.44361  -0.44237
 Alpha  occ. eigenvalues --   -0.44201  -0.44163  -0.43969  -0.43921  -0.43629
 Alpha  occ. eigenvalues --   -0.43329  -0.43205  -0.43120  -0.42272  -0.42255
 Alpha  occ. eigenvalues --   -0.41816  -0.41613  -0.41211  -0.41001  -0.40846
 Alpha  occ. eigenvalues --   -0.40582  -0.40148  -0.40073  -0.39991  -0.39396
 Alpha  occ. eigenvalues --   -0.39346  -0.39221  -0.38783  -0.38641  -0.38238
 Alpha  occ. eigenvalues --   -0.37889  -0.37629  -0.36669  -0.36396  -0.36131
 Alpha  occ. eigenvalues --   -0.35647  -0.35381  -0.34675  -0.33947  -0.33730
 Alpha  occ. eigenvalues --   -0.33552  -0.33222  -0.32921  -0.32821  -0.32811
 Alpha  occ. eigenvalues --   -0.32294  -0.31853  -0.31574  -0.25951  -0.25290
 Alpha  occ. eigenvalues --   -0.23208  -0.23199
 Alpha virt. eigenvalues --   -0.06982  -0.06577  -0.00171   0.00850   0.02189
 Alpha virt. eigenvalues --    0.02629   0.03932   0.04151   0.04778   0.05583
 Alpha virt. eigenvalues --    0.06666   0.06775   0.07906   0.07927   0.08655

 Mulliken charges:
               1
     1  Mg   0.954775
     2  C    0.126704
     3  C   -0.086888
     4  C   -0.102784
     5  C   -0.086817
     6  N   -0.280278
     7  C   -0.106244
     8  C    0.024793
     9  C   -0.115348
    10  C    0.019668
    11  C    0.018021
    12  C    0.021132
    13  C   -0.133152
    14  H    0.032730
    15  N   -0.458864
    16  C    0.175419
    17  C   -0.148374
    18  C   -0.099939
    19  C    0.211730
    20  C    0.047890
    21  C    0.038182
    22  O   -0.200640
    23  C   -0.012843
    24  N   -0.368096
    25  C    0.007614
    26  C   -0.062979
    27  C   -0.084113
    28  C    0.069863
    29  C    0.005021
    30  C   -0.009902
    31  C   -0.094115
    32  N   -0.439750
    33  C    0.138822
    34  C   -0.213509
    35  C   -0.016282
    36  C    0.079008
    37  C    0.071686
    38  C    0.139942
    39  O   -0.173397
    40  C   -0.211009
    41  C    0.295853
    42  O   -0.266902
    43  O   -0.352084
    44  C    0.141282
    45  H    0.007255
    46  H   -0.025090
    47  H   -0.020893
    48  H    0.029508
    49  H    0.028328
    50  H    0.024542
    51  H    0.050185
    52  H    0.027428
    53  H    0.036977
    54  H    0.046214
    55  H    0.070667
    56  H    0.060477
    57  H    0.063273
    58  H    0.025803
    59  H    0.056040
    60  H    0.046968
    61  H    0.080152
    62  H    0.053740
    63  H    0.053693
    64  H    0.040259
    65  H    0.049425
    66  H    0.047495
    67  H    0.050474
    68  H    0.049749
    69  H    0.043969
    70  H    0.038462
    71  H    0.044444
    72  H    0.040055
    73  H    0.037450
    74  H    0.051954
    75  H    0.058905
    76  H    0.085142
    77  H    0.049503
    78  H    0.054998
    79  H    0.046620
    80  Mg   0.963095
    81  C   -0.002449
    82  C   -0.069647
    83  C   -0.087079
    84  C   -0.078748
    85  N   -0.252389
    86  C   -0.062599
    87  C   -0.062200
    88  C   -0.088723
    89  C    0.000028
    90  C    0.039633
    91  C    0.010161
    92  C   -0.092279
    93  H    0.048518
    94  N   -0.472659
    95  C    0.161534
    96  C   -0.161855
    97  C   -0.088144
    98  C    0.121998
    99  C    0.059501
   100  C    0.076640
   101  O   -0.197384
   102  C   -0.024344
   103  N   -0.321531
   104  C    0.065181
   105  C   -0.102415
   106  C   -0.113747
   107  C    0.058342
   108  C    0.030256
   109  C   -0.010568
   110  C   -0.052927
   111  N   -0.410071
   112  C    0.090436
   113  C   -0.219174
   114  C   -0.051338
   115  C    0.154762
   116  C    0.095842
   117  C    0.138627
   118  O   -0.197760
   119  C   -0.093026
   120  C    0.252596
   121  O   -0.272135
   122  O   -0.331224
   123  C    0.153343
   124  H   -0.010555
   125  H    0.011896
   126  H    0.003404
   127  H    0.040490
   128  H    0.017717
   129  H    0.039830
   130  H    0.042840
   131  H    0.036625
   132  H    0.031774
   133  H    0.048013
   134  H    0.038505
   135  H    0.037342
   136  H    0.044137
   137  H    0.065922
   138  H    0.040918
   139  H    0.086439
   140  H    0.045261
   141  H    0.050826
   142  H    0.043766
   143  H    0.017536
   144  H    0.041941
   145  H    0.045906
   146  H    0.042534
   147  H    0.037406
   148  H    0.027786
   149  H    0.050442
   150  H    0.034814
   151  H    0.039880
   152  H    0.025418
   153  H    0.053070
   154  H    0.055823
   155  H    0.073324
   156  H    0.049841
   157  H    0.060903
   158  H    0.024145
 Sum of Mulliken charges =  -0.00000

 Dipole moment (field-independent basis, Debye):
    X=             -1.3166    Y=              9.1829    Z=              5.4496  Tot=             10.7591
 Quadrupole moment (field-independent basis, Debye-Ang):
   XX=           -267.6561   YY=           -578.8190   ZZ=           -484.9793
   XY=             14.0901   XZ=              6.4393   YZ=             -7.2167

 Normal termination of Gaussian 16 at Sun Sep 19 19:54:24 2021.
