 Gaussian 16, Revision A.03,
 Gaussian 16:  ES64L-G16RevA.03 25-Dec-2016

 --------------------------------
 #p wB97XD/Def2SVP td=(nstates=5)
 --------------------------------

 --------------------------------
 TDDFT excited states in gaussian
 --------------------------------
 Symbolic Z-matrix:
 Charge =  0 Multiplicity = 1

                         Standard orientation:
 ---------------------------------------------------------------------
 Center     Atomic      Atomic             Coordinates (Angstroms)
 Number     Number       Type             X           Y           Z
 ---------------------------------------------------------------------
      1         12           0       -0.700716    0.024386   -0.461074
      2          6           0        2.808914   -0.123085   -0.356417
      3          6           0       -0.777813   -3.407703   -0.268796
      4          6           0       -3.931510    0.297229    0.197008
      5          6           0       -0.483058    3.569206   -0.392384
      6          7           0        0.818711   -1.531924   -0.075143
      7          6           0        2.229035   -1.376785   -0.070517
      8          6           0        2.945541   -2.653914   -0.230470
      9          6           0        1.752420   -3.701938   -0.300570
     10          6           0        0.503247   -2.836553   -0.248060
     11          6           0        1.884850   -4.674001   -1.497889
     12          6           0        3.809095   -3.037569    0.932289
     13          6           0        3.276416   -2.695260    2.331660
     14          1           0        3.536082   -3.644657    3.565519
     15          7           0       -2.209145   -1.361889   -0.114232
     16          6           0       -2.037040   -2.694494   -0.204814
     17          6           0       -3.327787   -3.328111   -0.102514
     18          6           0       -4.279991   -2.280975   -0.040363
     19          6           0       -3.507510   -1.028557   -0.012620
     20          6           0       -3.581627   -4.810359   -0.041106
     21          6           0       -5.797643   -2.457487   -0.000569
     22          8           0       -6.300650   -3.564000   -0.009443
     23          6           0       -6.835822   -1.387605    0.165763
     24          7           0       -1.975248    1.665937    0.109825
     25          6           0       -3.325768    1.522206    0.285308
     26          6           0       -4.055131    2.905824    0.274121
     27          6           0       -2.862722    3.902552    0.393822
     28          6           0       -1.706229    3.010727   -0.001622
     29          6           0       -4.895379    3.205203   -0.990818
     30          6           0       -2.503217    4.394896    1.874620
     31          6           0       -2.273647    5.851088    2.060222
     32          7           0        0.750702    1.432610   -0.491612
     33          6           0        0.668286    2.760622   -0.649122
     34          6           0        1.992788    3.309382   -1.128114
     35          6           0        2.833033    2.152573   -1.063120
     36          6           0        2.066267    1.076879   -0.532434
     37          6           0        2.390664    4.721528   -1.532843
     38          6           0        4.204183    1.743528   -1.164810
     39          8           0        5.206581    2.383858   -1.439983
     40          6           0        4.227692    0.221838   -0.732847
     41          6           0        5.011573    0.143202    0.560777
     42          8           0        4.699337    0.564889    1.625051
     43          8           0        6.136679   -0.618872    0.328172
     44          6           0        6.839990   -1.019800    1.550847
     45          1           0       -0.793033   -4.490594   -0.407327
     46          1           0       -5.016109    0.410937    0.236982
     47          1           0       -0.509648    4.654945   -0.505934
     48          1           0        3.560840   -2.576397   -1.126844
     49          1           0        1.584285   -4.296442    0.597368
     50          1           0        1.712792   -5.626563   -0.996453
     51          1           0        2.893472   -4.554290   -1.893593
     52          1           0        1.102779   -4.539561   -2.245411
     53          1           0        4.857533   -2.762530    0.814232
     54          1           0        3.984641   -4.108536    1.036197
     55          1           0        2.203802   -2.555107    2.193435
     56          1           0        3.696823   -1.702917    2.495747
     57          1           0       -4.288185   -5.054059    0.752989
     58          1           0       -2.635623   -5.343979    0.049886
     59          1           0       -4.033882   -5.039418   -1.006337
     60          1           0       -6.830671   -0.874827    1.127064
     61          1           0       -7.745959   -1.986544    0.201083
     62          1           0       -6.967270   -0.774127   -0.726206
     63          1           0       -4.726427    2.932387    1.132370
     64          1           0       -2.940163    4.754273   -0.282449
     65          1           0       -4.415370    4.014088   -1.541339
     66          1           0       -5.958929    3.275397   -0.763293
     67          1           0       -4.849522    2.337649   -1.648136
     68          1           0       -1.652591    3.843549    2.274648
     69          1           0       -3.371256    4.096605    2.462773
     70          1           0       -2.919474    6.291128    2.819790
     71          1           0       -2.370462    6.428086    1.140258
     72          1           0       -1.266568    6.058627    2.420900
     73          1           0        3.204986    5.012694   -0.869345
     74          1           0        1.483418    5.326234   -1.562105
     75          1           0        2.846348    4.622410   -2.517964
     76          1           0        4.653534   -0.420593   -1.503265
     77          1           0        6.176178   -1.128368    2.408447
     78          1           0        7.543759   -0.203831    1.715472
     79          1           0        7.455153   -1.874171    1.269793
 ---------------------------------------------------------------------

 SCF Done:  E(RwB97XD) =  -2035.29689987     A.U. after   20 cycles

 Excitation energies and oscillator strengths:

 Excited State   1:      Singlet-A      1.6067 eV  771.68 nm  f=0.3731  <S**2>=0.000
     155 ->158         0.17865
     156 ->157         0.68543
     155 <-158         0.11729
 This state for optimization and/or second-order correction.
 Total Energy, E(TD-HF/TD-DFT) =  -2035.23785536
 Copying the excited state density for this state as the 1-particle RhoCI density.

 Excited State   2:      Singlet-A      2.2111 eV  560.73 nm  f=0.0983  <S**2>=0.000
     155 ->157         0.62754
     156 ->158        -0.31202

 Excited State   3:      Singlet-A      3.4112 eV  363.46 nm  f=0.0005  <S**2>=0.000
     150 ->157        -0.11523
     153 ->157        -0.17719
     154 ->157         0.64848

 Excited State   4:      Singlet-A      3.4568 eV  358.67 nm  f=0.1143  <S**2>=0.000
     153 ->157         0.54982
     154 ->157         0.13609
     155 ->157         0.11394
     156 ->158         0.35979

 Excited State   5:      Singlet-A      3.5684 eV  347.45 nm  f=0.5890  <S**2>=0.000
     151 ->157         0.17913
     151 ->159        -0.14070
     153 ->157        -0.30832
     155 ->157         0.27766
     156 ->158         0.48679

 The electronic state is 1-A.
 Alpha  occ. eigenvalues --  -46.94939 -19.29846 -19.25337 -19.24185 -19.23253
 Alpha  occ. eigenvalues --  -14.46995 -14.46491 -14.44180 -14.44114 -10.43085
 Alpha  occ. eigenvalues --  -10.39010 -10.38566 -10.35246 -10.35205 -10.34975
 Alpha  occ. eigenvalues --  -10.34838 -10.34658 -10.34603 -10.34512 -10.33997
 Alpha  occ. eigenvalues --  -10.33326 -10.32866 -10.32563 -10.32556 -10.32459
 Alpha  occ. eigenvalues --  -10.32295 -10.32181 -10.32107 -10.31884 -10.31880
 Alpha  occ. eigenvalues --  -10.31524 -10.31070 -10.30860 -10.30543 -10.30494
 Alpha  occ. eigenvalues --  -10.30423 -10.30368 -10.30304 -10.29960 -10.29437
 Alpha  occ. eigenvalues --  -10.29366 -10.29185 -10.29158  -3.21009  -1.94562
 Alpha  occ. eigenvalues --   -1.94140  -1.93997  -1.19411  -1.12612  -1.12195
 Alpha  occ. eigenvalues --   -1.11161  -1.06594  -1.06036  -1.05331  -1.04653
 Alpha  occ. eigenvalues --   -0.95161  -0.91746  -0.91313  -0.90299  -0.89452
 Alpha  occ. eigenvalues --   -0.88286  -0.87757  -0.86649  -0.86054  -0.84633
 Alpha  occ. eigenvalues --   -0.83602  -0.82819  -0.82469  -0.79886  -0.79443
 Alpha  occ. eigenvalues --   -0.78781  -0.77982  -0.77096  -0.74693  -0.73656
 Alpha  occ. eigenvalues --   -0.71559  -0.70813  -0.70574  -0.69092  -0.67792
 Alpha  occ. eigenvalues --   -0.67076  -0.66523  -0.66370  -0.64100  -0.61978
 Alpha  occ. eigenvalues --   -0.61427  -0.61009  -0.60926  -0.60107  -0.59399
 Alpha  occ. eigenvalues --   -0.58538  -0.58019  -0.57364  -0.57057  -0.56563
 Alpha  occ. eigenvalues --   -0.56026  -0.54994  -0.54806  -0.54300  -0.54212
 Alpha  occ. eigenvalues --   -0.54020  -0.53532  -0.53343  -0.53078  -0.52874
 Alpha  occ. eigenvalues --   -0.52101  -0.51553  -0.51340  -0.51215  -0.50848
 Alpha  occ. eigenvalues --   -0.50690  -0.50552  -0.50286  -0.49465  -0.49132
 Alpha  occ. eigenvalues --   -0.49045  -0.48825  -0.48738  -0.48312  -0.47950
 Alpha  occ. eigenvalues --   -0.47826  -0.47426  -0.47170  -0.46603  -0.46297
 Alpha  occ. eigenvalues --   -0.46025  -0.45838  -0.45537  -0.45152  -0.44698
 Alpha  occ. eigenvalues --   -0.44523  -0.44382  -0.44114  -0.44082  -0.43791
 Alpha  occ. eigenvalues --   -0.43058  -0.42674  -0.42298  -0.41764  -0.41033
 Alpha  occ. eigenvalues --   -0.40411  -0.39811  -0.39316  -0.39076  -0.38476
 Alpha  occ. eigenvalues --   -0.37712  -0.37049  -0.36216  -0.35298  -0.33579
 Alpha  occ. eigenvalues --   -0.33121  -0.32466  -0.32073  -0.31826  -0.26228
 Alpha  occ. eigenvalues --   -0.22852
 Alpha virt. eigenvalues --   -0.07121   0.00127   0.02297   0.04491   0.04652
 Alpha virt. eigenvalues --    0.07576   0.07773   0.08155   0.10249   0.10759
 Alpha virt. eigenvalues --    0.11289   0.12142   0.12834   0.13155   0.13633

 Mulliken charges:
               1
     1  Mg   0.971167
     2  C   -0.073580
     3  C   -0.088709
     4  C   -0.070255
     5  C   -0.087627
     6  N   -0.366463
     7  C    0.021410
     8  C   -0.041209
     9  C   -0.131899
    10  C    0.059983
    11  C    0.036728
    12  C   -0.026242
    13  C   -0.106258
    14  H    0.042073
    15  N   -0.438611
    16  C    0.155297
    17  C   -0.199071
    18  C   -0.050555
    19  C    0.165393
    20  C    0.110694
    21  C    0.017540
    22  O   -0.237363
    23  C   -0.009391
    24  N   -0.356958
    25  C    0.045752
    26  C   -0.080083
    27  C   -0.111572
    28  C    0.037538
    29  C    0.042920
    30  C    0.014739
    31  C   -0.045865
    32  N   -0.434548
    33  C    0.147876
    34  C   -0.205209
    35  C   -0.044317
    36  C    0.163097
    37  C    0.102125
    38  C    0.124237
    39  O   -0.206578
    40  C   -0.072921
    41  C    0.257836
    42  O   -0.210116
    43  O   -0.374926
    44  C    0.128990
    45  H   -0.001815
    46  H   -0.030304
    47  H    0.001576
    48  H    0.040526
    49  H    0.052531
    50  H    0.037915
    51  H    0.045543
    52  H    0.046135
    53  H    0.018129
    54  H    0.023457
    55  H    0.051761
    56  H    0.057263
    57  H    0.065779
    58  H    0.021447
    59  H    0.056299
    60  H    0.066080
    61  H    0.044667
    62  H    0.054433
    63  H    0.033930
    64  H    0.029533
    65  H    0.040563
    66  H    0.046107
    67  H    0.027740
    68  H    0.057243
    69  H    0.024511
    70  H    0.038665
    71  H    0.024908
    72  H    0.035856
    73  H    0.069379
    74  H    0.037725
    75  H    0.057394
    76  H    0.064953
    77  H    0.073151
    78  H    0.055926
    79  H    0.055921
 Sum of Mulliken charges =  -0.00000

 Dipole moment (field-independent basis, Debye):
    X=             -1.5666    Y=              0.5955    Z=             -1.2786  Tot=              2.1080
 Quadrupole moment (field-independent basis, Debye-Ang):
   XX=           -268.7700   YY=           -241.9683   ZZ=           -256.6182
   XY=            -46.3835   XZ=              4.7012   YZ=              2.1509

 Normal termination of Gaussian 16 at Sat Sep 18 16:16:06 2021.
