 Gaussian 16, Revision A.03,
 Gaussian 16:  ES64L-G16RevA.03 25-Dec-2016

 --------------------------------
 #p wB97XD/Def2SVP td=(nstates=5)
 --------------------------------

 --------------------------------
 TDDFT excited states in gaussian
 --------------------------------
 Symbolic Z-matrix:
 Charge =  0 Multiplicity = 1

                         Standard orientation:
 ---------------------------------------------------------------------
 Center     Atomic      Atomic             Coordinates (Angstroms)
 Number     Number       Type             X           Y           Z
 ---------------------------------------------------------------------
      1         12           0       12.305904   -0.123216    0.517839
      2          6           0        9.000825   -0.380275   -0.684052
      3          6           0       13.224534    1.184252   -2.524867
      4          6           0       15.492510    0.081567    1.559055
      5          6           0       11.442545   -1.974871    3.358468
      6          7           0       11.155828    0.430283   -1.257618
      7          6           0        9.879708    0.288154   -1.604182
      8          6           0        9.481059    0.814593   -2.998639
      9          6           0       10.970560    1.005966   -3.565187
     10          6           0       11.863445    0.814260   -2.363663
     11          6           0       11.321874    0.055026   -4.683500
     12          6           0        8.632611    2.203505   -2.973630
     13          6           0        7.729392    2.377832   -4.198070
     14          1           0        6.218763    2.475852   -3.863016
     15          7           0       14.127496    0.699400   -0.293972
     16          6           0       14.275267    1.152756   -1.628221
     17          6           0       15.564358    1.802360   -1.705609
     18          6           0       16.243203    1.520650   -0.523491
     19          6           0       15.294880    0.750118    0.340660
     20          6           0       16.114489    2.442320   -2.966263
     21          6           0       17.620771    1.912072   -0.039902
     22          8           0       17.967906    1.617106    1.066361
     23          6           0       18.553899    2.730452   -0.875404
     24          7           0       13.378820   -0.999391    2.100953
     25          6           0       14.684057   -0.705129    2.368324
     26          6           0       15.013444   -1.378613    3.729456
     27          6           0       13.696252   -1.485892    4.476733
     28          6           0       12.733742   -1.520269    3.266294
     29          6           0       15.567874   -2.780281    3.478904
     30          6           0       13.436545   -0.386616    5.439102
     31          6           0       13.666545    1.039405    5.003614
     32          7           0       10.593017   -0.991382    1.262847
     33          6           0       10.366004   -1.721671    2.414204
     34          6           0        8.943884   -2.094497    2.466055
     35          6           0        8.390210   -1.563340    1.288178
     36          6           0        9.397771   -0.925303    0.617575
     37          6           0        8.290103   -2.896011    3.507252
     38          6           0        7.169569   -1.297684    0.575183
     39          8           0        5.968429   -1.586016    0.852842
     40          6           0        7.558756   -0.472164   -0.740910
     41          6           0        7.130130   -1.315791   -1.913470
     42          8           0        7.384185   -2.480330   -2.002939
     43          8           0        6.448249   -0.623042   -2.950322
     44          6           0        6.315194   -1.374767   -4.235245
     45          1           0       13.546239    1.552353   -3.500726
     46          1           0       16.532810    0.037294    1.889200
     47          1           0       11.067774   -2.400049    4.292146
     48          1           0        8.845725    0.086686   -3.504762
     49          1           0       10.978875    2.033707   -3.930296
     50          1           0       11.169365    0.608902   -5.609676
     51          1           0       10.784509   -0.891394   -4.619636
     52          1           0       12.405210   -0.040865   -4.611500
     53          1           0        9.315383    3.053357   -2.948411
     54          1           0        8.048933    2.280012   -2.056037
     55          1           0        8.002299    1.505642   -4.792487
     56          1           0        8.031408    3.224642   -4.814052
     57          1           0       15.232889    2.621402   -3.580573
     58          1           0       16.677876    1.628353   -3.421610
     59          1           0       16.631204    3.381131   -2.765875
     60          1           0       18.042995    3.691873   -0.820253
     61          1           0       18.616965    2.423964   -1.919175
     62          1           0       19.545604    2.755443   -0.422443
     63          1           0       15.776690   -0.877378    4.323695
     64          1           0       13.583284   -2.373931    5.097720
     65          1           0       14.925588   -3.649654    3.619848
     66          1           0       16.438738   -2.903243    4.122698
     67          1           0       15.943623   -2.813456    2.455620
     68          1           0       13.966955   -0.535871    6.379872
     69          1           0       12.376295   -0.488983    5.669634
     70          1           0       12.676957    1.494910    4.957159
     71          1           0       14.156023    1.315196    4.069092
     72          1           0       14.197825    1.554284    5.803921
     73          1           0        8.645139   -3.922527    3.416676
     74          1           0        7.227262   -2.759267    3.308146
     75          1           0        8.580026   -2.566809    4.505991
     76          1           0        7.047649    0.483491   -0.622864
     77          1           0        5.517826   -2.114034   -4.159813
     78          1           0        7.234987   -1.878727   -4.535554
     79          1           0        5.991217   -0.792492   -5.097379
     80         12           0      -12.147913   -0.420124   -0.762103
     81          6           0      -11.938593    3.007963    0.176803
     82          6           0       -9.205741   -0.101445   -2.486870
     83          6           0      -11.827364   -3.904992   -0.762049
     84          6           0      -14.816634   -0.804502    1.491483
     85          7           0      -10.603543    1.328546   -0.856724
     86          6           0      -10.833545    2.631449   -0.625880
     87          6           0       -9.875330    3.465649   -1.456242
     88          6           0       -8.926995    2.467875   -2.279674
     89          6           0       -9.757821    1.129052   -1.939304
     90          6           0       -8.965714    2.863378   -3.772944
     91          6           0       -9.079200    4.414173   -0.574445
     92          6           0       -8.631924    3.875587    0.805286
     93          1           0       -7.123816    3.544326    0.973085
     94          7           0      -10.736040   -1.849185   -1.609601
     95          6           0       -9.590526   -1.448357   -2.262153
     96          6           0       -9.024388   -2.637693   -2.817077
     97          6           0       -9.686278   -3.804397   -2.274546
     98          6           0      -10.845220   -3.242211   -1.535912
     99          6           0       -7.748099   -2.631224   -3.626245
    100          6           0       -9.214655   -5.258653   -2.320406
    101          8           0       -8.148131   -5.536516   -2.834049
    102          6           0       -9.961456   -6.348501   -1.767320
    103          7           0      -13.102171   -2.117950    0.297963
    104          6           0      -12.885578   -3.390710    0.000692
    105          6           0      -13.749586   -4.352250    0.800350
    106          6           0      -14.446814   -3.321815    1.789129
    107          6           0      -14.179248   -2.007638    1.148786
    108          6           0      -14.795875   -5.182264   -0.092187
    109          6           0      -13.889177   -3.507730    3.274958
    110          6           0      -14.776706   -4.046241    4.361151
    111          7           0      -13.301533    0.803125    0.338912
    112          6           0      -14.443284    0.521460    1.116449
    113          6           0      -15.051800    1.767993    1.617348
    114          6           0      -14.101210    2.714301    1.234941
    115          6           0      -12.975580    2.117101    0.567035
    116          6           0      -16.448655    1.998220    2.290960
    117          6           0      -13.815841    4.150105    1.321036
    118          8           0      -14.436247    5.111987    1.803512
    119          6           0      -12.433553    4.412106    0.637045
    120          6           0      -11.666017    4.918359    1.809233
    121          8           0      -11.488321    4.316675    2.837238
    122          8           0      -11.311641    6.184580    1.609679
    123          6           0      -10.450380    6.879535    2.629089
    124          1           0       -8.457037    0.047596   -3.267501
    125          1           0      -11.890302   -4.994546   -0.730730
    126          1           0      -15.564450   -1.046119    2.250370
    127          1           0      -10.613056    4.008940   -2.046793
    128          1           0       -7.906606    2.448141   -1.895973
    129          1           0       -7.951217    3.112272   -4.083665
    130          1           0       -9.571752    3.742627   -3.992955
    131          1           0       -9.293795    1.971953   -4.306898
    132          1           0       -9.664686    5.314265   -0.386783
    133          1           0       -8.144761    4.695000   -1.061177
    134          1           0       -9.015063    2.904766    1.119325
    135          1           0       -8.931455    4.653122    1.508105
    136          1           0       -7.313846   -1.633239   -3.691088
    137          1           0       -7.965034   -3.101641   -4.585893
    138          1           0       -7.067748   -3.343477   -3.160743
    139          1           0      -10.095796   -6.322709   -0.685723
    140          1           0       -9.454579   -7.285280   -1.998094
    141          1           0      -10.935210   -6.236998   -2.245487
    142          1           0      -13.185126   -5.026240    1.444231
    143          1           0      -15.459267   -3.724048    1.828765
    144          1           0      -14.642853   -4.945589   -1.145527
    145          1           0      -15.793811   -4.839673    0.182074
    146          1           0      -14.803407   -6.262722    0.059584
    147          1           0      -13.632824   -2.547694    3.723117
    148          1           0      -12.998397   -4.134372    3.282112
    149          1           0      -15.172987   -3.280370    5.027910
    150          1           0      -14.054291   -4.670579    4.887937
    151          1           0      -15.506003   -4.786920    4.032679
    152          1           0      -16.380112    1.647215    3.320257
    153          1           0      -17.187011    1.478604    1.680060
    154          1           0      -16.629524    3.071547    2.345990
    155          1           0      -12.627516    5.124868   -0.165325
    156          1           0      -11.027669    7.308654    3.448365
    157          1           0       -9.873146    7.685104    2.173441
    158          1           0       -9.764538    6.109047    2.981279
 ---------------------------------------------------------------------

 SCF Done:  E(RwB97XD) =  -4070.56674790     A.U. after   20 cycles

 Excitation energies and oscillator strengths:

 Excited State   1:      Singlet-A      1.6287 eV  761.26 nm  f=0.3871  <S**2>=0.000
     309 -> 315        0.20567
     312 -> 314        0.67491
     309 <- 315        0.12451
 This state for optimization and/or second-order correction.
 Total Energy, E(TD-HF/TD-DFT) =  -4070.50689528
 Copying the excited state density for this state as the 1-particle RhoCI density.

 Excited State   2:      Singlet-A      1.6525 eV  750.27 nm  f=0.3399  <S**2>=0.000
     310 -> 316       -0.17698
     311 -> 313        0.68174
     310 <- 316       -0.11324

 Excited State   3:      Singlet-A      2.1346 eV  580.83 nm  f=0.1143  <S**2>=0.000
     310 -> 313        0.64341
     311 -> 316        0.27094

 Excited State   4:      Singlet-A      2.1416 eV  578.93 nm  f=0.0713  <S**2>=0.000
     309 -> 314        0.61564
     312 -> 315       -0.33092

 Excited State   5:      Singlet-A      3.1826 eV  389.57 nm  f=0.0150  <S**2>=0.000
     308 -> 314        0.65739
     308 -> 317       -0.10742
     312 -> 315        0.20034

 The electronic state is 1-A.
 Alpha  occ. eigenvalues --  -46.96406 -46.94920 -19.30163 -19.29664 -19.24885
 Alpha  occ. eigenvalues --  -19.24119 -19.23776 -19.23658 -19.23228 -19.22925
 Alpha  occ. eigenvalues --  -14.47997 -14.46873 -14.46424 -14.45894 -14.44609
 Alpha  occ. eigenvalues --  -14.44308 -14.44010 -14.43589 -10.43188 -10.42435
 Alpha  occ. eigenvalues --  -10.39154 -10.38870 -10.38708 -10.38102 -10.36099
 Alpha  occ. eigenvalues --  -10.35976 -10.35907 -10.35397 -10.35329 -10.35253
 Alpha  occ. eigenvalues --  -10.35065 -10.35027 -10.34871 -10.34868 -10.34715
 Alpha  occ. eigenvalues --  -10.34586 -10.34581 -10.34483 -10.33824 -10.33773
 Alpha  occ. eigenvalues --  -10.33627 -10.33309 -10.32922 -10.32861 -10.32807
 Alpha  occ. eigenvalues --  -10.32757 -10.32666 -10.32483 -10.32306 -10.32285
 Alpha  occ. eigenvalues --  -10.32278 -10.32275 -10.32220 -10.32214 -10.32154
 Alpha  occ. eigenvalues --  -10.32084 -10.32076 -10.32052 -10.31756 -10.31668
 Alpha  occ. eigenvalues --  -10.31590 -10.31330 -10.31149 -10.31115 -10.31103
 Alpha  occ. eigenvalues --  -10.30997 -10.30849 -10.30743 -10.30670 -10.30581
 Alpha  occ. eigenvalues --  -10.30556 -10.30474 -10.30395 -10.30269 -10.30201
 Alpha  occ. eigenvalues --  -10.29946 -10.29684 -10.29630 -10.29344 -10.29261
 Alpha  occ. eigenvalues --  -10.29188 -10.28926 -10.28872 -10.28818 -10.28351
 Alpha  occ. eigenvalues --  -10.28242  -3.22200  -3.20853  -1.95744  -1.95347
 Alpha  occ. eigenvalues --   -1.95133  -1.94466  -1.93953  -1.93840  -1.19102
 Alpha  occ. eigenvalues --   -1.17681  -1.14352  -1.12263  -1.10909  -1.09768
 Alpha  occ. eigenvalues --   -1.09518  -1.08798  -1.07284  -1.06458  -1.05598
 Alpha  occ. eigenvalues --   -1.05533  -1.04884  -1.04287  -1.03725  -1.03518
 Alpha  occ. eigenvalues --   -0.94878  -0.93783  -0.91960  -0.91288  -0.90738
 Alpha  occ. eigenvalues --   -0.90694  -0.90533  -0.90027  -0.89778  -0.88883
 Alpha  occ. eigenvalues --   -0.88815  -0.88069  -0.87933  -0.87181  -0.86582
 Alpha  occ. eigenvalues --   -0.86456  -0.85786  -0.85389  -0.84634  -0.84558
 Alpha  occ. eigenvalues --   -0.84392  -0.84384  -0.83009  -0.82918  -0.82068
 Alpha  occ. eigenvalues --   -0.81828  -0.80896  -0.79706  -0.79217  -0.79154
 Alpha  occ. eigenvalues --   -0.78969  -0.78197  -0.78176  -0.78066  -0.76904
 Alpha  occ. eigenvalues --   -0.76773  -0.74708  -0.74393  -0.73579  -0.73274
 Alpha  occ. eigenvalues --   -0.71575  -0.70813  -0.70708  -0.70312  -0.69950
 Alpha  occ. eigenvalues --   -0.69786  -0.69067  -0.68543  -0.67749  -0.67355
 Alpha  occ. eigenvalues --   -0.67011  -0.66926  -0.66635  -0.66167  -0.65887
 Alpha  occ. eigenvalues --   -0.65302  -0.64285  -0.63713  -0.62386  -0.62111
 Alpha  occ. eigenvalues --   -0.61875  -0.61116  -0.61115  -0.60921  -0.60861
 Alpha  occ. eigenvalues --   -0.60503  -0.60496  -0.59672  -0.59559  -0.59107
 Alpha  occ. eigenvalues --   -0.58390  -0.58081  -0.57723  -0.57672  -0.56828
 Alpha  occ. eigenvalues --   -0.56741  -0.56668  -0.56412  -0.56337  -0.55970
 Alpha  occ. eigenvalues --   -0.55904  -0.55681  -0.55643  -0.55568  -0.55257
 Alpha  occ. eigenvalues --   -0.54946  -0.54866  -0.54431  -0.54324  -0.54310
 Alpha  occ. eigenvalues --   -0.53820  -0.53777  -0.53597  -0.53539  -0.53418
 Alpha  occ. eigenvalues --   -0.53321  -0.52708  -0.52586  -0.52468  -0.52169
 Alpha  occ. eigenvalues --   -0.51936  -0.51882  -0.51593  -0.51593  -0.51512
 Alpha  occ. eigenvalues --   -0.51478  -0.51251  -0.51041  -0.51025  -0.50997
 Alpha  occ. eigenvalues --   -0.50773  -0.50333  -0.50237  -0.50120  -0.50043
 Alpha  occ. eigenvalues --   -0.49646  -0.49580  -0.49550  -0.49083  -0.49054
 Alpha  occ. eigenvalues --   -0.48773  -0.48698  -0.48636  -0.48387  -0.48239
 Alpha  occ. eigenvalues --   -0.48065  -0.47760  -0.47600  -0.47424  -0.47404
 Alpha  occ. eigenvalues --   -0.47295  -0.47095  -0.47072  -0.46951  -0.46896
 Alpha  occ. eigenvalues --   -0.46887  -0.46651  -0.46206  -0.46125  -0.46053
 Alpha  occ. eigenvalues --   -0.45775  -0.45613  -0.45466  -0.45408  -0.45344
 Alpha  occ. eigenvalues --   -0.45104  -0.45004  -0.44986  -0.44740  -0.44717
 Alpha  occ. eigenvalues --   -0.44431  -0.44367  -0.44199  -0.43826  -0.43707
 Alpha  occ. eigenvalues --   -0.43455  -0.43299  -0.43207  -0.43118  -0.42916
 Alpha  occ. eigenvalues --   -0.42860  -0.42637  -0.42258  -0.42129  -0.41858
 Alpha  occ. eigenvalues --   -0.41822  -0.41621  -0.41586  -0.41392  -0.40407
 Alpha  occ. eigenvalues --   -0.40278  -0.39759  -0.39650  -0.39252  -0.39244
 Alpha  occ. eigenvalues --   -0.39060  -0.38997  -0.38699  -0.38343  -0.38190
 Alpha  occ. eigenvalues --   -0.38187  -0.37529  -0.36582  -0.36469  -0.36056
 Alpha  occ. eigenvalues --   -0.35941  -0.35471  -0.35372  -0.33878  -0.33452
 Alpha  occ. eigenvalues --   -0.33348  -0.32622  -0.32442  -0.32300  -0.32245
 Alpha  occ. eigenvalues --   -0.32107  -0.31414  -0.30967  -0.26057  -0.26045
 Alpha  occ. eigenvalues --   -0.23174  -0.22977
 Alpha virt. eigenvalues --   -0.07266  -0.06976  -0.00519   0.00216   0.02490
 Alpha virt. eigenvalues --    0.02512   0.04273   0.04329   0.04722   0.06290
 Alpha virt. eigenvalues --    0.07174   0.07322   0.07759   0.07759   0.08116

 Mulliken charges:
               1
     1  Mg   0.953866
     2  C   -0.042667
     3  C   -0.110283
     4  C   -0.074539
     5  C   -0.071287
     6  N   -0.321081
     7  C   -0.004235
     8  C   -0.076319
     9  C   -0.141296
    10  C    0.116581
    11  C    0.056694
    12  C    0.009100
    13  C   -0.101868
    14  H    0.060659
    15  N   -0.444435
    16  C    0.147128
    17  C   -0.177258
    18  C   -0.058290
    19  C    0.148115
    20  C    0.068314
    21  C    0.023179
    22  O   -0.209996
    23  C   -0.009884
    24  N   -0.406362
    25  C    0.080347
    26  C   -0.093926
    27  C   -0.044146
    28  C    0.108085
    29  C    0.034231
    30  C    0.007530
    31  C   -0.069574
    32  N   -0.442768
    33  C    0.083723
    34  C   -0.209022
    35  C    0.007153
    36  C    0.127352
    37  C    0.079149
    38  C    0.099200
    39  O   -0.251075
    40  C   -0.046013
    41  C    0.263416
    42  O   -0.210270
    43  O   -0.401541
    44  C    0.135630
    45  H    0.006406
    46  H    0.021190
    47  H   -0.000324
    48  H    0.038220
    49  H    0.035831
    50  H    0.032010
    51  H    0.057829
    52  H    0.022823
    53  H    0.027332
    54  H    0.042876
    55  H    0.027595
    56  H    0.044467
    57  H    0.032500
    58  H    0.076051
    59  H    0.059533
    60  H    0.059838
    61  H    0.052676
    62  H    0.061909
    63  H    0.024939
    64  H    0.018262
    65  H    0.045019
    66  H    0.032894
    67  H    0.031266
    68  H    0.032106
    69  H    0.016230
    70  H    0.030687
    71  H    0.056732
    72  H    0.029893
    73  H    0.054012
    74  H    0.066404
    75  H    0.035059
    76  H    0.077668
    77  H    0.057282
    78  H    0.049825
    79  H    0.051644
    80  Mg   0.941944
    81  C   -0.038154
    82  C   -0.073101
    83  C   -0.078294
    84  C   -0.055797
    85  N   -0.319942
    86  C   -0.052671
    87  C   -0.003395
    88  C   -0.147337
    89  C    0.056660
    90  C    0.022577
    91  C   -0.011213
    92  C   -0.138561
    93  H    0.014855
    94  N   -0.462445
    95  C    0.168324
    96  C   -0.174944
    97  C   -0.086615
    98  C    0.201848
    99  C    0.084603
   100  C    0.036101
   101  O   -0.235578
   102  C    0.005160
   103  N   -0.322826
   104  C    0.047526
   105  C   -0.151641
   106  C   -0.062422
   107  C    0.046668
   108  C    0.017276
   109  C   -0.028935
   110  C   -0.050526
   111  N   -0.501128
   112  C    0.150827
   113  C   -0.184902
   114  C   -0.035170
   115  C    0.186934
   116  C    0.087820
   117  C    0.097628
   118  O   -0.231445
   119  C   -0.050499
   120  C    0.238133
   121  O   -0.235776
   122  O   -0.346852
   123  C    0.130797
   124  H    0.013679
   125  H   -0.019965
   126  H    0.003127
   127  H    0.034948
   128  H    0.062113
   129  H    0.033459
   130  H    0.044175
   131  H    0.040225
   132  H    0.040778
   133  H    0.041271
   134  H    0.087387
   135  H    0.047244
   136  H    0.030119
   137  H    0.048302
   138  H    0.062913
   139  H    0.066577
   140  H    0.056876
   141  H    0.054376
   142  H    0.040515
   143  H    0.017860
   144  H    0.043467
   145  H    0.031022
   146  H    0.046276
   147  H    0.037564
   148  H    0.032374
   149  H    0.053088
   150  H    0.028201
   151  H    0.026459
   152  H    0.054200
   153  H    0.056418
   154  H    0.062838
   155  H    0.067682
   156  H    0.072580
   157  H    0.058997
   158  H    0.067343
 Sum of Mulliken charges =  -0.00000

 Dipole moment (field-independent basis, Debye):
    X=              3.5002    Y=              2.6075    Z=             -4.8730  Tot=              6.5419
 Quadrupole moment (field-independent basis, Debye-Ang):
   XX=           -390.5709   YY=           -502.4793   ZZ=           -473.8459
   XY=             88.1804   XZ=            -24.4424   YZ=            -38.4507

 Normal termination of Gaussian 16 at Fri Sep 17 12:49:50 2021.
