 Gaussian 16, Revision A.03,
 Gaussian 16:  ES64L-G16RevA.03 25-Dec-2016

 --------------------------------
 #p wB97XD/Def2SVP td=(nstates=5)
 --------------------------------

 --------------------------------
 TDDFT excited states in gaussian
 --------------------------------
 Symbolic Z-matrix:
 Charge =  0 Multiplicity = 1

                         Standard orientation:
 ---------------------------------------------------------------------
 Center     Atomic      Atomic             Coordinates (Angstroms)
 Number     Number       Type             X           Y           Z
 ---------------------------------------------------------------------
      1         12           0      -13.547213   -0.680518   -0.330012
      2          6           0      -12.379938    1.992072    1.583847
      3          6           0      -15.308550    1.428516   -2.207922
      4          6           0      -15.565605   -3.309149   -1.167563
      5          6           0      -11.726060   -2.852405    1.695469
      6          7           0      -13.682666    1.511991   -0.413594
      7          6           0      -13.117856    2.359920    0.437403
      8          6           0      -13.372071    3.828385   -0.061328
      9          6           0      -14.396985    3.612212   -1.200426
     10          6           0      -14.507363    2.092920   -1.286808
     11          6           0      -15.871866    4.161973   -0.867226
     12          6           0      -12.075961    4.607956   -0.570933
     13          6           0      -12.055892    6.028125   -0.119686
     14          1           0      -11.825546    7.134604   -1.137471
     15          7           0      -15.189818   -0.894133   -1.543853
     16          6           0      -15.770744    0.111751   -2.269744
     17          6           0      -16.685133   -0.487213   -3.251923
     18          6           0      -16.751248   -1.872956   -2.935913
     19          6           0      -15.836522   -2.053731   -1.796441
     20          6           0      -17.481557    0.352834   -4.300764
     21          6           0      -17.646275   -2.976320   -3.576473
     22          8           0      -17.632236   -4.155133   -3.240236
     23          6           0      -18.553164   -2.581048   -4.679907
     24          7           0      -13.663996   -2.707557    0.186421
     25          6           0      -14.628085   -3.632631   -0.225278
     26          6           0      -14.468196   -4.944577    0.586605
     27          6           0      -12.921658   -4.941845    0.962162
     28          6           0      -12.778833   -3.393828    0.925292
     29          6           0      -15.457091   -5.054874    1.766971
     30          6           0      -11.978532   -5.600159   -0.004339
     31          6           0      -11.550592   -4.906478   -1.263421
     32          7           0      -12.142037   -0.539023    1.177003
     33          6           0      -11.508110   -1.490160    1.942589
     34          6           0      -10.627191   -0.888740    2.946394
     35          6           0      -11.010057    0.527504    2.922784
     36          6           0      -11.945476    0.651966    1.822881
     37          6           0       -9.803365   -1.590963    3.899409
     38          6           0      -10.827535    1.829537    3.552631
     39          8           0      -10.233317    2.174280    4.504308
     40          6           0      -11.670300    2.857950    2.632715
     41          6           0      -12.562776    3.795462    3.406095
     42          8           0      -13.742419    3.589296    3.675560
     43          8           0      -11.851912    4.965091    3.673101
     44          6           0      -12.553401    6.039028    4.399512
     45          1           0      -15.800976    1.958941   -3.026056
     46          1           0      -16.260173   -4.097016   -1.467647
     47          1           0      -11.111381   -3.581331    2.227034
     48          1           0      -13.868256    4.438769    0.693626
     49          1           0      -14.158239    4.072251   -2.159296
     50          1           0      -15.919804    5.181843   -1.249430
     51          1           0      -16.108513    4.249896    0.192823
     52          1           0      -16.588535    3.540560   -1.405470
     53          1           0      -12.012070    4.616157   -1.659155
     54          1           0      -11.120285    4.168959   -0.284112
     55          1           0      -11.173186    6.069010    0.517897
     56          1           0      -12.890513    6.384813    0.483222
     57          1           0      -18.421675    0.613097   -3.815218
     58          1           0      -17.598449   -0.185176   -5.241809
     59          1           0      -17.098592    1.363847   -4.443675
     60          1           0      -19.112427   -1.645951   -4.653999
     61          1           0      -19.304488   -3.355744   -4.831054
     62          1           0      -18.042843   -2.730078   -5.631895
     63          1           0      -14.652279   -5.721938   -0.154408
     64          1           0      -12.733019   -5.377197    1.943319
     65          1           0      -15.025590   -5.246083    2.749510
     66          1           0      -16.318159   -5.690053    1.557891
     67          1           0      -15.967625   -4.102864    1.911270
     68          1           0      -12.318872   -6.566783   -0.373728
     69          1           0      -11.059538   -5.827383    0.536150
     70          1           0      -10.604256   -4.455062   -0.966009
     71          1           0      -12.193631   -4.093977   -1.602425
     72          1           0      -11.412592   -5.646756   -2.052147
     73          1           0       -8.907953   -0.981113    4.020853
     74          1           0       -9.528548   -2.542436    3.444809
     75          1           0      -10.324299   -1.682875    4.851936
     76          1           0      -10.944593    3.474101    2.101840
     77          1           0      -12.968281    5.591134    5.302892
     78          1           0      -13.388410    6.422398    3.813681
     79          1           0      -12.006954    6.934198    4.696904
     80         12           0       14.014310   -0.593574    0.155871
     81          6           0       11.932345    2.065281   -0.833515
     82          6           0       16.703743    1.595585   -0.099327
     83          6           0       15.968290   -3.206857    0.772542
     84          6           0       11.309106   -2.869366   -0.471128
     85          7           0       14.285642    1.543225   -0.417984
     86          6           0       13.247193    2.452847   -0.662290
     87          6           0       13.773503    3.865890   -0.491739
     88          6           0       15.321847    3.727117   -0.537369
     89          6           0       15.450599    2.187498   -0.332832
     90          6           0       16.035476    4.322005   -1.791793
     91          6           0       13.230573    4.618415    0.772273
     92          6           0       13.101992    6.194474    0.587259
     93          1           0       13.559792    6.797758   -0.743334
     94          7           0       15.974142   -0.740774    0.430088
     95          6           0       16.909799    0.277056    0.361387
     96          6           0       18.206348   -0.197462    0.750642
     97          6           0       18.058009   -1.614794    0.887593
     98          6           0       16.639549   -1.884997    0.734714
     99          6           0       19.479234    0.702057    0.793411
    100          6           0       19.108951   -2.645467    1.141725
    101          8           0       18.852524   -3.871694    1.081829
    102          6           0       20.628548   -2.451635    1.420637
    103          7           0       13.778501   -2.751670   -0.106864
    104          6           0       14.717179   -3.614507    0.325898
    105          6           0       14.125704   -5.041036    0.451741
    106          6           0       12.652840   -4.948948    0.037063
    107          6           0       12.556787   -3.371190   -0.154124
    108          6           0       14.983869   -6.063620   -0.228578
    109          6           0       11.607389   -5.517895    1.020256
    110          6           0       11.605486   -4.875826    2.429484
    111          7           0       12.008517   -0.503491   -0.579119
    112          6           0       11.049416   -1.457938   -0.609711
    113          6           0        9.781136   -0.769936   -0.845973
    114          6           0       10.021038    0.630594   -0.922865
    115          6           0       11.426663    0.753118   -0.801975
    116          6           0        8.402318   -1.424569   -0.860635
    117          6           0        9.424126    1.915370   -1.103096
    118          8           0        8.264700    2.315533   -1.166081
    119          6           0       10.720810    2.959336   -1.116290
    120          6           0       10.678239    3.790563   -2.384711
    121          8           0       11.065706    3.389692   -3.464701
    122          8           0       10.243916    5.069203   -2.118414
    123          6           0        9.770525    5.898314   -3.222057
    124          1           0       17.448882    2.393522   -0.087132
    125          1           0       16.642323   -4.011229    1.073462
    126          1           0       10.507096   -3.608988   -0.511146
    127          1           0       13.455160    4.472975   -1.339084
    128          1           0       15.710154    4.225888    0.350164
    129          1           0       16.585505    3.463002   -2.174619
    130          1           0       16.786688    5.055121   -1.495529
    131          1           0       15.441611    4.733450   -2.607933
    132          1           0       13.914363    4.525031    1.615392
    133          1           0       12.283946    4.165934    1.064864
    134          1           0       13.788180    6.659836    1.295021
    135          1           0       12.062411    6.457738    0.780832
    136          1           0       20.315015    0.104381    0.427564
    137          1           0       19.735249    1.018076    1.804129
    138          1           0       19.520164    1.652530    0.261619
    139          1           0       20.781320   -1.792307    2.275534
    140          1           0       21.172050   -2.097744    0.544626
    141          1           0       21.111911   -3.309354    1.886876
    142          1           0       14.280336   -5.326300    1.491533
    143          1           0       12.630592   -5.328597   -0.985052
    144          1           0       15.593697   -6.636805    0.470005
    145          1           0       15.598967   -5.584414   -0.990401
    146          1           0       14.427011   -6.797444   -0.812319
    147          1           0       11.909475   -6.560144    1.125042
    148          1           0       10.610770   -5.465904    0.580907
    149          1           0       10.606245   -4.457958    2.550296
    150          1           0       12.374226   -4.103056    2.423034
    151          1           0       11.903657   -5.551108    3.231625
    152          1           0        7.656667   -0.843595   -0.318631
    153          1           0        8.402370   -2.367172   -0.314030
    154          1           0        8.143814   -1.643661   -1.896989
    155          1           0       10.527775    3.632189   -0.280372
    156          1           0       10.440426    5.707773   -4.060938
    157          1           0        9.785770    6.970911   -3.028345
    158          1           0        8.730258    5.610837   -3.374909
 ---------------------------------------------------------------------

 SCF Done:  E(RwB97XD) =  -4070.62471136     A.U. after   17 cycles

 Excitation energies and oscillator strengths:

 Excited State   1:      Singlet-A      1.6017 eV  774.08 nm  f=0.4707  <S**2>=0.000
     309 -> 315        0.17198
     311 -> 313        0.68225
     309 <- 315        0.11361
 This state for optimization and/or second-order correction.
 Total Energy, E(TD-HF/TD-DFT) =  -4070.56584986
 Copying the excited state density for this state as the 1-particle RhoCI density.

 Excited State   2:      Singlet-A      1.6241 eV  763.40 nm  f=0.3155  <S**2>=0.000
     310 -> 316       -0.18173
     312 -> 314        0.68078
     310 <- 316       -0.11694

 Excited State   3:      Singlet-A      2.1365 eV  580.33 nm  f=0.1467  <S**2>=0.000
     309 -> 313        0.65485
     311 -> 315       -0.24832

 Excited State   4:      Singlet-A      2.2000 eV  563.55 nm  f=0.1027  <S**2>=0.000
     310 -> 314        0.63111
     312 -> 316        0.30773

 Excited State   5:      Singlet-A      3.5452 eV  349.73 nm  f=0.0000  <S**2>=0.000
     312 -> 313        0.70701

 The electronic state is 1-A.
 Alpha  occ. eigenvalues --  -46.95253 -46.94206 -19.30218 -19.29481 -19.24997
 Alpha  occ. eigenvalues --  -19.24699 -19.24397 -19.24181 -19.24131 -19.23420
 Alpha  occ. eigenvalues --  -14.47174 -14.46704 -14.45981 -14.45971 -14.44893
 Alpha  occ. eigenvalues --  -14.43955 -14.43850 -14.43741 -10.43507 -10.42955
 Alpha  occ. eigenvalues --  -10.39601 -10.39542 -10.39493 -10.39486 -10.35639
 Alpha  occ. eigenvalues --  -10.35499 -10.35310 -10.35125 -10.34954 -10.34794
 Alpha  occ. eigenvalues --  -10.34764 -10.34562 -10.34546 -10.34503 -10.34339
 Alpha  occ. eigenvalues --  -10.33967 -10.33830 -10.33824 -10.33750 -10.33729
 Alpha  occ. eigenvalues --  -10.33476 -10.33318 -10.33241 -10.33014 -10.32855
 Alpha  occ. eigenvalues --  -10.32792 -10.32408 -10.32321 -10.32321 -10.32301
 Alpha  occ. eigenvalues --  -10.32299 -10.32196 -10.32169 -10.32103 -10.32034
 Alpha  occ. eigenvalues --  -10.31877 -10.31817 -10.31655 -10.31622 -10.31565
 Alpha  occ. eigenvalues --  -10.31560 -10.31470 -10.31416 -10.31415 -10.31091
 Alpha  occ. eigenvalues --  -10.30890 -10.30760 -10.30680 -10.30642 -10.30576
 Alpha  occ. eigenvalues --  -10.30204 -10.30131 -10.30123 -10.30116 -10.30103
 Alpha  occ. eigenvalues --  -10.29921 -10.29741 -10.29614 -10.29433 -10.29420
 Alpha  occ. eigenvalues --  -10.29413 -10.29326 -10.29323 -10.29312 -10.28740
 Alpha  occ. eigenvalues --  -10.28300  -3.21265  -3.20326  -1.94824  -1.94387
 Alpha  occ. eigenvalues --   -1.94244  -1.93924  -1.93429  -1.93329  -1.17609
 Alpha  occ. eigenvalues --   -1.17282  -1.15171  -1.12295  -1.11673  -1.10635
 Alpha  occ. eigenvalues --   -1.09640  -1.09614  -1.07112  -1.06352  -1.05517
 Alpha  occ. eigenvalues --   -1.05475  -1.05228  -1.04839  -1.04123  -1.04122
 Alpha  occ. eigenvalues --   -0.94142  -0.93799  -0.91038  -0.90836  -0.90408
 Alpha  occ. eigenvalues --   -0.90406  -0.90107  -0.89889  -0.89275  -0.89085
 Alpha  occ. eigenvalues --   -0.88778  -0.88764  -0.88160  -0.87243  -0.86000
 Alpha  occ. eigenvalues --   -0.85697  -0.85436  -0.85220  -0.84391  -0.84083
 Alpha  occ. eigenvalues --   -0.83713  -0.82988  -0.82899  -0.82571  -0.82277
 Alpha  occ. eigenvalues --   -0.81960  -0.80666  -0.80136  -0.79113  -0.78849
 Alpha  occ. eigenvalues --   -0.78671  -0.78624  -0.77758  -0.77706  -0.76932
 Alpha  occ. eigenvalues --   -0.76732  -0.74505  -0.74197  -0.73379  -0.73036
 Alpha  occ. eigenvalues --   -0.71819  -0.71113  -0.71085  -0.70452  -0.70320
 Alpha  occ. eigenvalues --   -0.69623  -0.69515  -0.68644  -0.67583  -0.67204
 Alpha  occ. eigenvalues --   -0.66851  -0.66560  -0.66187  -0.66139  -0.66054
 Alpha  occ. eigenvalues --   -0.65981  -0.63753  -0.63627  -0.62930  -0.62080
 Alpha  occ. eigenvalues --   -0.61489  -0.61445  -0.60821  -0.60789  -0.60045
 Alpha  occ. eigenvalues --   -0.60041  -0.59701  -0.59388  -0.59155  -0.58912
 Alpha  occ. eigenvalues --   -0.57891  -0.57736  -0.57668  -0.57427  -0.57244
 Alpha  occ. eigenvalues --   -0.56781  -0.56732  -0.56702  -0.56000  -0.55848
 Alpha  occ. eigenvalues --   -0.55466  -0.55392  -0.55254  -0.54984  -0.54808
 Alpha  occ. eigenvalues --   -0.54676  -0.54485  -0.54375  -0.54269  -0.54036
 Alpha  occ. eigenvalues --   -0.53909  -0.53647  -0.53493  -0.53266  -0.53251
 Alpha  occ. eigenvalues --   -0.53148  -0.52950  -0.52602  -0.52278  -0.52068
 Alpha  occ. eigenvalues --   -0.51989  -0.51956  -0.51496  -0.51488  -0.51377
 Alpha  occ. eigenvalues --   -0.51156  -0.51108  -0.50993  -0.50927  -0.50664
 Alpha  occ. eigenvalues --   -0.50549  -0.50472  -0.50175  -0.50128  -0.49846
 Alpha  occ. eigenvalues --   -0.49820  -0.49670  -0.49665  -0.49347  -0.48838
 Alpha  occ. eigenvalues --   -0.48715  -0.48605  -0.48455  -0.48309  -0.48251
 Alpha  occ. eigenvalues --   -0.48130  -0.47985  -0.47776  -0.47689  -0.47381
 Alpha  occ. eigenvalues --   -0.47365  -0.47135  -0.47077  -0.46812  -0.46665
 Alpha  occ. eigenvalues --   -0.46496  -0.46408  -0.46222  -0.46141  -0.46039
 Alpha  occ. eigenvalues --   -0.45980  -0.45895  -0.45599  -0.45380  -0.45203
 Alpha  occ. eigenvalues --   -0.45145  -0.45106  -0.44958  -0.44658  -0.44536
 Alpha  occ. eigenvalues --   -0.44515  -0.44292  -0.43860  -0.43785  -0.43730
 Alpha  occ. eigenvalues --   -0.43562  -0.43501  -0.43459  -0.43388  -0.43310
 Alpha  occ. eigenvalues --   -0.43028  -0.42642  -0.42519  -0.42323  -0.42059
 Alpha  occ. eigenvalues --   -0.41981  -0.41509  -0.41144  -0.40983  -0.40559
 Alpha  occ. eigenvalues --   -0.40533  -0.39903  -0.39745  -0.39582  -0.39545
 Alpha  occ. eigenvalues --   -0.38894  -0.38885  -0.38594  -0.38542  -0.38258
 Alpha  occ. eigenvalues --   -0.37970  -0.37782  -0.36371  -0.36221  -0.36028
 Alpha  occ. eigenvalues --   -0.35697  -0.35246  -0.35008  -0.33674  -0.33345
 Alpha  occ. eigenvalues --   -0.33224  -0.33072  -0.32960  -0.32759  -0.32240
 Alpha  occ. eigenvalues --   -0.32131  -0.31709  -0.31640  -0.26031  -0.25848
 Alpha  occ. eigenvalues --   -0.23183  -0.22528
 Alpha virt. eigenvalues --   -0.07600  -0.06754   0.00525   0.00595   0.02013
 Alpha virt. eigenvalues --    0.02538   0.04088   0.04596   0.04683   0.05975
 Alpha virt. eigenvalues --    0.06785   0.07376   0.07776   0.08134   0.08609

 Mulliken charges:
               1
     1  Mg   0.984211
     2  C    0.016780
     3  C   -0.089938
     4  C   -0.082522
     5  C   -0.106008
     6  N   -0.316775
     7  C    0.009700
     8  C   -0.040637
     9  C   -0.128882
    10  C    0.104226
    11  C   -0.004737
    12  C    0.028127
    13  C   -0.147892
    14  H    0.026153
    15  N   -0.453077
    16  C    0.111781
    17  C   -0.155580
    18  C   -0.103470
    19  C    0.123542
    20  C    0.045712
    21  C    0.084752
    22  O   -0.233118
    23  C   -0.023355
    24  N   -0.364645
    25  C    0.051485
    26  C   -0.053028
    27  C   -0.060161
    28  C    0.046823
    29  C    0.044673
    30  C   -0.025404
    31  C   -0.034978
    32  N   -0.448220
    33  C    0.163489
    34  C   -0.168720
    35  C   -0.084423
    36  C    0.117618
    37  C    0.076925
    38  C    0.137709
    39  O   -0.142191
    40  C   -0.139014
    41  C    0.283391
    42  O   -0.249179
    43  O   -0.383304
    44  C    0.147083
    45  H   -0.013108
    46  H    0.021556
    47  H   -0.009728
    48  H    0.042969
    49  H    0.044083
    50  H    0.031180
    51  H    0.051163
    52  H    0.038009
    53  H    0.038007
    54  H    0.037130
    55  H    0.053990
    56  H    0.051341
    57  H    0.057612
    58  H    0.063550
    59  H    0.032730
    60  H    0.059295
    61  H    0.038582
    62  H    0.062598
    63  H    0.024347
    64  H    0.023799
    65  H    0.039081
    66  H    0.044406
    67  H    0.032070
    68  H    0.026643
    69  H    0.023457
    70  H    0.027104
    71  H    0.051705
    72  H    0.040173
    73  H    0.057549
    74  H    0.036729
    75  H    0.074496
    76  H    0.076128
    77  H    0.054160
    78  H    0.040516
    79  H    0.061758
    80  Mg   0.972037
    81  C    0.006990
    82  C   -0.061586
    83  C   -0.063042
    84  C   -0.063001
    85  N   -0.337746
    86  C   -0.003297
    87  C   -0.035438
    88  C   -0.097866
    89  C    0.010422
    90  C    0.027405
    91  C   -0.006687
    92  C   -0.129129
    93  H    0.034035
    94  N   -0.494898
    95  C    0.189617
    96  C   -0.136832
    97  C   -0.054466
    98  C    0.137848
    99  C    0.059006
   100  C    0.036178
   101  O   -0.271635
   102  C   -0.006947
   103  N   -0.340903
   104  C    0.077644
   105  C   -0.129550
   106  C   -0.020186
   107  C    0.012768
   108  C    0.021350
   109  C   -0.019410
   110  C   -0.045928
   111  N   -0.429066
   112  C    0.150606
   113  C   -0.205204
   114  C    0.004371
   115  C    0.122881
   116  C    0.072240
   117  C    0.116777
   118  O   -0.207582
   119  C   -0.128463
   120  C    0.274745
   121  O   -0.237591
   122  O   -0.379762
   123  C    0.133622
   124  H   -0.002987
   125  H    0.023059
   126  H   -0.004405
   127  H    0.030721
   128  H    0.033160
   129  H    0.030630
   130  H    0.034883
   131  H    0.058444
   132  H    0.029825
   133  H    0.037269
   134  H    0.054532
   135  H    0.069207
   136  H    0.037144
   137  H    0.051165
   138  H    0.045659
   139  H    0.030976
   140  H    0.073487
   141  H    0.048598
   142  H    0.037228
   143  H    0.038721
   144  H    0.043492
   145  H    0.041841
   146  H    0.022260
   147  H    0.033250
   148  H    0.039329
   149  H    0.046961
   150  H    0.038559
   151  H    0.043031
   152  H    0.057703
   153  H    0.018528
   154  H    0.059317
   155  H    0.065615
   156  H    0.060186
   157  H    0.053719
   158  H    0.064562
 Sum of Mulliken charges =  -0.00000

 Dipole moment (field-independent basis, Debye):
    X=              3.2741    Y=              3.0448    Z=              0.2645  Tot=              4.4788
 Quadrupole moment (field-independent basis, Debye-Ang):
   XX=           -421.5129   YY=           -465.5630   ZZ=           -515.0186
   XY=             17.4554   XZ=             93.8888   YZ=            -15.6453

 Normal termination of Gaussian 16 at Sat Sep 18 19:29:46 2021.
