 Gaussian 16, Revision A.03,
 Gaussian 16:  ES64L-G16RevA.03 25-Dec-2016

 --------------------------------
 #p wB97XD/Def2SVP td=(nstates=5)
 --------------------------------

 --------------------------------
 TDDFT excited states in gaussian
 --------------------------------
 Symbolic Z-matrix:
 Charge =  0 Multiplicity = 1

                         Standard orientation:
 ---------------------------------------------------------------------
 Center     Atomic      Atomic             Coordinates (Angstroms)
 Number     Number       Type             X           Y           Z
 ---------------------------------------------------------------------
      1         12           0       24.470566    0.389556   -0.269560
      2          6           0       22.812617   -1.878059    1.849897
      3          6           0       22.943547    2.958450    1.507964
      4          6           0       25.793539    2.471646   -2.492670
      5          6           0       25.240393   -2.330702   -2.482714
      6          7           0       23.043436    0.521941    1.437664
      7          6           0       22.610408   -0.561254    2.215255
      8          6           0       22.109756   -0.045333    3.551650
      9          6           0       21.890934    1.479551    3.338211
     10          6           0       22.681939    1.671767    2.009225
     11          6           0       20.410888    1.975723    3.342159
     12          6           0       23.024602   -0.400458    4.774653
     13          6           0       22.236340   -0.590244    6.144817
     14          1           0       20.722944   -0.358773    6.136864
     15          7           0       24.481109    2.370881   -0.379319
     16          6           0       23.863741    3.262218    0.481218
     17          6           0       24.211362    4.613539    0.148325
     18          6           0       24.933641    4.518943   -1.084134
     19          6           0       25.120315    3.100155   -1.330311
     20          6           0       23.691543    5.857836    0.931085
     21          6           0       25.422867    5.618616   -1.968852
     22          8           0       25.906418    5.382452   -3.101717
     23          6           0       25.365510    7.158590   -1.745851
     24          7           0       25.147264    0.162171   -2.336536
     25          6           0       25.746140    1.175239   -2.990696
     26          6           0       26.529168    0.641505   -4.216527
     27          6           0       26.340849   -0.879661   -4.235431
     28          6           0       25.541416   -1.038325   -2.867648
     29          6           0       26.202366    1.404823   -5.463726
     30          6           0       27.616160   -1.746393   -4.310888
     31          6           0       28.624945   -1.542208   -3.153804
     32          7           0       24.075073   -1.707823   -0.396508
     33          6           0       24.580750   -2.639170   -1.238330
     34          6           0       24.279864   -3.943299   -0.649760
     35          6           0       23.604681   -3.748552    0.587637
     36          6           0       23.451193   -2.344249    0.686553
     37          6           0       24.741425   -5.293095   -1.192818
     38          6           0       23.010025   -4.393803    1.714346
     39          8           0       22.965862   -5.557201    2.105396
     40          6           0       22.377437   -3.137847    2.605321
     41          6           0       20.903016   -3.395709    2.852768
     42          8           0       20.034449   -3.172965    2.032290
     43          8           0       20.688566   -3.810593    4.147508
     44          6           0       19.428613   -4.468140    4.478724
     45          1           0       22.517309    3.679006    2.208823
     46          1           0       26.289876    3.201542   -3.135157
     47          1           0       25.626447   -3.113016   -3.139074
     48          1           0       21.147569   -0.504993    3.777035
     49          1           0       22.428971    1.990758    4.135992
     50          1           0       20.332178    2.477650    2.378391
     51          1           0       20.266028    2.747997    4.098570
     52          1           0       19.598054    1.253063    3.413640
     53          1           0       23.718781    0.408365    5.000617
     54          1           0       23.615402   -1.279868    4.521584
     55          1           0       22.580952    0.187793    6.826171
     56          1           0       22.460878   -1.592312    6.509439
     57          1           0       23.478629    6.638969    0.200271
     58          1           0       24.434899    6.261560    1.617666
     59          1           0       22.819658    5.794807    1.582022
     60          1           0       25.844460    7.428652   -0.804270
     61          1           0       24.350141    7.550995   -1.801289
     62          1           0       26.061322    7.727141   -2.361719
     63          1           0       27.558605    0.962596   -4.062857
     64          1           0       25.577754   -1.052943   -4.995039
     65          1           0       26.972656    2.128388   -5.731226
     66          1           0       25.228078    1.883051   -5.361634
     67          1           0       26.059121    0.779636   -6.345747
     68          1           0       28.088789   -1.409282   -5.233654
     69          1           0       27.349900   -2.800246   -4.397385
     70          1           0       28.714947   -2.519123   -2.679221
     71          1           0       28.188575   -0.800713   -2.484518
     72          1           0       29.577192   -1.108052   -3.458887
     73          1           0       25.106211   -5.957376   -0.409903
     74          1           0       25.617258   -5.187452   -1.832376
     75          1           0       23.935928   -5.705363   -1.801146
     76          1           0       22.886084   -3.212528    3.566807
     77          1           0       18.649014   -3.933395    3.935523
     78          1           0       19.164583   -4.445958    5.536087
     79          1           0       19.565143   -5.513080    4.200119
     80         12           0      -24.080316    0.660215    0.452342
     81          6           0      -23.787754   -2.671717   -0.846444
     82          6           0      -20.716199    1.091522   -0.668624
     83          6           0      -24.373402    4.003459    0.612586
     84          6           0      -27.453391    0.175005    0.740873
     85          7           0      -22.514471   -0.642980   -0.646881
     86          6           0      -22.607344   -1.945585   -1.041943
     87          6           0      -21.279939   -2.450138   -1.708245
     88          6           0      -20.250829   -1.315357   -1.234963
     89          6           0      -21.224165   -0.195419   -0.903366
     90          6           0      -19.425984   -1.676088   -0.020812
     91          6           0      -21.418788   -2.732553   -3.195051
     92          6           0      -20.775913   -4.034404   -3.739953
     93          1           0      -19.366386   -4.001244   -4.494931
     94          7           0      -22.674875    2.380961    0.121108
     95          6           0      -21.316511    2.291014   -0.248085
     96          6           0      -20.737921    3.640209   -0.244612
     97          6           0      -21.818614    4.507228    0.184498
     98          6           0      -23.011310    3.689567    0.239561
     99          6           0      -19.362106    4.025022   -0.640179
    100          6           0      -21.676353    5.973560    0.507154
    101          8           0      -20.560895    6.440643    0.560213
    102          6           0      -22.835074    6.903670    0.783404
    103          7           0      -25.680641    1.833256    0.524663
    104          6           0      -25.512586    3.196950    0.748011
    105          6           0      -26.905578    3.805664    0.925030
    106          6           0      -27.835605    2.562743    1.176301
    107          6           0      -26.915978    1.439748    0.833308
    108          6           0      -27.078703    4.980598    1.956220
    109          6           0      -29.215399    2.518880    0.450692
    110          6           0      -30.440877    2.338134    1.285859
    111          7           0      -25.373723   -0.904626    0.171240
    112          6           0      -26.735277   -0.995482    0.402135
    113          6           0      -27.187090   -2.398033    0.322309
    114          6           0      -26.028049   -3.062010   -0.238853
    115          6           0      -25.009905   -2.106049   -0.306505
    116          6           0      -28.528411   -3.008036    0.633601
    117          6           0      -25.532475   -4.393808   -0.695724
    118          8           0      -26.109264   -5.434853   -0.832816
    119          6           0      -24.117878   -4.124978   -1.198739
    120          6           0      -23.192919   -5.067690   -0.488478
    121          8           0      -23.041689   -4.947638    0.708331
    122          8           0      -22.477344   -5.984976   -1.315266
    123          6           0      -21.404597   -6.785248   -0.650386
    124          1           0      -19.672795    1.250037   -0.949614
    125          1           0      -24.634973    5.057549    0.719197
    126          1           0      -28.494189    0.023691    1.033625
    127          1           0      -20.889586   -3.337954   -1.211573
    128          1           0      -19.639138   -0.961447   -2.064747
    129          1           0      -20.034263   -1.511535    0.868283
    130          1           0      -18.521933   -1.068385   -0.056831
    131          1           0      -19.085905   -2.705420    0.097542
    132          1           0      -20.908200   -1.915282   -3.703496
    133          1           0      -22.465551   -2.590894   -3.463843
    134          1           0      -21.535290   -4.412146   -4.425033
    135          1           0      -20.637520   -4.800389   -2.976825
    136          1           0      -18.794896    4.115133    0.285747
    137          1           0      -19.377882    5.035299   -1.049185
    138          1           0      -18.798508    3.409487   -1.342328
    139          1           0      -22.573582    7.956537    0.887374
    140          1           0      -23.254452    6.569399    1.732423
    141          1           0      -23.696404    6.896583    0.116479
    142          1           0      -27.045189    4.304468   -0.034472
    143          1           0      -27.938141    2.430985    2.253026
    144          1           0      -26.257840    4.986322    2.673836
    145          1           0      -28.053972    4.923401    2.439283
    146          1           0      -27.102896    5.937113    1.434574
    147          1           0      -29.192424    1.725518   -0.296331
    148          1           0      -29.280972    3.418094   -0.161713
    149          1           0      -30.821378    1.326657    1.145166
    150          1           0      -31.213329    3.032423    0.955409
    151          1           0      -30.342535    2.473917    2.362670
    152          1           0      -28.437135   -4.076773    0.826348
    153          1           0      -29.163248   -2.811630   -0.230859
    154          1           0      -28.971950   -2.436155    1.448866
    155          1           0      -24.140455   -4.196372   -2.286270
    156          1           0      -21.861896   -7.611434   -0.105695
    157          1           0      -20.878709   -6.187972    0.094163
    158          1           0      -20.679246   -7.142629   -1.381052
 ---------------------------------------------------------------------

 SCF Done:  E(RwB97XD) =  -4070.61587576     A.U. after   17 cycles

 Excitation energies and oscillator strengths:

 Excited State   1:      Singlet-A      1.6019 eV  773.97 nm  f=0.3861  <S**2>=0.000
     310 -> 316        0.17283
     311 -> 313        0.68543
     310 <- 316        0.11415
 This state for optimization and/or second-order correction.
 Total Energy, E(TD-HF/TD-DFT) =  -4070.55700632
 Copying the excited state density for this state as the 1-particle RhoCI density.

 Excited State   2:      Singlet-A      1.6114 eV  769.43 nm  f=0.4144  <S**2>=0.000
     309 -> 315        0.17514
     312 -> 314        0.68601
     309 <- 315        0.11586

 Excited State   3:      Singlet-A      2.1364 eV  580.34 nm  f=0.1501  <S**2>=0.000
     310 -> 313        0.65487
     311 -> 316       -0.24831

 Excited State   4:      Singlet-A      2.1827 eV  568.03 nm  f=0.1247  <S**2>=0.000
     309 -> 314        0.63924
     312 -> 315       -0.28433

 Excited State   5:      Singlet-A      3.1517 eV  393.39 nm  f=0.0019  <S**2>=0.000
     306 -> 314       -0.12242
     308 -> 314        0.66852
     312 -> 315        0.10225

 The electronic state is 1-A.
 Alpha  occ. eigenvalues --  -46.95661 -46.95253 -19.30506 -19.29481 -19.25673
 Alpha  occ. eigenvalues --  -19.24788 -19.24400 -19.24181 -19.23421 -19.22967
 Alpha  occ. eigenvalues --  -14.47397 -14.47178 -14.46265 -14.45986 -14.44896
 Alpha  occ. eigenvalues --  -14.43952 -14.43939 -14.43744 -10.44109 -10.42956
 Alpha  occ. eigenvalues --  -10.39604 -10.39488 -10.39438 -10.38446 -10.36030
 Alpha  occ. eigenvalues --  -10.35641 -10.35419 -10.35329 -10.35125 -10.34957
 Alpha  occ. eigenvalues --  -10.34796 -10.34766 -10.34698 -10.34548 -10.34478
 Alpha  occ. eigenvalues --  -10.34341 -10.34300 -10.34282 -10.33832 -10.33731
 Alpha  occ. eigenvalues --  -10.33501 -10.33245 -10.33220 -10.33112 -10.33015
 Alpha  occ. eigenvalues --  -10.32897 -10.32848 -10.32784 -10.32694 -10.32323
 Alpha  occ. eigenvalues --  -10.32303 -10.32198 -10.32104 -10.32089 -10.32057
 Alpha  occ. eigenvalues --  -10.32036 -10.31823 -10.31818 -10.31627 -10.31624
 Alpha  occ. eigenvalues --  -10.31568 -10.31472 -10.31420 -10.31291 -10.31039
 Alpha  occ. eigenvalues --  -10.30892 -10.30847 -10.30645 -10.30599 -10.30578
 Alpha  occ. eigenvalues --  -10.30490 -10.30390 -10.30358 -10.30287 -10.30205
 Alpha  occ. eigenvalues --  -10.30124 -10.30117 -10.29899 -10.29740 -10.29622
 Alpha  occ. eigenvalues --  -10.29537 -10.29434 -10.29417 -10.29314 -10.29273
 Alpha  occ. eigenvalues --  -10.28740  -3.21695  -3.21265  -1.95227  -1.94825
 Alpha  occ. eigenvalues --   -1.94817  -1.94665  -1.94388  -1.94245  -1.17609
 Alpha  occ. eigenvalues --   -1.17524  -1.13989  -1.12397  -1.11676  -1.10636
 Alpha  occ. eigenvalues --   -1.10094  -1.09640  -1.06576  -1.06354  -1.05588
 Alpha  occ. eigenvalues --   -1.05477  -1.05230  -1.04798  -1.04125  -1.03534
 Alpha  occ. eigenvalues --   -0.94751  -0.94145  -0.91262  -0.91040  -0.90756
 Alpha  occ. eigenvalues --   -0.90409  -0.90343  -0.90109  -0.89527  -0.89276
 Alpha  occ. eigenvalues --   -0.88780  -0.88169  -0.87584  -0.87245  -0.86396
 Alpha  occ. eigenvalues --   -0.85849  -0.85699  -0.85222  -0.84402  -0.84085
 Alpha  occ. eigenvalues --   -0.83735  -0.82990  -0.82573  -0.82491  -0.82170
 Alpha  occ. eigenvalues --   -0.81961  -0.80668  -0.80082  -0.79431  -0.78851
 Alpha  occ. eigenvalues --   -0.78740  -0.78673  -0.78251  -0.77760  -0.77161
 Alpha  occ. eigenvalues --   -0.76934  -0.74641  -0.74506  -0.73748  -0.73037
 Alpha  occ. eigenvalues --   -0.71822  -0.71441  -0.71115  -0.70892  -0.70322
 Alpha  occ. eigenvalues --   -0.69911  -0.69518  -0.68681  -0.67853  -0.67206
 Alpha  occ. eigenvalues --   -0.67058  -0.66853  -0.66549  -0.66316  -0.66141
 Alpha  occ. eigenvalues --   -0.66056  -0.64339  -0.63628  -0.62932  -0.61799
 Alpha  occ. eigenvalues --   -0.61499  -0.61447  -0.61188  -0.61038  -0.60792
 Alpha  occ. eigenvalues --   -0.60323  -0.60043  -0.59629  -0.59390  -0.58914
 Alpha  occ. eigenvalues --   -0.58493  -0.57892  -0.57669  -0.57597  -0.57417
 Alpha  occ. eigenvalues --   -0.56782  -0.56733  -0.56228  -0.55849  -0.55826
 Alpha  occ. eigenvalues --   -0.55395  -0.55305  -0.55051  -0.54986  -0.54838
 Alpha  occ. eigenvalues --   -0.54678  -0.54487  -0.54271  -0.54163  -0.53911
 Alpha  occ. eigenvalues --   -0.53763  -0.53667  -0.53268  -0.53231  -0.53024
 Alpha  occ. eigenvalues --   -0.52952  -0.52833  -0.52604  -0.52337  -0.51991
 Alpha  occ. eigenvalues --   -0.51862  -0.51804  -0.51670  -0.51490  -0.51237
 Alpha  occ. eigenvalues --   -0.51157  -0.51110  -0.51010  -0.50929  -0.50665
 Alpha  occ. eigenvalues --   -0.50642  -0.50550  -0.50522  -0.50130  -0.50087
 Alpha  occ. eigenvalues --   -0.49822  -0.49666  -0.49598  -0.49349  -0.49004
 Alpha  occ. eigenvalues --   -0.48928  -0.48607  -0.48365  -0.48334  -0.48311
 Alpha  occ. eigenvalues --   -0.48252  -0.48126  -0.47978  -0.47896  -0.47777
 Alpha  occ. eigenvalues --   -0.47745  -0.47383  -0.47193  -0.47137  -0.46897
 Alpha  occ. eigenvalues --   -0.46667  -0.46591  -0.46410  -0.46143  -0.45982
 Alpha  occ. eigenvalues --   -0.45897  -0.45713  -0.45560  -0.45396  -0.45382
 Alpha  occ. eigenvalues --   -0.45239  -0.45109  -0.44960  -0.44811  -0.44546
 Alpha  occ. eigenvalues --   -0.44517  -0.44480  -0.44387  -0.44294  -0.43861
 Alpha  occ. eigenvalues --   -0.43829  -0.43787  -0.43564  -0.43547  -0.43504
 Alpha  occ. eigenvalues --   -0.43015  -0.42722  -0.42644  -0.42520  -0.42465
 Alpha  occ. eigenvalues --   -0.42148  -0.41983  -0.41511  -0.41179  -0.41147
 Alpha  occ. eigenvalues --   -0.40561  -0.40408  -0.39748  -0.39646  -0.39584
 Alpha  occ. eigenvalues --   -0.39347  -0.39151  -0.38896  -0.38604  -0.38261
 Alpha  occ. eigenvalues --   -0.37970  -0.37757  -0.36989  -0.36385  -0.36029
 Alpha  occ. eigenvalues --   -0.35698  -0.35451  -0.35247  -0.33676  -0.33627
 Alpha  occ. eigenvalues --   -0.33314  -0.32961  -0.32761  -0.32394  -0.32242
 Alpha  occ. eigenvalues --   -0.31856  -0.31641  -0.30908  -0.26220  -0.26033
 Alpha  occ. eigenvalues --   -0.23185  -0.22914
 Alpha virt. eigenvalues --   -0.07602  -0.07336   0.00440   0.00523   0.02011
 Alpha virt. eigenvalues --    0.02726   0.04086   0.04241   0.04679   0.04827
 Alpha virt. eigenvalues --    0.06521   0.06929   0.07375   0.07773   0.07985

 Mulliken charges:
               1
     1  Mg   0.971806
     2  C    0.007027
     3  C   -0.061619
     4  C   -0.062963
     5  C   -0.062970
     6  N   -0.337698
     7  C   -0.003205
     8  C   -0.035486
     9  C   -0.097823
    10  C    0.010296
    11  C    0.027416
    12  C   -0.006652
    13  C   -0.129140
    14  H    0.034098
    15  N   -0.494857
    16  C    0.189673
    17  C   -0.136877
    18  C   -0.054417
    19  C    0.137726
    20  C    0.058977
    21  C    0.036218
    22  O   -0.271619
    23  C   -0.007033
    24  N   -0.340820
    25  C    0.077613
    26  C   -0.129587
    27  C   -0.020199
    28  C    0.012852
    29  C    0.021345
    30  C   -0.019491
    31  C   -0.045902
    32  N   -0.428897
    33  C    0.150529
    34  C   -0.205212
    35  C    0.004356
    36  C    0.122870
    37  C    0.072265
    38  C    0.116776
    39  O   -0.207632
    40  C   -0.128540
    41  C    0.274783
    42  O   -0.237537
    43  O   -0.379800
    44  C    0.133611
    45  H   -0.002984
    46  H    0.023053
    47  H   -0.004406
    48  H    0.030760
    49  H    0.033136
    50  H    0.030654
    51  H    0.034881
    52  H    0.058469
    53  H    0.029795
    54  H    0.037209
    55  H    0.054519
    56  H    0.069158
    57  H    0.037177
    58  H    0.051147
    59  H    0.045682
    60  H    0.030977
    61  H    0.073538
    62  H    0.048610
    63  H    0.037209
    64  H    0.038767
    65  H    0.043489
    66  H    0.041860
    67  H    0.022295
    68  H    0.033282
    69  H    0.039388
    70  H    0.046925
    71  H    0.038541
    72  H    0.043012
    73  H    0.057612
    74  H    0.018512
    75  H    0.059397
    76  H    0.065566
    77  H    0.060229
    78  H    0.053710
    79  H    0.064574
    80  Mg   0.981354
    81  C   -0.076464
    82  C   -0.054006
    83  C   -0.079999
    84  C   -0.124159
    85  N   -0.313024
    86  C   -0.015800
    87  C   -0.066035
    88  C   -0.119676
    89  C    0.048941
    90  C    0.041495
    91  C    0.037355
    92  C   -0.107628
    93  H    0.023580
    94  N   -0.419642
    95  C    0.112344
    96  C   -0.143770
    97  C   -0.073730
    98  C    0.168635
    99  C    0.081195
   100  C    0.035493
   101  O   -0.234908
   102  C   -0.012138
   103  N   -0.451731
   104  C    0.092088
   105  C   -0.128666
   106  C   -0.033676
   107  C    0.088941
   108  C    0.013820
   109  C    0.001008
   110  C   -0.047267
   111  N   -0.442199
   112  C    0.135377
   113  C   -0.189482
   114  C   -0.106316
   115  C    0.178296
   116  C    0.090760
   117  C    0.132752
   118  O   -0.174062
   119  C   -0.015286
   120  C    0.278336
   121  O   -0.234451
   122  O   -0.404951
   123  C    0.133370
   124  H   -0.006109
   125  H   -0.037490
   126  H   -0.011913
   127  H    0.025639
   128  H    0.028737
   129  H    0.043264
   130  H    0.042634
   131  H    0.036731
   132  H    0.037368
   133  H    0.040592
   134  H    0.055483
   135  H    0.048124
   136  H    0.055519
   137  H    0.053846
   138  H    0.036882
   139  H    0.051228
   140  H    0.050103
   141  H    0.057963
   142  H    0.051506
   143  H    0.033578
   144  H    0.044832
   145  H    0.038330
   146  H    0.031048
   147  H    0.038662
   148  H    0.025375
   149  H    0.036253
   150  H    0.036901
   151  H    0.035840
   152  H    0.071579
   153  H    0.053867
   154  H    0.034423
   155  H    0.072727
   156  H    0.063788
   157  H    0.051495
   158  H    0.065119
 Sum of Mulliken charges =  -0.00000

 Dipole moment (field-independent basis, Debye):
    X=              0.6538    Y=              4.9440    Z=              3.5118  Tot=              6.0994
 Quadrupole moment (field-independent basis, Debye-Ang):
   XX=           -328.9856   YY=           -534.9803   ZZ=           -492.0361
   XY=              7.5352   XZ=             33.9737   YZ=             25.6852

 Normal termination of Gaussian 16 at Sun Sep 19 05:06:11 2021.
