 Gaussian 16, Revision A.03,
 Gaussian 16:  ES64L-G16RevA.03 25-Dec-2016

 --------------------------------
 #p wB97XD/Def2SVP td=(nstates=5)
 --------------------------------

 --------------------------------
 TDDFT excited states in gaussian
 --------------------------------
 Symbolic Z-matrix:
 Charge =  0 Multiplicity = 1

                         Standard orientation:
 ---------------------------------------------------------------------
 Center     Atomic      Atomic             Coordinates (Angstroms)
 Number     Number       Type             X           Y           Z
 ---------------------------------------------------------------------
      1         12           0       29.142389    0.118483   -0.450447
      2          6           0       25.903745   -0.961154    0.443954
      3          6           0       27.736559    2.985898   -1.853749
      4          6           0       32.238594    1.539049   -0.351017
      5          6           0       30.371055   -2.623926    1.498766
      6          7           0       27.093662    0.863672   -0.691130
      7          6           0       25.961011    0.287170   -0.236084
      8          6           0       24.724488    1.214038   -0.472960
      9          6           0       25.339903    2.244004   -1.528016
     10          6           0       26.880917    2.017235   -1.397845
     11          6           0       25.000119    2.136106   -3.031883
     12          6           0       24.302877    1.861962    0.899871
     13          6           0       22.768979    2.043129    1.070200
     14          1           0       22.312679    3.395477    1.754744
     15          7           0       29.954674    1.969112   -1.222682
     16          6           0       29.184625    2.949094   -1.790719
     17          6           0       30.071687    3.962713   -2.219552
     18          6           0       31.386548    3.652511   -1.761246
     19          6           0       31.272442    2.304261   -1.110757
     20          6           0       29.662756    5.216372   -2.956142
     21          6           0       32.576169    4.550634   -1.781589
     22          8           0       32.503473    5.709773   -2.156901
     23          6           0       33.888270    4.189679   -1.311558
     24          7           0       31.026896   -0.455591    0.572739
     25          6           0       32.195514    0.262925    0.279999
     26          6           0       33.400346   -0.458141    0.798399
     27          6           0       32.829195   -1.767807    1.457564
     28          6           0       31.340861   -1.639835    1.182408
     29          6           0       34.371983   -0.705369   -0.362661
     30          6           0       33.346933   -2.017546    2.924063
     31          6           0       34.045496   -3.317784    3.183652
     32          7           0       28.339413   -1.538748    0.734284
     33          6           0       28.979034   -2.561064    1.391319
     34          6           0       27.998885   -3.562260    1.866342
     35          6           0       26.786377   -2.894479    1.548927
     36          6           0       27.049498   -1.756102    0.810291
     37          6           0       28.225473   -4.834946    2.667158
     38          6           0       25.366930   -2.952361    1.776941
     39          8           0       24.697485   -3.771452    2.425626
     40          6           0       24.704742   -1.760798    1.085675
     41          6           0       23.665633   -2.202524    0.136866
     42          8           0       22.540125   -1.869108    0.229872
     43          8           0       24.161810   -2.858888   -0.952160
     44          6           0       23.111828   -3.038819   -1.978159
     45          1           0       27.327953    3.857494   -2.370215
     46          1           0       33.218521    2.010873   -0.438737
     47          1           0       30.551378   -3.485235    2.146237
     48          1           0       23.918255    0.603728   -0.880287
     49          1           0       25.356965    3.285094   -1.206031
     50          1           0       24.730868    1.110626   -3.287410
     51          1           0       25.765509    2.479574   -3.727879
     52          1           0       24.107324    2.744037   -3.174375
     53          1           0       24.820509    2.808814    1.056196
     54          1           0       24.674598    1.167540    1.653393
     55          1           0       22.483701    1.190305    1.686411
     56          1           0       22.396878    1.882468    0.058114
     57          1           0       30.442000    5.713875   -3.533666
     58          1           0       29.304359    5.869683   -2.161090
     59          1           0       28.733346    5.167776   -3.523570
     60          1           0       34.222005    3.352215   -1.925576
     61          1           0       33.875396    3.956575   -0.246465
     62          1           0       34.551611    5.042919   -1.453493
     63          1           0       33.840550    0.083308    1.635407
     64          1           0       32.930011   -2.699349    0.900204
     65          1           0       34.146936   -0.109193   -1.247318
     66          1           0       34.346380   -1.742645   -0.696583
     67          1           0       35.347419   -0.287995   -0.114584
     68          1           0       32.454846   -1.932417    3.544586
     69          1           0       34.133440   -1.332271    3.238025
     70          1           0       33.529231   -3.797559    4.014714
     71          1           0       35.075902   -3.167825    3.506486
     72          1           0       34.152605   -3.933906    2.290840
     73          1           0       28.322338   -4.647759    3.736780
     74          1           0       29.059381   -5.433171    2.297820
     75          1           0       27.259403   -5.325207    2.547578
     76          1           0       24.129231   -1.189509    1.812906
     77          1           0       23.560581   -3.564898   -2.821155
     78          1           0       22.711520   -2.075268   -2.293169
     79          1           0       22.311817   -3.718924   -1.687727
     80         12           0      -29.085692    0.297188    0.341226
     81          6           0      -26.238461   -1.730371   -0.110982
     82          6           0      -30.129816   -0.773128   -2.774677
     83          6           0      -31.834192    2.307157    0.586918
     84          6           0      -27.790431    1.510239    3.190801
     85          7           0      -28.279340   -1.139389   -1.263424
     86          6           0      -27.166986   -1.968845   -1.186791
     87          6           0      -27.186596   -2.985506   -2.310527
     88          6           0      -28.241092   -2.400180   -3.318784
     89          6           0      -28.918854   -1.407943   -2.400722
     90          6           0      -27.652496   -1.804641   -4.657494
     91          6           0      -27.624807   -4.384868   -1.853457
     92          6           0      -26.910066   -5.554519   -2.538609
     93          1           0      -27.203979   -5.825476   -4.040364
     94          7           0      -30.788628    0.647874   -0.861549
     95          6           0      -30.950881    0.121295   -2.097220
     96          6           0      -32.128782    0.679210   -2.677891
     97          6           0      -32.784738    1.497811   -1.694708
     98          6           0      -31.787440    1.550306   -0.640328
     99          6           0      -32.561917    0.351712   -4.079934
    100          6           0      -34.094085    2.286104   -1.732439
    101          8           0      -34.577479    2.807961   -0.703583
    102          6           0      -34.852767    2.556064   -3.026885
    103          7           0      -29.752906    1.621659    1.724562
    104          6           0      -30.891326    2.413907    1.610793
    105          6           0      -30.951722    3.348620    2.775047
    106          6           0      -29.709749    3.103737    3.705529
    107          6           0      -29.038670    1.989392    2.886336
    108          6           0      -31.223715    4.837010    2.401921
    109          6           0      -30.034776    2.653424    5.146268
    110          6           0      -30.044864    3.809970    6.164478
    111          7           0      -27.396542    0.039389    1.336848
    112          6           0      -26.967934    0.545303    2.563251
    113          6           0      -25.649236   -0.042027    3.005815
    114          6           0      -25.366528   -0.901290    1.931626
    115          6           0      -26.447025   -0.866318    0.992614
    116          6           0      -24.895500    0.271455    4.285426
    117          6           0      -24.356340   -1.840965    1.469133
    118          8           0      -23.272538   -2.166460    1.955419
    119          6           0      -24.978313   -2.498293    0.164727
    120          6           0      -23.888396   -2.360758   -0.916452
    121          8           0      -23.168820   -1.400232   -1.097509
    122          8           0      -23.741014   -3.590042   -1.556116
    123          6           0      -22.719423   -3.570110   -2.603208
    124          1           0      -30.468320   -1.191997   -3.724434
    125          1           0      -32.673920    2.979689    0.772817
    126          1           0      -27.387023    2.042381    4.054426
    127          1           0      -26.242611   -3.090083   -2.844804
    128          1           0      -28.969613   -3.123078   -3.686002
    129          1           0      -26.582485   -1.951661   -4.807125
    130          1           0      -27.757464   -0.729459   -4.800655
    131          1           0      -28.096942   -2.293440   -5.524484
    132          1           0      -28.695405   -4.530981   -1.995021
    133          1           0      -27.406035   -4.530778   -0.795463
    134          1           0      -27.039885   -6.487708   -1.990692
    135          1           0      -25.827406   -5.444530   -2.480127
    136          1           0      -31.639138    0.509536   -4.638412
    137          1           0      -33.310979    0.993944   -4.542898
    138          1           0      -32.878661   -0.679870   -4.231894
    139          1           0      -34.185412    2.951212   -3.792960
    140          1           0      -35.601178    3.278477   -2.701479
    141          1           0      -35.287588    1.639654   -3.425896
    142          1           0      -31.898713    3.153666    3.279255
    143          1           0      -28.996340    3.927488    3.752901
    144          1           0      -31.252535    4.905239    1.314223
    145          1           0      -30.396166    5.446312    2.764274
    146          1           0      -32.195922    5.045902    2.849578
    147          1           0      -29.367008    1.825729    5.384213
    148          1           0      -31.062555    2.297006    5.218484
    149          1           0      -30.239349    4.751693    5.650843
    150          1           0      -29.107347    4.013193    6.682367
    151          1           0      -30.872629    3.641630    6.854004
    152          1           0      -25.443807   -0.195796    5.103623
    153          1           0      -24.812899    1.328617    4.537009
    154          1           0      -23.912822   -0.184510    4.165894
    155          1           0      -25.257523   -3.548115    0.252249
    156          1           0      -23.084234   -3.295503   -3.593417
    157          1           0      -22.313984   -4.581668   -2.586576
    158          1           0      -21.872144   -2.891212   -2.506821
 ---------------------------------------------------------------------

 SCF Done:  E(RwB97XD) =  -4070.61265461     A.U. after   19 cycles

 Excitation energies and oscillator strengths:

 Excited State   1:      Singlet-A      1.6192 eV  765.71 nm  f=0.4062  <S**2>=0.000
     309 -> 315       -0.17886
     311 -> 313        0.68465
     309 <- 315       -0.11646
 This state for optimization and/or second-order correction.
 Total Energy, E(TD-HF/TD-DFT) =  -4070.55314955
 Copying the excited state density for this state as the 1-particle RhoCI density.

 Excited State   2:      Singlet-A      1.6477 eV  752.48 nm  f=0.3750  <S**2>=0.000
     310 -> 316        0.19179
     312 -> 314        0.68143
     310 <- 316        0.11858

 Excited State   3:      Singlet-A      2.1451 eV  577.98 nm  f=0.1102  <S**2>=0.000
     309 -> 313        0.63986
     311 -> 315        0.28460

 Excited State   4:      Singlet-A      2.1798 eV  568.79 nm  f=0.0972  <S**2>=0.000
     310 -> 314        0.63415
     312 -> 316       -0.30023

 Excited State   5:      Singlet-A      3.2207 eV  384.96 nm  f=0.0034  <S**2>=0.000
     305 -> 313       -0.13598
     307 -> 313       -0.11663
     308 -> 313        0.65571
     308 -> 318        0.10330

 The electronic state is 1-A.
 Alpha  occ. eigenvalues --  -46.97162 -46.93977 -19.30965 -19.30342 -19.25320
 Alpha  occ. eigenvalues --  -19.24848 -19.24254 -19.24119 -19.23946 -19.22308
 Alpha  occ. eigenvalues --  -14.47606 -14.47276 -14.47274 -14.45864 -14.44478
 Alpha  occ. eigenvalues --  -14.44474 -14.44084 -14.43894 -10.43520 -10.42565
 Alpha  occ. eigenvalues --  -10.39846 -10.39080 -10.38824 -10.37405 -10.36303
 Alpha  occ. eigenvalues --  -10.36012 -10.35882 -10.35573 -10.35439 -10.35207
 Alpha  occ. eigenvalues --  -10.35094 -10.35001 -10.34889 -10.34817 -10.34780
 Alpha  occ. eigenvalues --  -10.34301 -10.34267 -10.34242 -10.33863 -10.33640
 Alpha  occ. eigenvalues --  -10.33521 -10.33179 -10.33112 -10.33108 -10.33071
 Alpha  occ. eigenvalues --  -10.33067 -10.32906 -10.32872 -10.32822 -10.32756
 Alpha  occ. eigenvalues --  -10.32684 -10.32577 -10.32573 -10.32497 -10.32492
 Alpha  occ. eigenvalues --  -10.32422 -10.32278 -10.32194 -10.31883 -10.31841
 Alpha  occ. eigenvalues --  -10.31673 -10.31571 -10.31553 -10.31289 -10.31211
 Alpha  occ. eigenvalues --  -10.31150 -10.31008 -10.30972 -10.30904 -10.30753
 Alpha  occ. eigenvalues --  -10.30734 -10.30464 -10.30387 -10.30303 -10.30250
 Alpha  occ. eigenvalues --  -10.30243 -10.30232 -10.30020 -10.29960 -10.29704
 Alpha  occ. eigenvalues --  -10.29563 -10.29532 -10.29512 -10.29357 -10.29163
 Alpha  occ. eigenvalues --  -10.29131  -3.22806  -3.20171  -1.96399  -1.95897
 Alpha  occ. eigenvalues --   -1.95758  -1.93765  -1.93275  -1.93189  -1.20141
 Alpha  occ. eigenvalues --   -1.18443  -1.11725  -1.11431  -1.11261  -1.11220
 Alpha  occ. eigenvalues --   -1.11151  -1.10360  -1.07175  -1.06711  -1.05749
 Alpha  occ. eigenvalues --   -1.05729  -1.05441  -1.05061  -1.04561  -1.03432
 Alpha  occ. eigenvalues --   -0.94635  -0.94525  -0.91289  -0.91281  -0.90956
 Alpha  occ. eigenvalues --   -0.90902  -0.90197  -0.90122  -0.89958  -0.89385
 Alpha  occ. eigenvalues --   -0.88995  -0.88975  -0.88070  -0.87754  -0.86784
 Alpha  occ. eigenvalues --   -0.86598  -0.86311  -0.85421  -0.84633  -0.84401
 Alpha  occ. eigenvalues --   -0.84201  -0.83655  -0.82903  -0.82892  -0.82524
 Alpha  occ. eigenvalues --   -0.82031  -0.80613  -0.80418  -0.79555  -0.79370
 Alpha  occ. eigenvalues --   -0.79183  -0.78804  -0.78413  -0.78073  -0.77364
 Alpha  occ. eigenvalues --   -0.76988  -0.75157  -0.74660  -0.74499  -0.73619
 Alpha  occ. eigenvalues --   -0.71362  -0.71337  -0.71202  -0.70722  -0.70147
 Alpha  occ. eigenvalues --   -0.69929  -0.69313  -0.68849  -0.68294  -0.67708
 Alpha  occ. eigenvalues --   -0.67653  -0.67431  -0.67011  -0.66654  -0.66474
 Alpha  occ. eigenvalues --   -0.66148  -0.65314  -0.64539  -0.62349  -0.62137
 Alpha  occ. eigenvalues --   -0.62093  -0.62029  -0.60990  -0.60925  -0.60873
 Alpha  occ. eigenvalues --   -0.60462  -0.60281  -0.59688  -0.59483  -0.59055
 Alpha  occ. eigenvalues --   -0.58454  -0.58028  -0.58022  -0.57542  -0.57445
 Alpha  occ. eigenvalues --   -0.57081  -0.57069  -0.56522  -0.56512  -0.55741
 Alpha  occ. eigenvalues --   -0.55496  -0.55414  -0.55318  -0.55097  -0.55073
 Alpha  occ. eigenvalues --   -0.54808  -0.54773  -0.54573  -0.54497  -0.54211
 Alpha  occ. eigenvalues --   -0.54104  -0.53764  -0.53683  -0.53674  -0.53438
 Alpha  occ. eigenvalues --   -0.53282  -0.53151  -0.52826  -0.52379  -0.52183
 Alpha  occ. eigenvalues --   -0.51985  -0.51970  -0.51788  -0.51711  -0.51540
 Alpha  occ. eigenvalues --   -0.51254  -0.51240  -0.51031  -0.50999  -0.50835
 Alpha  occ. eigenvalues --   -0.50566  -0.50388  -0.50325  -0.50177  -0.50104
 Alpha  occ. eigenvalues --   -0.49992  -0.49568  -0.49461  -0.49313  -0.49258
 Alpha  occ. eigenvalues --   -0.48942  -0.48761  -0.48712  -0.48625  -0.48579
 Alpha  occ. eigenvalues --   -0.48439  -0.48269  -0.48249  -0.48200  -0.47819
 Alpha  occ. eigenvalues --   -0.47682  -0.47438  -0.47097  -0.47038  -0.46824
 Alpha  occ. eigenvalues --   -0.46800  -0.46637  -0.46574  -0.46447  -0.46299
 Alpha  occ. eigenvalues --   -0.46282  -0.46247  -0.45994  -0.45530  -0.45505
 Alpha  occ. eigenvalues --   -0.45358  -0.45304  -0.45125  -0.44946  -0.44927
 Alpha  occ. eigenvalues --   -0.44816  -0.44621  -0.44551  -0.44340  -0.44287
 Alpha  occ. eigenvalues --   -0.43844  -0.43719  -0.43698  -0.43511  -0.43303
 Alpha  occ. eigenvalues --   -0.43100  -0.42962  -0.42903  -0.42646  -0.42386
 Alpha  occ. eigenvalues --   -0.42149  -0.42063  -0.41587  -0.41540  -0.41129
 Alpha  occ. eigenvalues --   -0.40589  -0.40586  -0.40226  -0.39923  -0.39848
 Alpha  occ. eigenvalues --   -0.39658  -0.39281  -0.39241  -0.38937  -0.38836
 Alpha  occ. eigenvalues --   -0.38705  -0.38334  -0.37138  -0.36942  -0.36905
 Alpha  occ. eigenvalues --   -0.36132  -0.35753  -0.35083  -0.33713  -0.33493
 Alpha  occ. eigenvalues --   -0.33143  -0.32978  -0.32926  -0.32669  -0.32607
 Alpha  occ. eigenvalues --   -0.32193  -0.31911  -0.31330  -0.26427  -0.25861
 Alpha  occ. eigenvalues --   -0.23366  -0.22875
 Alpha virt. eigenvalues --   -0.07756  -0.06904  -0.00341   0.00149   0.02056
 Alpha virt. eigenvalues --    0.02332   0.03861   0.04412   0.04549   0.06792
 Alpha virt. eigenvalues --    0.07126   0.07278   0.07434   0.08005   0.08211

 Mulliken charges:
               1
     1  Mg   0.930627
     2  C   -0.012562
     3  C   -0.078733
     4  C   -0.029808
     5  C   -0.055265
     6  N   -0.359350
     7  C   -0.011260
     8  C   -0.090472
     9  C   -0.100366
    10  C    0.079465
    11  C    0.033006
    12  C    0.011788
    13  C   -0.107000
    14  H    0.041737
    15  N   -0.446563
    16  C    0.131673
    17  C   -0.166240
    18  C   -0.071338
    19  C    0.121599
    20  C    0.092241
    21  C   -0.000463
    22  O   -0.245892
    23  C    0.011319
    24  N   -0.354304
    25  C    0.049222
    26  C   -0.068705
    27  C   -0.054094
    28  C    0.053339
    29  C    0.028795
    30  C   -0.008423
    31  C   -0.059104
    32  N   -0.368103
    33  C    0.038669
    34  C   -0.158697
    35  C   -0.038466
    36  C    0.117752
    37  C    0.062081
    38  C    0.094520
    39  O   -0.225701
    40  C   -0.017557
    41  C    0.221668
    42  O   -0.212652
    43  O   -0.366517
    44  C    0.139999
    45  H    0.006052
    46  H   -0.031098
    47  H   -0.001345
    48  H    0.037989
    49  H    0.035491
    50  H    0.032286
    51  H    0.046109
    52  H    0.040168
    53  H    0.042479
    54  H    0.036096
    55  H    0.065966
    56  H    0.053272
    57  H    0.070785
    58  H    0.039818
    59  H    0.017363
    60  H    0.051116
    61  H    0.064331
    62  H    0.052281
    63  H    0.047988
    64  H    0.037676
    65  H    0.035135
    66  H    0.041422
    67  H    0.037069
    68  H    0.041970
    69  H    0.039582
    70  H    0.042344
    71  H    0.030768
    72  H    0.032993
    73  H    0.064847
    74  H    0.051567
    75  H    0.065771
    76  H    0.062078
    77  H    0.046732
    78  H    0.053348
    79  H    0.057685
    80  Mg   1.001658
    81  C   -0.064822
    82  C   -0.110810
    83  C   -0.083531
    84  C   -0.100662
    85  N   -0.307917
    86  C    0.022598
    87  C   -0.031874
    88  C   -0.097631
    89  C    0.019017
    90  C    0.007935
    91  C    0.023176
    92  C   -0.123400
    93  H    0.016989
    94  N   -0.427942
    95  C    0.224122
    96  C   -0.180466
    97  C   -0.042844
    98  C    0.127603
    99  C    0.061867
   100  C    0.049160
   101  O   -0.257577
   102  C   -0.023678
   103  N   -0.456778
   104  C    0.109058
   105  C   -0.100366
   106  C   -0.055435
   107  C    0.059218
   108  C    0.015941
   109  C    0.000269
   110  C   -0.055619
   111  N   -0.483347
   112  C    0.140211
   113  C   -0.167146
   114  C   -0.071820
   115  C    0.182646
   116  C    0.080923
   117  C    0.161372
   118  O   -0.208524
   119  C   -0.105850
   120  C    0.266225
   121  O   -0.223749
   122  O   -0.369652
   123  C    0.126311
   124  H   -0.009038
   125  H    0.016345
   126  H   -0.010441
   127  H    0.030654
   128  H    0.039912
   129  H    0.034311
   130  H    0.041864
   131  H    0.034271
   132  H    0.040668
   133  H    0.036920
   134  H    0.048537
   135  H    0.050369
   136  H    0.046138
   137  H    0.026857
   138  H    0.058696
   139  H    0.061354
   140  H    0.063729
   141  H    0.063625
   142  H    0.042764
   143  H    0.042940
   144  H    0.043675
   145  H    0.034119
   146  H    0.043573
   147  H    0.037029
   148  H    0.028015
   149  H    0.024566
   150  H    0.041190
   151  H    0.040905
   152  H    0.050543
   153  H    0.047770
   154  H    0.066178
   155  H    0.072897
   156  H    0.043202
   157  H    0.055711
   158  H    0.065293
 Sum of Mulliken charges =  -0.00000

 Dipole moment (field-independent basis, Debye):
    X=              1.2169    Y=             -2.8210    Z=             -4.6494  Tot=              5.5728
 Quadrupole moment (field-independent basis, Debye-Ang):
   XX=           -139.5310   YY=           -524.8880   ZZ=           -473.6347
   XY=            -68.3617   XZ=             65.0209   YZ=             31.3380

 Normal termination of Gaussian 16 at Sat Sep 18 22:59:30 2021.
