 Gaussian 16, Revision A.03,
 Gaussian 16:  ES64L-G16RevA.03 25-Dec-2016

 --------------------------------
 #p wB97XD/Def2SVP td=(nstates=5)
 --------------------------------

 --------------------------------
 TDDFT excited states in gaussian
 --------------------------------
 Symbolic Z-matrix:
 Charge =  0 Multiplicity = 1

                         Standard orientation:
 ---------------------------------------------------------------------
 Center     Atomic      Atomic             Coordinates (Angstroms)
 Number     Number       Type             X           Y           Z
 ---------------------------------------------------------------------
      1         12           0       27.761631    0.123061    0.225618
      2          6           0       24.314844   -0.480690    0.145490
      3          6           0       28.117879   -3.065071   -1.066505
      4          6           0       31.031668    0.726117   -0.066242
      5          6           0       27.132020    3.527710    0.707635
      6          7           0       26.225668   -1.565860   -0.596750
      7          6           0       24.895144   -1.596081   -0.390188
      8          6           0       24.235946   -2.861962   -0.882764
      9          6           0       25.550188   -3.728008   -0.967989
     10          6           0       26.735300   -2.768591   -0.931036
     11          6           0       25.643774   -4.670828    0.261290
     12          6           0       23.398046   -2.602325   -2.141132
     13          6           0       23.923301   -1.641884   -3.228396
     14          1           0       23.869361   -2.162130   -4.659939
     15          7           0       29.338496   -0.992567   -0.447899
     16          6           0       29.274543   -2.310067   -0.816980
     17          6           0       30.621905   -2.890018   -0.743513
     18          6           0       31.543625   -1.776221   -0.606591
     19          6           0       30.628637   -0.622832   -0.347897
     20          6           0       30.933388   -4.380483   -1.152408
     21          6           0       33.070153   -1.828322   -0.706931
     22          8           0       33.641643   -2.880181   -0.782752
     23          6           0       33.869622   -0.558111   -0.663509
     24          7           0       28.880233    1.983054    0.104368
     25          6           0       30.287400    1.989091    0.090624
     26          6           0       30.901860    3.446190    0.226981
     27          6           0       29.588783    4.310132    0.540073
     28          6           0       28.442966    3.198553    0.490841
     29          6           0       32.117321    3.724799    1.245235
     30          6           0       29.295266    5.569553   -0.396245
     31          6           0       28.590626    6.746267    0.443298
     32          7           0       26.084491    1.348445    0.456032
     33          6           0       25.996037    2.697181    0.734746
     34          6           0       24.599562    3.047186    0.964150
     35          6           0       23.854462    1.848346    0.820748
     36          6           0       24.809066    0.841957    0.428253
     37          6           0       24.074621    4.372927    1.449668
     38          6           0       22.514123    1.177822    0.779396
     39          8           0       21.401511    1.647490    0.866614
     40          6           0       22.818569   -0.333328    0.399078
     41          6           0       22.339280   -1.170728    1.552813
     42          8           0       21.131774   -1.441673    1.770342
     43          8           0       23.429454   -1.702574    2.226182
     44          6           0       23.123623   -2.697977    3.198628
     45          1           0       28.238478   -4.102019   -1.387160
     46          1           0       32.080295    1.001787    0.065279
     47          1           0       26.969987    4.550739    1.053853
     48          1           0       23.632753   -3.331594   -0.106008
     49          1           0       25.688353   -4.360634   -1.843753
     50          1           0       26.707073   -4.763379    0.483820
     51          1           0       25.117337   -5.604541    0.068541
     52          1           0       25.288701   -4.318101    1.230101
     53          1           0       22.487947   -2.116777   -1.790253
     54          1           0       23.157845   -3.565611   -2.591275
     55          1           0       24.975671   -1.434396   -3.036159
     56          1           0       23.303965   -0.745503   -3.214327
     57          1           0       30.963293   -4.568615   -2.225978
     58          1           0       30.199161   -5.044029   -0.695429
     59          1           0       31.851227   -4.805905   -0.748225
     60          1           0       34.920667   -0.729183   -0.898465
     61          1           0       33.817136   -0.050517    0.299868
     62          1           0       33.467906   -0.015456   -1.519637
     63          1           0       31.234921    3.592975   -0.799768
     64          1           0       29.599421    4.678767    1.565385
     65          1           0       33.041179    3.567133    0.689922
     66          1           0       32.070634    3.067532    2.113081
     67          1           0       32.033378    4.749306    1.608360
     68          1           0       28.541708    5.332046   -1.147055
     69          1           0       30.200913    5.900690   -0.905032
     70          1           0       27.600906    6.971112    0.045599
     71          1           0       29.199751    7.647722    0.383382
     72          1           0       28.335607    6.571295    1.487934
     73          1           0       24.368496    5.140632    0.734669
     74          1           0       24.519086    4.609890    2.416550
     75          1           0       22.986370    4.393322    1.505578
     76          1           0       22.131539   -0.537830   -0.421759
     77          1           0       24.051879   -3.111811    3.591894
     78          1           0       22.419322   -3.431358    2.805545
     79          1           0       22.683503   -2.269010    4.098800
     80         12           0      -27.302082    0.698278    0.514842
     81          6           0      -25.600187   -2.472236   -0.047598
     82          6           0      -24.685881    2.219716   -1.106975
     83          6           0      -29.366293    3.196977   -0.308533
     84          6           0      -29.733665   -0.959425    2.213596
     85          7           0      -25.442880   -0.110197   -0.641335
     86          6           0      -24.917064   -1.452217   -0.662052
     87          6           0      -23.505540   -1.435529   -1.255431
     88          6           0      -23.094188    0.066206   -1.234798
     89          6           0      -24.462351    0.834952   -0.968239
     90          6           0      -22.022541    0.422928   -0.099011
     91          6           0      -23.290755   -2.183295   -2.538817
     92          6           0      -24.543224   -2.554508   -3.367437
     93          1           0      -24.567610   -3.253202   -4.739183
     94          7           0      -27.020215    2.557998   -0.456433
     95          6           0      -25.862861    2.979519   -1.072900
     96          6           0      -26.072140    4.384966   -1.541553
     97          6           0      -27.443257    4.584375   -1.402103
     98          6           0      -28.052683    3.426245   -0.752556
     99          6           0      -24.952670    5.170660   -2.126904
    100          6           0      -28.201747    5.854158   -1.886888
    101          8           0      -27.569807    6.692835   -2.504428
    102          6           0      -29.677598    6.052485   -1.782201
    103          7           0      -29.321816    0.935042    0.797042
    104          6           0      -29.892835    2.164168    0.469037
    105          6           0      -31.322787    2.263237    1.000363
    106          6           0      -31.377029    1.100817    2.056822
    107          6           0      -30.087693    0.349106    1.718478
    108          6           0      -31.797476    3.611760    1.600235
    109          6           0      -32.657429    0.205872    2.030088
    110          6           0      -33.684239    0.419222    3.234440
    111          7           0      -27.612525   -1.292903    1.085464
    112          6           0      -28.642463   -1.798314    1.865436
    113          6           0      -28.346798   -3.168492    2.205082
    114          6           0      -27.227768   -3.444175    1.407624
    115          6           0      -26.821919   -2.245381    0.770868
    116          6           0      -29.252620   -4.044265    3.087991
    117          6           0      -26.263660   -4.438458    1.048312
    118          8           0      -26.231845   -5.602849    1.495071
    119          6           0      -25.057495   -3.846605    0.192725
    120          6           0      -24.958648   -4.748068   -0.972488
    121          8           0      -25.885701   -5.119161   -1.700066
    122          8           0      -23.638018   -4.986459   -1.163751
    123          6           0      -23.292737   -6.031767   -2.177554
    124          1           0      -23.861655    2.699446   -1.638031
    125          1           0      -30.024804    4.027234   -0.573135
    126          1           0      -30.468832   -1.433544    2.866632
    127          1           0      -23.006364   -1.950760   -0.434748
    128          1           0      -22.804251    0.441656   -2.216321
    129          1           0      -21.132856    0.681656   -0.671768
    130          1           0      -21.902312   -0.431739    0.567148
    131          1           0      -22.413586    1.308970    0.402366
    132          1           0      -22.671078   -3.043139   -2.284967
    133          1           0      -22.656231   -1.479514   -3.078534
    134          1           0      -25.081026   -1.613557   -3.487756
    135          1           0      -25.171833   -3.234574   -2.792230
    136          1           0      -25.188659    5.281735   -3.184836
    137          1           0      -24.028411    4.617026   -1.964345
    138          1           0      -24.856509    6.115928   -1.591597
    139          1           0      -30.328085    5.388146   -2.349804
    140          1           0      -30.003020    7.008629   -2.191014
    141          1           0      -29.800880    6.040335   -0.699353
    142          1           0      -31.828773    2.044689    0.059270
    143          1           0      -31.237168    1.599771    3.016029
    144          1           0      -32.400828    4.205526    0.912821
    145          1           0      -30.932294    4.235351    1.822905
    146          1           0      -32.313918    3.388624    2.534469
    147          1           0      -32.455180   -0.864274    1.977515
    148          1           0      -33.116117    0.436725    1.068543
    149          1           0      -34.641176    0.424154    2.713172
    150          1           0      -33.547709    1.342207    3.798166
    151          1           0      -33.499599   -0.382802    3.948230
    152          1           0      -28.740749   -4.826384    3.649121
    153          1           0      -29.882512   -4.509691    2.330666
    154          1           0      -29.694112   -3.445695    3.884495
    155          1           0      -24.155176   -3.833779    0.805849
    156          1           0      -22.208055   -6.123900   -2.242947
    157          1           0      -23.659840   -5.758296   -3.166953
    158          1           0      -23.773236   -6.915683   -1.760494
 ---------------------------------------------------------------------

 SCF Done:  E(RwB97XD) =  -4070.57378207     A.U. after   20 cycles

 Excitation energies and oscillator strengths:

 Excited State   1:      Singlet-A      1.6106 eV  769.82 nm  f=0.3579  <S**2>=0.000
     309 -> 316       -0.16148
     312 -> 314        0.68857
     309 <- 316       -0.10998
 This state for optimization and/or second-order correction.
 Total Energy, E(TD-HF/TD-DFT) =  -4070.51459541
 Copying the excited state density for this state as the 1-particle RhoCI density.

 Excited State   2:      Singlet-A      1.6941 eV  731.88 nm  f=0.3577  <S**2>=0.000
     310 -> 315       -0.19922
     311 -> 313        0.67862
     310 <- 315       -0.11863

 Excited State   3:      Singlet-A      2.1842 eV  567.65 nm  f=0.1018  <S**2>=0.000
     310 -> 313        0.63333
     311 -> 315        0.30092

 Excited State   4:      Singlet-A      2.2277 eV  556.55 nm  f=0.0763  <S**2>=0.000
     309 -> 314        0.61811
     312 -> 316        0.32525

 Excited State   5:      Singlet-A      3.4914 eV  355.11 nm  f=0.1744  <S**2>=0.000
     306 -> 313        0.53180
     306 -> 317       -0.10509
     310 -> 313        0.15414
     311 -> 315       -0.39177

 The electronic state is 1-A.
 Alpha  occ. eigenvalues --  -46.96746 -46.95631 -19.31252 -19.30538 -19.24992
 Alpha  occ. eigenvalues --  -19.24575 -19.24324 -19.24121 -19.24081 -19.22070
 Alpha  occ. eigenvalues --  -14.47044 -14.46850 -14.46417 -14.46171 -14.45137
 Alpha  occ. eigenvalues --  -14.44343 -14.44046 -14.43245 -10.43855 -10.42937
 Alpha  occ. eigenvalues --  -10.39813 -10.39503 -10.39293 -10.37501 -10.36961
 Alpha  occ. eigenvalues --  -10.36037 -10.35956 -10.35837 -10.35724 -10.35710
 Alpha  occ. eigenvalues --  -10.35188 -10.34987 -10.34965 -10.34942 -10.34927
 Alpha  occ. eigenvalues --  -10.34566 -10.34502 -10.34203 -10.33963 -10.33806
 Alpha  occ. eigenvalues --  -10.33563 -10.33255 -10.33041 -10.33026 -10.32929
 Alpha  occ. eigenvalues --  -10.32779 -10.32596 -10.32535 -10.32509 -10.32488
 Alpha  occ. eigenvalues --  -10.32453 -10.32428 -10.32374 -10.32171 -10.32147
 Alpha  occ. eigenvalues --  -10.32044 -10.31941 -10.31911 -10.31856 -10.31831
 Alpha  occ. eigenvalues --  -10.31822 -10.31738 -10.31658 -10.31647 -10.31632
 Alpha  occ. eigenvalues --  -10.31527 -10.31369 -10.31254 -10.31201 -10.31090
 Alpha  occ. eigenvalues --  -10.30822 -10.30802 -10.30767 -10.30682 -10.30334
 Alpha  occ. eigenvalues --  -10.30285 -10.30212 -10.30199 -10.30158 -10.30122
 Alpha  occ. eigenvalues --  -10.30120 -10.29938 -10.29863 -10.29845 -10.29791
 Alpha  occ. eigenvalues --  -10.27920  -3.22591  -3.21572  -1.96135  -1.95724
 Alpha  occ. eigenvalues --   -1.95543  -1.95129  -1.94716  -1.94520  -1.18635
 Alpha  occ. eigenvalues --   -1.18203  -1.13756  -1.12931  -1.12889  -1.09612
 Alpha  occ. eigenvalues --   -1.09254  -1.08830  -1.06806  -1.06803  -1.06009
 Alpha  occ. eigenvalues --   -1.05967  -1.04957  -1.04903  -1.03911  -1.02327
 Alpha  occ. eigenvalues --   -0.94472  -0.93855  -0.91238  -0.90901  -0.90861
 Alpha  occ. eigenvalues --   -0.90475  -0.90304  -0.89594  -0.89269  -0.88777
 Alpha  occ. eigenvalues --   -0.88622  -0.87985  -0.87975  -0.87675  -0.86767
 Alpha  occ. eigenvalues --   -0.86268  -0.85575  -0.85255  -0.84643  -0.84620
 Alpha  occ. eigenvalues --   -0.84236  -0.83812  -0.82891  -0.82758  -0.82349
 Alpha  occ. eigenvalues --   -0.82090  -0.80002  -0.79636  -0.79501  -0.79227
 Alpha  occ. eigenvalues --   -0.78639  -0.78395  -0.78330  -0.77897  -0.77287
 Alpha  occ. eigenvalues --   -0.77166  -0.74978  -0.74798  -0.74046  -0.73663
 Alpha  occ. eigenvalues --   -0.71866  -0.71539  -0.71341  -0.70942  -0.70229
 Alpha  occ. eigenvalues --   -0.69540  -0.69212  -0.68897  -0.68119  -0.67833
 Alpha  occ. eigenvalues --   -0.67351  -0.66859  -0.66849  -0.66658  -0.66626
 Alpha  occ. eigenvalues --   -0.65699  -0.65491  -0.64086  -0.62086  -0.61643
 Alpha  occ. eigenvalues --   -0.61275  -0.61094  -0.61005  -0.60947  -0.60161
 Alpha  occ. eigenvalues --   -0.59910  -0.59720  -0.59502  -0.59342  -0.59166
 Alpha  occ. eigenvalues --   -0.58739  -0.58272  -0.58135  -0.58027  -0.57483
 Alpha  occ. eigenvalues --   -0.57076  -0.57010  -0.56505  -0.56217  -0.56155
 Alpha  occ. eigenvalues --   -0.55659  -0.55605  -0.55419  -0.55144  -0.55024
 Alpha  occ. eigenvalues --   -0.54767  -0.54724  -0.54496  -0.54222  -0.53855
 Alpha  occ. eigenvalues --   -0.53712  -0.53629  -0.53360  -0.53354  -0.53121
 Alpha  occ. eigenvalues --   -0.53035  -0.52963  -0.52652  -0.52555  -0.52485
 Alpha  occ. eigenvalues --   -0.52016  -0.51912  -0.51874  -0.51686  -0.51524
 Alpha  occ. eigenvalues --   -0.51511  -0.51504  -0.50892  -0.50816  -0.50690
 Alpha  occ. eigenvalues --   -0.50601  -0.50304  -0.50236  -0.50047  -0.49675
 Alpha  occ. eigenvalues --   -0.49539  -0.49513  -0.49276  -0.49181  -0.49096
 Alpha  occ. eigenvalues --   -0.48889  -0.48834  -0.48760  -0.48636  -0.48454
 Alpha  occ. eigenvalues --   -0.48265  -0.48124  -0.48012  -0.47639  -0.47628
 Alpha  occ. eigenvalues --   -0.47458  -0.47391  -0.47254  -0.47120  -0.47092
 Alpha  occ. eigenvalues --   -0.46866  -0.46836  -0.46308  -0.46183  -0.45909
 Alpha  occ. eigenvalues --   -0.45902  -0.45821  -0.45815  -0.45607  -0.45396
 Alpha  occ. eigenvalues --   -0.45379  -0.45287  -0.45238  -0.44937  -0.44846
 Alpha  occ. eigenvalues --   -0.44706  -0.44629  -0.44465  -0.44249  -0.44211
 Alpha  occ. eigenvalues --   -0.44175  -0.44039  -0.43933  -0.43886  -0.43656
 Alpha  occ. eigenvalues --   -0.43640  -0.43132  -0.42936  -0.42757  -0.42268
 Alpha  occ. eigenvalues --   -0.41827  -0.41801  -0.41223  -0.41013  -0.40973
 Alpha  occ. eigenvalues --   -0.40859  -0.40422  -0.40084  -0.39357  -0.39333
 Alpha  occ. eigenvalues --   -0.39235  -0.39214  -0.38797  -0.38539  -0.38262
 Alpha  occ. eigenvalues --   -0.38251  -0.37773  -0.36681  -0.36409  -0.36290
 Alpha  occ. eigenvalues --   -0.35790  -0.35393  -0.34899  -0.33723  -0.33564
 Alpha  occ. eigenvalues --   -0.33232  -0.33145  -0.32934  -0.32821  -0.32299
 Alpha  occ. eigenvalues --   -0.31865  -0.31522  -0.31125  -0.26375  -0.25963
 Alpha  occ. eigenvalues --   -0.23220  -0.22556
 Alpha virt. eigenvalues --   -0.06993  -0.06898  -0.00182   0.00152   0.02177
 Alpha virt. eigenvalues --    0.03169   0.03921   0.04140   0.04495   0.04662
 Alpha virt. eigenvalues --    0.06653   0.07104   0.07796   0.07894   0.08642

 Mulliken charges:
               1
     1  Mg   0.954700
     2  C    0.126545
     3  C   -0.086898
     4  C   -0.102831
     5  C   -0.086828
     6  N   -0.280276
     7  C   -0.106191
     8  C    0.024754
     9  C   -0.115429
    10  C    0.019737
    11  C    0.018055
    12  C    0.021093
    13  C   -0.133093
    14  H    0.032707
    15  N   -0.458807
    16  C    0.175394
    17  C   -0.148305
    18  C   -0.100001
    19  C    0.211778
    20  C    0.047931
    21  C    0.038158
    22  O   -0.200590
    23  C   -0.012841
    24  N   -0.368046
    25  C    0.007527
    26  C   -0.062964
    27  C   -0.084129
    28  C    0.069728
    29  C    0.005017
    30  C   -0.009900
    31  C   -0.094175
    32  N   -0.439528
    33  C    0.138892
    34  C   -0.213523
    35  C   -0.016301
    36  C    0.078896
    37  C    0.071678
    38  C    0.139936
    39  O   -0.173461
    40  C   -0.210827
    41  C    0.295828
    42  O   -0.266942
    43  O   -0.352050
    44  C    0.141312
    45  H    0.007256
    46  H   -0.025059
    47  H   -0.020862
    48  H    0.029512
    49  H    0.028338
    50  H    0.024566
    51  H    0.050174
    52  H    0.027410
    53  H    0.036986
    54  H    0.046195
    55  H    0.070673
    56  H    0.060454
    57  H    0.063279
    58  H    0.025807
    59  H    0.056055
    60  H    0.046997
    61  H    0.080162
    62  H    0.053740
    63  H    0.053711
    64  H    0.040268
    65  H    0.049445
    66  H    0.047508
    67  H    0.050475
    68  H    0.049751
    69  H    0.043986
    70  H    0.038455
    71  H    0.044463
    72  H    0.040077
    73  H    0.037447
    74  H    0.051957
    75  H    0.058873
    76  H    0.085098
    77  H    0.049518
    78  H    0.054962
    79  H    0.046595
    80  Mg   0.954221
    81  C   -0.033028
    82  C   -0.082985
    83  C   -0.079734
    84  C   -0.082915
    85  N   -0.368349
    86  C   -0.053409
    87  C   -0.005099
    88  C   -0.142345
    89  C    0.044527
    90  C    0.037072
    91  C    0.030866
    92  C   -0.102265
    93  H    0.037277
    94  N   -0.470987
    95  C    0.145013
    96  C   -0.159973
    97  C   -0.079468
    98  C    0.169583
    99  C    0.104934
   100  C    0.036090
   101  O   -0.227572
   102  C    0.002066
   103  N   -0.386229
   104  C    0.091641
   105  C   -0.126906
   106  C   -0.015449
   107  C    0.025647
   108  C    0.031687
   109  C   -0.022258
   110  C   -0.061820
   111  N   -0.378299
   112  C    0.092386
   113  C   -0.180453
   114  C   -0.010913
   115  C    0.118928
   116  C    0.073266
   117  C    0.083820
   118  O   -0.250556
   119  C   -0.041174
   120  C    0.265027
   121  O   -0.260784
   122  O   -0.368513
   123  C    0.138608
   124  H    0.004142
   125  H   -0.041811
   126  H   -0.009015
   127  H    0.025763
   128  H    0.040011
   129  H    0.048721
   130  H    0.050495
   131  H    0.040817
   132  H    0.031478
   133  H    0.017662
   134  H    0.047093
   135  H    0.072048
   136  H    0.073523
   137  H    0.022227
   138  H    0.060927
   139  H    0.076661
   140  H    0.048865
   141  H    0.056601
   142  H    0.052196
   143  H    0.031498
   144  H    0.041486
   145  H    0.036524
   146  H    0.042365
   147  H    0.044469
   148  H    0.024531
   149  H    0.051149
   150  H    0.034940
   151  H    0.047431
   152  H    0.051622
   153  H    0.071737
   154  H    0.038728
   155  H    0.074331
   156  H    0.059735
   157  H    0.067163
   158  H    0.072715
 Sum of Mulliken charges =  -0.00000

 Dipole moment (field-independent basis, Debye):
    X=              4.8768    Y=              4.9646    Z=              3.5393  Tot=              7.8075
 Quadrupole moment (field-independent basis, Debye-Ang):
   XX=           -234.7665   YY=           -521.7145   ZZ=           -505.8705
   XY=            -70.0414   XZ=            -21.9096   YZ=             16.0379

 Normal termination of Gaussian 16 at Sun Sep 19 17:44:53 2021.
