 Gaussian 16, Revision A.03,
 Gaussian 16:  ES64L-G16RevA.03 25-Dec-2016

 --------------------------------
 #p wB97XD/Def2SVP td=(nstates=5)
 --------------------------------

 --------------------------------
 TDDFT excited states in gaussian
 --------------------------------
 Symbolic Z-matrix:
 Charge =  0 Multiplicity = 1

                         Standard orientation:
 ---------------------------------------------------------------------
 Center     Atomic      Atomic             Coordinates (Angstroms)
 Number     Number       Type             X           Y           Z
 ---------------------------------------------------------------------
      1         12           0       12.455468   -0.007457    0.473658
      2          6           0        9.191115   -0.158859   -0.705738
      3          6           0       12.961088    2.519571   -1.847581
      4          6           0       15.763694   -0.184383    1.242147
      5          6           0       11.780672   -2.655450    2.592308
      6          7           0       11.223565    1.015864   -1.133964
      7          6           0        9.881670    0.822347   -1.424625
      8          6           0        9.362048    1.684434   -2.641453
      9          6           0       10.731402    2.277927   -3.153619
     10          6           0       11.733145    1.894140   -2.002939
     11          6           0       11.326316    1.846923   -4.497426
     12          6           0        8.304902    2.704431   -2.180283
     13          6           0        6.875324    2.434846   -2.569885
     14          1           0        6.012285    3.657192   -2.929886
     15          7           0       14.117570    1.123506   -0.033263
     16          6           0       14.056569    2.140182   -0.934555
     17          6           0       15.433826    2.661826   -1.031725
     18          6           0       16.277324    1.858894   -0.248144
     19          6           0       15.442857    0.903854    0.371051
     20          6           0       15.722077    3.910954   -1.761093
     21          6           0       17.766734    1.905323   -0.070822
     22          8           0       18.391551    1.186269    0.757535
     23          6           0       18.635772    2.739577   -0.839755
     24          7           0       13.568573   -1.155560    1.761177
     25          6           0       14.913008   -1.034412    1.935428
     26          6           0       15.473671   -1.998151    2.905745
     27          6           0       14.197538   -2.767886    3.402553
     28          6           0       13.158657   -2.208995    2.504675
     29          6           0       16.623822   -2.988493    2.558028
     30          6           0       13.911019   -2.682168    4.982742
     31          6           0       13.145154   -1.498607    5.645140
     32          7           0       10.877274   -1.225600    0.880745
     33          6           0       10.729739   -2.233454    1.789699
     34          6           0        9.388026   -2.616045    1.871202
     35          6           0        8.768482   -1.852853    0.807961
     36          6           0        9.719031   -1.010075    0.267248
     37          6           0        8.746774   -3.594316    2.853656
     38          6           0        7.481734   -1.568528    0.240573
     39          8           0        6.344138   -1.910060    0.492715
     40          6           0        7.769983   -0.593718   -0.954535
     41          6           0        7.607717   -1.308881   -2.235890
     42          8           0        8.513670   -1.586116   -3.052372
     43          8           0        6.343571   -1.705688   -2.499600
     44          6           0        5.997628   -2.227340   -3.865800
     45          1           0       13.130471    3.268759   -2.622958
     46          1           0       16.815841   -0.315949    1.503883
     47          1           0       11.449204   -3.369064    3.350159
     48          1           0        9.110330    1.066921   -3.504305
     49          1           0       10.597645    3.359635   -3.148917
     50          1           0       12.221295    1.245390   -4.336697
     51          1           0       11.730615    2.750727   -4.950869
     52          1           0       10.644736    1.321072   -5.166921
     53          1           0        8.577396    3.636159   -2.677378
     54          1           0        8.430395    2.861445   -1.108976
     55          1           0        6.397545    1.933857   -1.727548
     56          1           0        6.735815    1.732509   -3.391807
     57          1           0       16.101227    4.593884   -1.001955
     58          1           0       14.925202    4.409596   -2.314371
     59          1           0       16.514671    3.733482   -2.487957
     60          1           0       18.290910    2.638716   -1.868496
     61          1           0       19.678622    2.544144   -0.593367
     62          1           0       18.448090    3.794158   -0.637766
     63          1           0       15.830313   -1.295061    3.657889
     64          1           0       14.284853   -3.819742    3.132940
     65          1           0       17.534924   -2.769630    3.114959
     66          1           0       16.899910   -2.917714    1.505405
     67          1           0       16.351369   -4.034732    2.696316
     68          1           0       14.920862   -2.642267    5.391619
     69          1           0       13.462594   -3.660835    5.154359
     70          1           0       12.673003   -0.801651    4.953214
     71          1           0       13.672332   -0.972704    6.441644
     72          1           0       12.361730   -1.994919    6.216367
     73          1           0        8.225706   -4.403615    2.341092
     74          1           0        7.980298   -3.049044    3.404136
     75          1           0        9.425540   -3.986513    3.611450
     76          1           0        6.958957    0.134271   -0.980321
     77          1           0        4.915087   -2.152456   -3.761899
     78          1           0        6.341194   -3.239936   -4.074681
     79          1           0        6.408010   -1.563370   -4.627240
     80         12           0      -12.059981   -0.330849   -0.366300
     81          6           0      -11.486008    2.828037    0.800687
     82          6           0       -8.838070   -0.194349   -1.870721
     83          6           0      -12.417139   -3.581001   -1.199884
     84          6           0      -14.702597   -0.648569    1.881536
     85          7           0      -10.142233    1.090787   -0.187347
     86          6           0      -10.295818    2.402795    0.146967
     87          6           0       -9.002380    3.138555   -0.068958
     88          6           0       -8.113473    2.133139   -0.922496
     89          6           0       -9.057119    0.895561   -1.049468
     90          6           0       -7.329389    2.724999   -2.036245
     91          6           0       -8.250784    3.811745    1.174947
     92          6           0       -8.378375    3.157549    2.518717
     93          1           0       -7.094077    2.937959    3.305896
     94          7           0      -10.909773   -1.599415   -1.585816
     95          6           0       -9.677380   -1.372852   -2.115562
     96          6           0       -9.190850   -2.501847   -2.851961
     97          6           0      -10.305633   -3.485959   -2.762025
     98          6           0      -11.286895   -2.902906   -1.821060
     99          6           0       -7.932846   -2.647545   -3.566226
    100          6           0      -10.451957   -4.828741   -3.463365
    101          8           0       -9.551712   -5.289393   -4.070869
    102          6           0      -11.641308   -5.746365   -3.398325
    103          7           0      -13.268053   -1.892254    0.341143
    104          6           0      -13.329555   -3.067284   -0.303739
    105          6           0      -14.325168   -4.087567    0.460962
    106          6           0      -15.278459   -3.002284    1.162997
    107          6           0      -14.342213   -1.817381    1.168521
    108          6           0      -15.079643   -5.077571   -0.430860
    109          6           0      -15.845572   -3.487714    2.509242
    110          6           0      -17.338036   -3.343408    2.829497
    111          7           0      -12.869332    0.802846    1.143003
    112          6           0      -13.969113    0.594759    1.966081
    113          6           0      -14.297581    1.755996    2.697670
    114          6           0      -13.397446    2.713378    2.259793
    115          6           0      -12.525963    2.091285    1.297073
    116          6           0      -15.423923    1.943884    3.666451
    117          6           0      -12.960393    4.046833    2.287459
    118          8           0      -13.412309    4.962952    2.971401
    119          6           0      -11.622374    4.158246    1.502507
    120          6           0      -11.863217    5.342114    0.577434
    121          8           0      -11.097048    6.324240    0.481582
    122          8           0      -12.961387    5.045230   -0.194880
    123          6           0      -13.339652    5.862469   -1.373656
    124          1           0       -7.798083   -0.135886   -2.198350
    125          1           0      -12.412864   -4.667533   -1.307797
    126          1           0      -15.575991   -0.734862    2.530745
    127          1           0       -9.212537    4.039097   -0.647146
    128          1           0       -7.361130    1.746056   -0.235900
    129          1           0       -7.433798    2.183237   -2.976220
    130          1           0       -6.290147    2.903412   -1.760074
    131          1           0       -7.732467    3.709177   -2.275224
    132          1           0       -8.564323    4.833172    1.390858
    133          1           0       -7.173172    3.760179    1.016292
    134          1           0       -9.033246    2.287172    2.542777
    135          1           0       -8.847887    3.887338    3.179137
    136          1           0       -7.625550   -1.669600   -3.935440
    137          1           0       -7.973852   -3.343781   -4.403039
    138          1           0       -7.203458   -3.011301   -2.841605
    139          1           0      -12.374216   -4.945065   -3.301191
    140          1           0      -11.638659   -6.383390   -2.514403
    141          1           0      -11.825653   -6.385351   -4.262086
    142          1           0      -13.721603   -4.560349    1.236338
    143          1           0      -16.142805   -2.632124    0.612198
    144          1           0      -16.111685   -4.729986   -0.484908
    145          1           0      -14.880580   -6.101028   -0.114375
    146          1           0      -14.722053   -5.085598   -1.460074
    147          1           0      -15.290273   -2.961562    3.286172
    148          1           0      -15.529206   -4.521445    2.649380
    149          1           0      -17.877479   -4.212105    3.207251
    150          1           0      -17.904415   -2.881816    2.019581
    151          1           0      -17.332629   -2.517162    3.539687
    152          1           0      -15.861260    2.942588    3.669381
    153          1           0      -15.056130    1.722073    4.668532
    154          1           0      -16.280923    1.301125    3.460970
    155          1           0      -10.898571    4.357453    2.291839
    156          1           0      -13.701152    5.257006   -2.204637
    157          1           0      -12.459742    6.420379   -1.694370
    158          1           0      -14.103270    6.635087   -1.293113
 ---------------------------------------------------------------------

 SCF Done:  E(RwB97XD) =  -4070.56310328     A.U. after   19 cycles

 Excitation energies and oscillator strengths:

 Excited State   1:      Singlet-A      1.5765 eV  786.45 nm  f=0.3930  <S**2>=0.000
     309 -> 315       -0.17477
     311 -> 313        0.68608
     309 <- 315       -0.11849
 This state for optimization and/or second-order correction.
 Total Energy, E(TD-HF/TD-DFT) =  -4070.50516783
 Copying the excited state density for this state as the 1-particle RhoCI density.

 Excited State   2:      Singlet-A      1.6445 eV  753.91 nm  f=0.3849  <S**2>=0.000
     310 -> 316        0.18294
     312 -> 314        0.68212
     310 <- 316        0.11711

 Excited State   3:      Singlet-A      2.0920 eV  592.67 nm  f=0.1439  <S**2>=0.000
     309 -> 313        0.64983
     311 -> 315        0.25876

 Excited State   4:      Singlet-A      2.1516 eV  576.25 nm  f=0.1382  <S**2>=0.000
     310 -> 314        0.64856
     312 -> 316       -0.26451

 Excited State   5:      Singlet-A      3.0071 eV  412.31 nm  f=0.0074  <S**2>=0.000
     306 -> 313       -0.21827
     308 -> 313        0.63573
     308 -> 317        0.12393

 The electronic state is 1-A.
 Alpha  occ. eigenvalues --  -46.96249 -46.93852 -19.31441 -19.29232 -19.25288
 Alpha  occ. eigenvalues --  -19.23562 -19.23244 -19.23165 -19.22974 -19.22132
 Alpha  occ. eigenvalues --  -14.47126 -14.46596 -14.46583 -14.46422 -14.44559
 Alpha  occ. eigenvalues --  -14.44236 -14.44126 -14.42925 -10.44356 -10.42328
 Alpha  occ. eigenvalues --  -10.38444 -10.38306 -10.38157 -10.37416 -10.36539
 Alpha  occ. eigenvalues --  -10.36090 -10.35716 -10.35609 -10.34977 -10.34958
 Alpha  occ. eigenvalues --  -10.34875 -10.34806 -10.34769 -10.34647 -10.34643
 Alpha  occ. eigenvalues --  -10.34461 -10.34105 -10.34100 -10.34056 -10.33393
 Alpha  occ. eigenvalues --  -10.32992 -10.32910 -10.32861 -10.32529 -10.32511
 Alpha  occ. eigenvalues --  -10.32484 -10.32448 -10.32318 -10.32313 -10.32245
 Alpha  occ. eigenvalues --  -10.32197 -10.31931 -10.31859 -10.31845 -10.31837
 Alpha  occ. eigenvalues --  -10.31823 -10.31683 -10.31541 -10.31503 -10.31393
 Alpha  occ. eigenvalues --  -10.31327 -10.31301 -10.31228 -10.31096 -10.31062
 Alpha  occ. eigenvalues --  -10.30815 -10.30791 -10.30771 -10.30749 -10.30711
 Alpha  occ. eigenvalues --  -10.30700 -10.30664 -10.30625 -10.30165 -10.30163
 Alpha  occ. eigenvalues --  -10.30029 -10.29930 -10.29850 -10.29826 -10.29756
 Alpha  occ. eigenvalues --  -10.29571 -10.29506 -10.29491 -10.28956 -10.28875
 Alpha  occ. eigenvalues --  -10.28628  -3.22184  -3.19980  -1.95725  -1.95341
 Alpha  occ. eigenvalues --   -1.95122  -1.93585  -1.93113  -1.92959  -1.17852
 Alpha  occ. eigenvalues --   -1.17256  -1.13527  -1.11732  -1.11609  -1.10123
 Alpha  occ. eigenvalues --   -1.09451  -1.07227  -1.07161  -1.06854  -1.06381
 Alpha  occ. eigenvalues --   -1.06089  -1.05224  -1.04881  -1.04255  -1.04110
 Alpha  occ. eigenvalues --   -0.95696  -0.95042  -0.91674  -0.90862  -0.90572
 Alpha  occ. eigenvalues --   -0.90306  -0.90261  -0.90176  -0.89864  -0.89510
 Alpha  occ. eigenvalues --   -0.89134  -0.88904  -0.88018  -0.87735  -0.86403
 Alpha  occ. eigenvalues --   -0.86254  -0.85869  -0.85535  -0.84956  -0.84707
 Alpha  occ. eigenvalues --   -0.84316  -0.84051  -0.82898  -0.82895  -0.82505
 Alpha  occ. eigenvalues --   -0.82467  -0.80495  -0.80423  -0.79704  -0.79394
 Alpha  occ. eigenvalues --   -0.78861  -0.78750  -0.78610  -0.78102  -0.77384
 Alpha  occ. eigenvalues --   -0.77205  -0.75541  -0.75061  -0.73696  -0.73288
 Alpha  occ. eigenvalues --   -0.71995  -0.71930  -0.71334  -0.70699  -0.70294
 Alpha  occ. eigenvalues --   -0.69941  -0.69078  -0.68516  -0.68160  -0.67465
 Alpha  occ. eigenvalues --   -0.67107  -0.66993  -0.66645  -0.66595  -0.66340
 Alpha  occ. eigenvalues --   -0.66327  -0.65558  -0.63444  -0.62238  -0.61930
 Alpha  occ. eigenvalues --   -0.61580  -0.61409  -0.61115  -0.60809  -0.60561
 Alpha  occ. eigenvalues --   -0.60005  -0.59695  -0.59534  -0.59263  -0.59161
 Alpha  occ. eigenvalues --   -0.58454  -0.58124  -0.57757  -0.57528  -0.57212
 Alpha  occ. eigenvalues --   -0.57012  -0.56846  -0.56356  -0.56316  -0.55917
 Alpha  occ. eigenvalues --   -0.55745  -0.55237  -0.55159  -0.55050  -0.54814
 Alpha  occ. eigenvalues --   -0.54426  -0.54377  -0.54349  -0.54004  -0.53933
 Alpha  occ. eigenvalues --   -0.53782  -0.53705  -0.53680  -0.53279  -0.52997
 Alpha  occ. eigenvalues --   -0.52979  -0.52765  -0.52600  -0.52500  -0.52266
 Alpha  occ. eigenvalues --   -0.52063  -0.51864  -0.51690  -0.51580  -0.51542
 Alpha  occ. eigenvalues --   -0.51402  -0.51339  -0.51078  -0.50894  -0.50882
 Alpha  occ. eigenvalues --   -0.50688  -0.50328  -0.50091  -0.50065  -0.49807
 Alpha  occ. eigenvalues --   -0.49771  -0.49678  -0.49431  -0.49239  -0.49146
 Alpha  occ. eigenvalues --   -0.49101  -0.48990  -0.48764  -0.48666  -0.48431
 Alpha  occ. eigenvalues --   -0.48325  -0.48136  -0.48015  -0.47894  -0.47582
 Alpha  occ. eigenvalues --   -0.47532  -0.47422  -0.47278  -0.47216  -0.47155
 Alpha  occ. eigenvalues --   -0.47059  -0.46909  -0.46768  -0.46674  -0.46147
 Alpha  occ. eigenvalues --   -0.46074  -0.45893  -0.45871  -0.45792  -0.45671
 Alpha  occ. eigenvalues --   -0.45324  -0.45252  -0.44934  -0.44810  -0.44662
 Alpha  occ. eigenvalues --   -0.44614  -0.44507  -0.44368  -0.44322  -0.44001
 Alpha  occ. eigenvalues --   -0.43889  -0.43597  -0.43491  -0.43382  -0.43369
 Alpha  occ. eigenvalues --   -0.43156  -0.43007  -0.42663  -0.42407  -0.42211
 Alpha  occ. eigenvalues --   -0.42119  -0.41983  -0.41565  -0.40890  -0.40802
 Alpha  occ. eigenvalues --   -0.40574  -0.40108  -0.39897  -0.39786  -0.39391
 Alpha  occ. eigenvalues --   -0.38935  -0.38821  -0.38513  -0.38363  -0.38087
 Alpha  occ. eigenvalues --   -0.37577  -0.37483  -0.36757  -0.36278  -0.35805
 Alpha  occ. eigenvalues --   -0.35422  -0.35268  -0.34727  -0.33750  -0.33187
 Alpha  occ. eigenvalues --   -0.33017  -0.32534  -0.32522  -0.32131  -0.31899
 Alpha  occ. eigenvalues --   -0.31478  -0.31459  -0.30346  -0.26334  -0.25526
 Alpha  occ. eigenvalues --   -0.23469  -0.22889
 Alpha virt. eigenvalues --   -0.07988  -0.07018   0.00029   0.00637   0.02386
 Alpha virt. eigenvalues --    0.02778   0.04121   0.04487   0.04883   0.06659
 Alpha virt. eigenvalues --    0.06694   0.07416   0.07513   0.08109   0.08445

 Mulliken charges:
               1
     1  Mg   0.984085
     2  C   -0.026214
     3  C   -0.064948
     4  C   -0.072352
     5  C   -0.099212
     6  N   -0.335690
     7  C   -0.019334
     8  C   -0.045905
     9  C   -0.130673
    10  C    0.025577
    11  C    0.037436
    12  C    0.055323
    13  C   -0.144056
    14  H    0.038202
    15  N   -0.481587
    16  C    0.183296
    17  C   -0.191565
    18  C   -0.022557
    19  C    0.131568
    20  C    0.056738
    21  C    0.038496
    22  O   -0.281162
    23  C    0.024561
    24  N   -0.375217
    25  C    0.076441
    26  C   -0.094218
    27  C   -0.055058
    28  C    0.063576
    29  C    0.027625
    30  C   -0.032317
    31  C   -0.043682
    32  N   -0.452904
    33  C    0.130654
    34  C   -0.169446
    35  C   -0.056375
    36  C    0.215835
    37  C    0.092258
    38  C    0.091630
    39  O   -0.190030
    40  C   -0.123929
    41  C    0.263172
    42  O   -0.290754
    43  O   -0.356985
    44  C    0.146682
    45  H   -0.009061
    46  H    0.021561
    47  H   -0.013502
    48  H    0.038369
    49  H    0.026747
    50  H    0.047616
    51  H    0.032100
    52  H    0.052288
    53  H    0.035787
    54  H    0.047046
    55  H    0.065103
    56  H    0.052671
    57  H    0.057299
    58  H    0.043297
    59  H    0.035681
    60  H    0.042642
    61  H    0.066601
    62  H    0.043724
    63  H    0.047288
    64  H    0.036194
    65  H    0.044638
    66  H    0.039202
    67  H    0.036230
    68  H    0.035224
    69  H    0.040168
    70  H    0.056358
    71  H    0.040410
    72  H    0.028997
    73  H    0.060794
    74  H    0.053809
    75  H    0.024484
    76  H    0.056443
    77  H    0.066040
    78  H    0.067164
    79  H    0.053603
    80  Mg   0.958568
    81  C    0.008196
    82  C   -0.083450
    83  C   -0.083908
    84  C   -0.096755
    85  N   -0.330667
    86  C   -0.005501
    87  C   -0.018774
    88  C   -0.091907
    89  C    0.035795
    90  C    0.041627
    91  C   -0.011048
    92  C   -0.168782
    93  H    0.030583
    94  N   -0.448442
    95  C    0.171644
    96  C   -0.181569
    97  C   -0.096644
    98  C    0.137228
    99  C    0.086289
   100  C    0.013483
   101  O   -0.209709
   102  C   -0.015019
   103  N   -0.361592
   104  C    0.084132
   105  C   -0.139042
   106  C   -0.084256
   107  C    0.074827
   108  C    0.050081
   109  C   -0.015350
   110  C   -0.044722
   111  N   -0.442117
   112  C    0.139364
   113  C   -0.188185
   114  C    0.058599
   115  C    0.109888
   116  C    0.078575
   117  C    0.062327
   118  O   -0.216632
   119  C   -0.121215
   120  C    0.312911
   121  O   -0.256729
   122  O   -0.379214
   123  C    0.145093
   124  H    0.008794
   125  H    0.003801
   126  H   -0.014307
   127  H    0.041952
   128  H    0.050217
   129  H    0.035327
   130  H    0.041779
   131  H    0.026690
   132  H    0.059074
   133  H    0.045380
   134  H    0.064470
   135  H    0.055654
   136  H    0.031577
   137  H    0.063104
   138  H    0.054314
   139  H    0.032296
   140  H    0.070992
   141  H    0.057895
   142  H    0.056194
   143  H    0.040502
   144  H    0.038797
   145  H    0.039574
   146  H    0.032293
   147  H    0.030325
   148  H    0.027706
   149  H    0.056336
   150  H    0.025737
   151  H    0.030863
   152  H    0.060827
   153  H    0.060857
   154  H    0.031801
   155  H    0.065657
   156  H    0.053509
   157  H    0.053856
   158  H    0.058177
 Sum of Mulliken charges =  -0.00000

 Dipole moment (field-independent basis, Debye):
    X=             -2.0258    Y=              0.1861    Z=             -1.9756  Tot=              2.8357
 Quadrupole moment (field-independent basis, Debye-Ang):
   XX=           -395.9020   YY=           -520.9578   ZZ=           -494.8051
   XY=             70.7171   XZ=             10.8396   YZ=            -56.6673

 Normal termination of Gaussian 16 at Sat Sep 18 18:59:49 2021.
