 Gaussian 16, Revision A.03,
 Gaussian 16:  ES64L-G16RevA.03 25-Dec-2016

 --------------------------------
 #p wB97XD/Def2SVP td=(nstates=5)
 --------------------------------

 --------------------------------
 TDDFT excited states in gaussian
 --------------------------------
 Symbolic Z-matrix:
 Charge =  0 Multiplicity = 1

                         Standard orientation:
 ---------------------------------------------------------------------
 Center     Atomic      Atomic             Coordinates (Angstroms)
 Number     Number       Type             X           Y           Z
 ---------------------------------------------------------------------
      1         12           0       -4.470904   -0.426196    1.318275
      2          6           0       -5.510966    2.341113   -0.624578
      3          6           0       -2.302458    1.575718    2.754717
      4          6           0       -2.917905   -3.189515    2.258642
      5          6           0       -6.411936   -2.402737   -0.907497
      6          7           0       -4.148361    1.808699    1.137487
      7          6           0       -4.687752    2.715496    0.407371
      8          6           0       -4.279582    4.123434    0.887580
      9          6           0       -2.884835    3.854443    1.651684
     10          6           0       -3.055055    2.286823    1.815297
     11          6           0       -1.566534    4.256875    0.879468
     12          6           0       -5.363845    4.708654    1.934851
     13          6           0       -5.652765    6.243287    2.002338
     14          1           0       -4.462992    7.192405    1.604253
     15          7           0       -2.952141   -0.769594    2.538262
     16          6           0       -2.196740    0.252344    3.093384
     17          6           0       -1.147718   -0.364902    3.979280
     18          6           0       -1.371042   -1.798952    3.847014
     19          6           0       -2.427627   -2.055376    2.864507
     20          6           0       -0.136088    0.492667    4.715892
     21          6           0       -0.649354   -2.903865    4.586663
     22          8           0       -0.844790   -4.114283    4.409195
     23          6           0        0.334437   -2.537031    5.622553
     24          7           0       -4.721527   -2.587825    0.811624
     25          6           0       -3.894408   -3.476047    1.332512
     26          6           0       -4.450616   -4.948982    1.088486
     27          6           0       -5.610849   -4.634227   -0.003244
     28          6           0       -5.609885   -3.107914   -0.009298
     29          6           0       -3.356342   -5.973759    0.641288
     30          6           0       -7.041749   -5.208480    0.259066
     31          6           0       -7.522801   -6.296397   -0.666385
     32          7           0       -5.905115   -0.136766   -0.303702
     33          6           0       -6.579178   -1.065228   -1.071808
     34          6           0       -7.272463   -0.420593   -2.107653
     35          6           0       -6.844672    0.915490   -1.990743
     36          6           0       -5.995038    1.071399   -0.921200
     37          6           0       -8.137181   -1.005339   -3.107420
     38          6           0       -7.079548    2.183097   -2.565354
     39          8           0       -7.843820    2.645686   -3.455343
     40          6           0       -6.000555    3.125052   -1.864269
     41          6           0       -6.598008    4.447214   -1.549179
     42          8           0       -7.526148    4.692908   -0.781510
     43          8           0       -5.813116    5.434304   -2.224594
     44          6           0       -6.222359    6.836017   -2.069344
     45          1           0       -1.698012    2.303652    3.300669
     46          1           0       -2.433433   -4.095401    2.627182
     47          1           0       -7.066552   -3.011254   -1.535963
     48          1           0       -3.968914    4.682232    0.005165
     49          1           0       -2.853463    4.491512    2.534907
     50          1           0       -1.758260    4.464761   -0.172987
     51          1           0       -0.841629    3.443097    0.871023
     52          1           0       -1.192717    5.149943    1.380136
     53          1           0       -5.149167    4.366946    2.947518
     54          1           0       -6.313580    4.207114    1.747888
     55          1           0       -5.969289    6.587351    2.987511
     56          1           0       -6.344990    6.463943    1.188839
     57          1           0       -0.006432    0.177145    5.751763
     58          1           0       -0.387233    1.553345    4.709895
     59          1           0        0.789263    0.529730    4.141572
     60          1           0        1.129491   -1.916597    5.208008
     61          1           0        0.763646   -3.438544    6.059867
     62          1           0       -0.065290   -2.002887    6.484536
     63          1           0       -4.965508   -5.353378    1.959875
     64          1           0       -5.282504   -4.842113   -1.022679
     65          1           0       -2.405914   -5.466052    0.475927
     66          1           0       -3.853734   -6.439310   -0.209813
     67          1           0       -3.328602   -6.753047    1.401792
     68          1           0       -7.744478   -4.380735    0.161095
     69          1           0       -7.108038   -5.558320    1.289464
     70          1           0       -6.631518   -6.546226   -1.240445
     71          1           0       -8.250396   -5.853772   -1.347659
     72          1           0       -7.856209   -7.193026   -0.145363
     73          1           0       -8.868726   -1.610494   -2.572612
     74          1           0       -7.695776   -1.790788   -3.720949
     75          1           0       -8.646194   -0.214805   -3.659151
     76          1           0       -5.162238    3.247647   -2.550794
     77          1           0       -5.611678    7.487866   -2.694600
     78          1           0       -5.955422    7.163576   -1.064408
     79          1           0       -7.256956    6.944300   -2.393182
     80         12           0        4.268365   -0.762256   -1.149178
     81          6           0        6.503798    1.797470   -0.320749
     82          6           0        1.762093    1.352326   -1.019227
     83          6           0        2.083621   -3.413164   -1.207317
     84          6           0        6.880183   -3.109719   -0.784012
     85          7           0        4.213399    1.318386   -0.818665
     86          6           0        5.215461    2.227167   -0.558451
     87          6           0        4.704879    3.661419   -0.607821
     88          6           0        3.157908    3.442305   -0.607202
     89          6           0        3.029744    1.994808   -0.932322
     90          6           0        2.335293    3.911309    0.573415
     91          6           0        5.274389    4.521781   -1.780714
     92          6           0        4.786655    5.974103   -1.821279
     93          1           0        5.869338    7.039734   -1.909168
     94          7           0        2.099603   -1.004116   -1.052267
     95          6           0        1.249892    0.039620   -1.148845
     96          6           0       -0.091884   -0.454598   -1.287932
     97          6           0       -0.021085   -1.857312   -1.234051
     98          6           0        1.437114   -2.141483   -1.145958
     99          6           0       -1.312139    0.435405   -1.394895
    100          6           0       -1.107590   -2.875078   -1.354968
    101          8           0       -0.993277   -4.113977   -1.155168
    102          6           0       -2.503576   -2.454444   -1.797986
    103          7           0        4.458726   -2.905211   -0.987749
    104          6           0        3.404332   -3.753544   -0.972516
    105          6           0        3.936592   -5.283375   -1.070701
    106          6           0        5.456107   -5.077313   -1.403268
    107          6           0        5.638213   -3.620505   -1.120921
    108          6           0        3.639629   -6.020205    0.293566
    109          6           0        5.724558   -5.279403   -2.939369
    110          6           0        4.878266   -4.520596   -3.949695
    111          7           0        6.363649   -0.711999   -0.699949
    112          6           0        7.240679   -1.757298   -0.603814
    113          6           0        8.484771   -1.217768   -0.303117
    114          6           0        8.323179    0.188415   -0.141709
    115          6           0        7.002355    0.450699   -0.394377
    116          6           0        9.772896   -1.918335   -0.049598
    117          6           0        8.953188    1.486561    0.189789
    118          8           0       10.080464    1.811836    0.544464
    119          6           0        7.789706    2.603413   -0.018716
    120          6           0        7.770932    3.556891    1.122470
    121          8           0        8.008849    3.247622    2.327745
    122          8           0        7.635030    4.771655    0.608008
    123          6           0        8.052924    5.839955    1.495574
    124          1           0        0.906419    2.025904   -1.101756
    125          1           0        1.404426   -4.267298   -1.261499
    126          1           0        7.683569   -3.847656   -0.807383
    127          1           0        5.127276    4.121484    0.285702
    128          1           0        2.658948    3.932768   -1.443723
    129          1           0        2.787166    4.662905    1.220698
    130          1           0        2.035381    3.045496    1.164383
    131          1           0        1.350285    4.174425    0.187379
    132          1           0        5.064199    4.030017   -2.730845
    133          1           0        6.361848    4.533801   -1.714964
    134          1           0        4.456846    6.309180   -0.838052
    135          1           0        4.011163    6.111041   -2.575488
    136          1           0       -1.121136    1.496265   -1.233478
    137          1           0       -2.063559    0.305976   -0.616357
    138          1           0       -1.829675    0.349526   -2.350840
    139          1           0       -2.942822   -1.861523   -0.996214
    140          1           0       -3.203569   -3.289613   -1.788515
    141          1           0       -2.521782   -1.996225   -2.787487
    142          1           0        3.379807   -5.814456   -1.842756
    143          1           0        5.986441   -5.699326   -0.682224
    144          1           0        2.942391   -5.482119    0.936009
    145          1           0        4.520195   -6.177262    0.916705
    146          1           0        3.150469   -6.985344    0.170002
    147          1           0        5.550451   -6.353771   -2.999588
    148          1           0        6.753744   -5.100568   -3.249181
    149          1           0        4.021781   -4.063622   -3.453540
    150          1           0        4.583319   -5.068025   -4.844260
    151          1           0        5.586700   -3.791421   -4.342873
    152          1           0       10.080796   -2.595127   -0.847019
    153          1           0        9.590188   -2.529324    0.833903
    154          1           0       10.585936   -1.230132    0.179292
    155          1           0        8.114069    3.146967   -0.905719
    156          1           0        8.631653    6.580308    0.941845
    157          1           0        8.696467    5.553502    2.327036
    158          1           0        7.134038    6.302411    1.857442
 ---------------------------------------------------------------------

 SCF Done:  E(RwB97XD) =  -4070.60820341     A.U. after   20 cycles

 Excitation energies and oscillator strengths:

 Excited State   1:      Singlet-A      1.6573 eV  748.10 nm  f=0.4942  <S**2>=0.000
     310 -> 316       -0.16761
     311 -> 313        0.27215
     312 -> 313        0.62753
     310 <- 316       -0.11036
 This state for optimization and/or second-order correction.
 Total Energy, E(TD-HF/TD-DFT) =  -4070.54729828
 Copying the excited state density for this state as the 1-particle RhoCI density.

 Excited State   2:      Singlet-A      1.7387 eV  713.10 nm  f=0.2885  <S**2>=0.000
     309 -> 315       -0.21425
     311 -> 314        0.60818
     312 -> 314       -0.28356
     309 <- 315       -0.11858

 Excited State   3:      Singlet-A      2.0880 eV  593.79 nm  f=0.1128  <S**2>=0.000
     310 -> 313        0.65632
     312 -> 316        0.20782

 Excited State   4:      Singlet-A      2.1783 eV  569.17 nm  f=0.0876  <S**2>=0.000
     309 -> 314        0.62188
     311 -> 315        0.28098
     312 -> 315       -0.12916

 Excited State   5:      Singlet-A      2.5482 eV  486.56 nm  f=0.0004  <S**2>=0.000
     311 -> 313        0.63969
     312 -> 313       -0.27995

 The electronic state is 1-A.
 Alpha  occ. eigenvalues --  -46.96150 -46.95900 -19.32076 -19.29606 -19.25553
 Alpha  occ. eigenvalues --  -19.24550 -19.24252 -19.24088 -19.23888 -19.23632
 Alpha  occ. eigenvalues --  -14.47708 -14.47219 -14.46625 -14.46588 -14.45012
 Alpha  occ. eigenvalues --  -14.44540 -14.43621 -14.42764 -10.43573 -10.43295
 Alpha  occ. eigenvalues --  -10.40074 -10.39142 -10.39004 -10.38900 -10.36421
 Alpha  occ. eigenvalues --  -10.36096 -10.35963 -10.35367 -10.35319 -10.35232
 Alpha  occ. eigenvalues --  -10.35220 -10.35201 -10.35134 -10.35040 -10.34929
 Alpha  occ. eigenvalues --  -10.34875 -10.34738 -10.34522 -10.34203 -10.34155
 Alpha  occ. eigenvalues --  -10.33716 -10.33415 -10.33373 -10.33301 -10.32886
 Alpha  occ. eigenvalues --  -10.32834 -10.32774 -10.32770 -10.32634 -10.32539
 Alpha  occ. eigenvalues --  -10.32500 -10.32471 -10.32328 -10.32299 -10.32107
 Alpha  occ. eigenvalues --  -10.32091 -10.32083 -10.32079 -10.31998 -10.31994
 Alpha  occ. eigenvalues --  -10.31902 -10.31899 -10.31888 -10.31865 -10.31638
 Alpha  occ. eigenvalues --  -10.31445 -10.31224 -10.31183 -10.30796 -10.30741
 Alpha  occ. eigenvalues --  -10.30662 -10.30604 -10.30512 -10.30380 -10.30291
 Alpha  occ. eigenvalues --  -10.30177 -10.30089 -10.30062 -10.29643 -10.29534
 Alpha  occ. eigenvalues --  -10.29340 -10.29194 -10.29021 -10.28850 -10.28606
 Alpha  occ. eigenvalues --  -10.28429  -3.22094  -3.21746  -1.95694  -1.95341
 Alpha  occ. eigenvalues --   -1.95223  -1.95036  -1.94837  -1.94725  -1.20510
 Alpha  occ. eigenvalues --   -1.16523  -1.11672  -1.11165  -1.10942  -1.09881
 Alpha  occ. eigenvalues --   -1.09340  -1.08328  -1.08286  -1.07679  -1.07517
 Alpha  occ. eigenvalues --   -1.06587  -1.05940  -1.05484  -1.04625  -1.03885
 Alpha  occ. eigenvalues --   -0.95360  -0.93976  -0.91738  -0.91695  -0.91335
 Alpha  occ. eigenvalues --   -0.90817  -0.90471  -0.90158  -0.90136  -0.89747
 Alpha  occ. eigenvalues --   -0.89615  -0.89204  -0.89057  -0.87754  -0.86915
 Alpha  occ. eigenvalues --   -0.86590  -0.85871  -0.85847  -0.84891  -0.84744
 Alpha  occ. eigenvalues --   -0.84307  -0.83947  -0.83712  -0.83460  -0.82991
 Alpha  occ. eigenvalues --   -0.82760  -0.81184  -0.80973  -0.79798  -0.79637
 Alpha  occ. eigenvalues --   -0.79518  -0.79281  -0.78324  -0.78238  -0.77321
 Alpha  occ. eigenvalues --   -0.77183  -0.75551  -0.74884  -0.74567  -0.73911
 Alpha  occ. eigenvalues --   -0.72044  -0.71249  -0.71205  -0.70549  -0.70454
 Alpha  occ. eigenvalues --   -0.70266  -0.69850  -0.69479  -0.68259  -0.68048
 Alpha  occ. eigenvalues --   -0.67705  -0.67669  -0.67386  -0.66857  -0.66846
 Alpha  occ. eigenvalues --   -0.66638  -0.64881  -0.63644  -0.63206  -0.62797
 Alpha  occ. eigenvalues --   -0.62432  -0.61977  -0.61684  -0.61378  -0.60768
 Alpha  occ. eigenvalues --   -0.60698  -0.59923  -0.59710  -0.59615  -0.59423
 Alpha  occ. eigenvalues --   -0.59326  -0.58387  -0.58167  -0.57981  -0.57936
 Alpha  occ. eigenvalues --   -0.57681  -0.57518  -0.57459  -0.56665  -0.56575
 Alpha  occ. eigenvalues --   -0.56091  -0.56022  -0.55614  -0.55349  -0.55223
 Alpha  occ. eigenvalues --   -0.55119  -0.54981  -0.54750  -0.54659  -0.54523
 Alpha  occ. eigenvalues --   -0.54343  -0.53863  -0.53811  -0.53669  -0.53405
 Alpha  occ. eigenvalues --   -0.53156  -0.53095  -0.52686  -0.52617  -0.52459
 Alpha  occ. eigenvalues --   -0.52286  -0.52228  -0.52117  -0.51830  -0.51779
 Alpha  occ. eigenvalues --   -0.51445  -0.51298  -0.51100  -0.51003  -0.50919
 Alpha  occ. eigenvalues --   -0.50661  -0.50574  -0.50472  -0.50433  -0.50261
 Alpha  occ. eigenvalues --   -0.50043  -0.49924  -0.49711  -0.49478  -0.49361
 Alpha  occ. eigenvalues --   -0.49225  -0.49001  -0.48932  -0.48899  -0.48604
 Alpha  occ. eigenvalues --   -0.48560  -0.48437  -0.48336  -0.48064  -0.47917
 Alpha  occ. eigenvalues --   -0.47825  -0.47553  -0.47506  -0.47229  -0.47095
 Alpha  occ. eigenvalues --   -0.46771  -0.46590  -0.46482  -0.46414  -0.46220
 Alpha  occ. eigenvalues --   -0.46064  -0.45973  -0.45817  -0.45732  -0.45486
 Alpha  occ. eigenvalues --   -0.45347  -0.45339  -0.45180  -0.44977  -0.44944
 Alpha  occ. eigenvalues --   -0.44732  -0.44415  -0.44365  -0.44187  -0.44086
 Alpha  occ. eigenvalues --   -0.43992  -0.43697  -0.43529  -0.43518  -0.43313
 Alpha  occ. eigenvalues --   -0.43025  -0.42941  -0.42659  -0.42644  -0.42567
 Alpha  occ. eigenvalues --   -0.42245  -0.41962  -0.41767  -0.41436  -0.41253
 Alpha  occ. eigenvalues --   -0.40734  -0.40455  -0.40157  -0.40010  -0.39755
 Alpha  occ. eigenvalues --   -0.39552  -0.39031  -0.38765  -0.38674  -0.38550
 Alpha  occ. eigenvalues --   -0.38503  -0.38057  -0.36979  -0.36325  -0.36275
 Alpha  occ. eigenvalues --   -0.36113  -0.35905  -0.35237  -0.34406  -0.34242
 Alpha  occ. eigenvalues --   -0.33417  -0.33283  -0.33159  -0.32907  -0.32673
 Alpha  occ. eigenvalues --   -0.32253  -0.31851  -0.30800  -0.26492  -0.26168
 Alpha  occ. eigenvalues --   -0.23865  -0.23738
 Alpha virt. eigenvalues --   -0.07891  -0.07304  -0.01096   0.00460   0.01533
 Alpha virt. eigenvalues --    0.01747   0.04013   0.04342   0.04787   0.05113
 Alpha virt. eigenvalues --    0.06332   0.06392   0.06890   0.07396   0.07690

 Mulliken charges:
               1
     1  Mg   0.911480
     2  C   -0.000498
     3  C   -0.087191
     4  C   -0.044668
     5  C   -0.096986
     6  N   -0.290449
     7  C   -0.087196
     8  C   -0.019716
     9  C   -0.141865
    10  C    0.033358
    11  C    0.003725
    12  C    0.018615
    13  C   -0.121759
    14  H   -0.004058
    15  N   -0.568405
    16  C    0.227786
    17  C   -0.154640
    18  C   -0.058774
    19  C    0.174371
    20  C    0.067037
    21  C    0.059280
    22  O   -0.240120
    23  C   -0.031070
    24  N   -0.281332
    25  C    0.026727
    26  C   -0.115573
    27  C   -0.078835
    28  C    0.005763
    29  C    0.037532
    30  C   -0.014739
    31  C   -0.035883
    32  N   -0.416017
    33  C    0.153072
    34  C   -0.152370
    35  C   -0.029175
    36  C    0.141459
    37  C    0.092734
    38  C    0.132899
    39  O   -0.250076
    40  C   -0.095415
    41  C    0.289013
    42  O   -0.245436
    43  O   -0.410197
    44  C    0.146288
    45  H   -0.006100
    46  H    0.023633
    47  H   -0.014241
    48  H    0.023400
    49  H    0.045142
    50  H    0.035855
    51  H    0.035232
    52  H    0.049266
    53  H    0.030005
    54  H    0.059201
    55  H    0.067053
    56  H    0.079405
    57  H    0.057603
    58  H    0.030582
    59  H    0.065207
    60  H    0.057155
    61  H    0.052069
    62  H    0.059729
    63  H    0.046289
    64  H    0.032775
    65  H    0.082278
    66  H    0.023473
    67  H    0.031070
    68  H    0.032161
    69  H    0.025614
    70  H    0.025192
    71  H    0.039035
    72  H    0.046810
    73  H    0.031094
    74  H    0.045248
    75  H    0.072001
    76  H    0.078595
    77  H    0.043947
    78  H    0.042322
    79  H    0.067734
    80  Mg   0.939507
    81  C    0.024814
    82  C   -0.077650
    83  C   -0.052633
    84  C   -0.071117
    85  N   -0.396995
    86  C   -0.021106
    87  C   -0.029252
    88  C   -0.091053
    89  C    0.105617
    90  C    0.042394
    91  C    0.022626
    92  C   -0.129043
    93  H    0.031366
    94  N   -0.380557
    95  C    0.093890
    96  C   -0.112193
    97  C   -0.041950
    98  C    0.102280
    99  C    0.071759
   100  C    0.043750
   101  O   -0.260515
   102  C    0.007474
   103  N   -0.351603
   104  C    0.068859
   105  C   -0.145589
   106  C   -0.029992
   107  C    0.039140
   108  C    0.012992
   109  C   -0.014469
   110  C   -0.051397
   111  N   -0.418342
   112  C    0.151238
   113  C   -0.204202
   114  C   -0.041238
   115  C    0.088400
   116  C    0.077104
   117  C    0.161768
   118  O   -0.201768
   119  C   -0.129152
   120  C    0.263092
   121  O   -0.281353
   122  O   -0.330097
   123  C    0.127183
   124  H   -0.030773
   125  H    0.025564
   126  H   -0.000653
   127  H    0.030449
   128  H    0.032713
   129  H    0.054484
   130  H    0.031284
   131  H    0.027950
   132  H    0.025295
   133  H    0.045237
   134  H    0.045465
   135  H    0.062801
   136  H    0.019347
   137  H    0.053131
   138  H    0.056483
   139  H    0.053083
   140  H    0.034848
   141  H    0.067236
   142  H    0.043799
   143  H    0.031052
   144  H    0.047057
   145  H    0.032244
   146  H    0.040845
   147  H    0.029947
   148  H    0.031023
   149  H    0.055041
   150  H    0.044149
   151  H    0.033896
   152  H    0.035694
   153  H    0.042746
   154  H    0.058039
   155  H    0.082460
   156  H    0.054127
   157  H    0.078574
   158  H    0.048846
 Sum of Mulliken charges =  -0.00000

 Dipole moment (field-independent basis, Debye):
    X=             -1.1784    Y=              1.2329    Z=             -0.3606  Tot=              1.7432
 Quadrupole moment (field-independent basis, Debye-Ang):
   XX=           -606.5730   YY=           -469.2374   ZZ=           -507.6219
   XY=             18.1866   XZ=            -40.4799   YZ=             22.3716

 Normal termination of Gaussian 16 at Sat Sep 18 23:31:10 2021.
