 Gaussian 16, Revision A.03,
 Gaussian 16:  ES64L-G16RevA.03 25-Dec-2016

 --------------------------------
 #p wB97XD/Def2SVP td=(nstates=5)
 --------------------------------

 --------------------------------
 TDDFT excited states in gaussian
 --------------------------------
 Symbolic Z-matrix:
 Charge =  0 Multiplicity = 1

                         Standard orientation:
 ---------------------------------------------------------------------
 Center     Atomic      Atomic             Coordinates (Angstroms)
 Number     Number       Type             X           Y           Z
 ---------------------------------------------------------------------
      1         12           0      -30.577223    0.169151    0.367599
      2          6           0      -27.690484   -1.591001   -0.242661
      3          6           0      -31.767204   -0.886414   -2.815066
      4          6           0      -33.222708    2.264141    0.572783
      5          6           0      -29.315250    1.426498    3.209630
      6          7           0      -29.800104   -1.098245   -1.337083
      7          6           0      -28.567213   -1.693430   -1.327198
      8          6           0      -28.371625   -2.573983   -2.563447
      9          6           0      -29.636487   -2.141215   -3.439346
     10          6           0      -30.458226   -1.323828   -2.486043
     11          6           0      -29.269775   -1.429052   -4.792877
     12          6           0      -28.360699   -4.137959   -2.241520
     13          6           0      -27.368187   -5.090431   -2.863699
     14          1           0      -27.133772   -5.009942   -4.330373
     15          7           0      -32.321477    0.614413   -0.911190
     16          6           0      -32.698500   -0.032484   -2.035944
     17          6           0      -34.007715    0.352651   -2.444697
     18          6           0      -34.482843    1.260801   -1.446619
     19          6           0      -33.283287    1.457426   -0.579013
     20          6           0      -34.544435   -0.188103   -3.730595
     21          6           0      -35.788657    2.036337   -1.410225
     22          8           0      -35.968193    2.994191   -0.651698
     23          6           0      -36.928257    1.659789   -2.340683
     24          7           0      -31.132177    1.780517    1.644906
     25          6           0      -32.341133    2.398789    1.588468
     26          6           0      -32.555554    3.278751    2.818802
     27          6           0      -31.353618    2.852480    3.744772
     28          6           0      -30.546798    1.958431    2.823970
     29          6           0      -32.759266    4.816981    2.686347
     30          6           0      -31.725122    2.208959    5.145584
     31          6           0      -31.842733    0.706643    5.292420
     32          7           0      -28.848776    0.066606    1.264540
     33          6           0      -28.456015    0.498080    2.506089
     34          6           0      -27.122189    0.144067    2.829833
     35          6           0      -26.785137   -0.726476    1.798126
     36          6           0      -27.873569   -0.756399    0.888725
     37          6           0      -26.222310    0.447006    4.020793
     38          6           0      -25.790679   -1.550660    1.265296
     39          8           0      -24.667379   -1.746648    1.691366
     40          6           0      -26.294968   -2.181525   -0.151191
     41          6           0      -25.372883   -1.739772   -1.190163
     42          8           0      -25.203508   -0.562886   -1.565976
     43          8           0      -24.630753   -2.748289   -1.719300
     44          6           0      -23.456789   -2.412672   -2.532888
     45          1           0      -32.058925   -1.341115   -3.763675
     46          1           0      -34.181776    2.729878    0.807979
     47          1           0      -29.030799    1.508184    4.260061
     48          1           0      -27.389812   -2.357949   -2.986655
     49          1           0      -30.207510   -3.009393   -3.768867
     50          1           0      -29.690171   -2.023904   -5.603027
     51          1           0      -28.183944   -1.335820   -4.766817
     52          1           0      -29.748617   -0.463101   -4.956188
     53          1           0      -29.365794   -4.422291   -2.553528
     54          1           0      -28.442638   -4.316292   -1.169853
     55          1           0      -27.586875   -6.111837   -2.552322
     56          1           0      -26.398825   -4.799541   -2.460564
     57          1           0      -35.565415   -0.489752   -3.499559
     58          1           0      -34.014420   -1.095814   -4.020184
     59          1           0      -34.537571    0.493613   -4.581759
     60          1           0      -37.089231    0.585331   -2.433421
     61          1           0      -36.849440    2.231702   -3.266256
     62          1           0      -37.817940    2.033683   -1.833056
     63          1           0      -33.535853    2.962574    3.176024
     64          1           0      -30.782397    3.703894    4.112866
     65          1           0      -31.885006    5.347354    3.063529
     66          1           0      -33.617748    5.064051    3.310676
     67          1           0      -32.939226    4.999477    1.627478
     68          1           0      -32.680665    2.642020    5.438242
     69          1           0      -30.986964    2.502415    5.892322
     70          1           0      -32.791203    0.416220    5.744877
     71          1           0      -31.037827    0.260714    5.878204
     72          1           0      -31.780053    0.323414    4.273921
     73          1           0      -26.781623    1.036174    4.748545
     74          1           0      -25.338181    0.982303    3.673650
     75          1           0      -25.910347   -0.497231    4.466222
     76          1           0      -26.132539   -3.241746    0.044996
     77          1           0      -22.705960   -3.201762   -2.576267
     78          1           0      -23.003991   -1.443100   -2.327694
     79          1           0      -23.818494   -2.427239   -3.561138
     80         12           0       30.643058    0.084247   -0.554299
     81          6           0       27.730972   -1.236725    1.073276
     82          6           0       28.783304    3.124264   -0.798198
     83          6           0       33.445946    1.843130   -1.136542
     84          6           0       32.379826   -2.679248    0.466996
     85          7           0       28.545520    0.807254    0.106057
     86          6           0       27.546862    0.103100    0.712960
     87          6           0       26.264005    0.978875    0.931659
     88          6           0       26.561344    2.206888   -0.055441
     89          6           0       28.070081    2.078384   -0.192560
     90          6           0       25.896627    2.105535   -1.409154
     91          6           0       25.975232    1.274077    2.394224
     92          6           0       24.506831    1.142000    2.875241
     93          1           0       23.582987    2.434485    3.059237
     94          7           0       31.080762    2.235317   -1.031017
     95          6           0       30.132712    3.271261   -1.163573
     96          6           0       30.826756    4.491896   -1.591893
     97          6           0       32.214907    4.098149   -1.739384
     98          6           0       32.320694    2.747512   -1.230746
     99          6           0       30.235115    5.837562   -1.783112
    100          6           0       33.303090    4.963453   -2.323834
    101          8           0       32.983107    6.006760   -2.847618
    102          6           0       34.772743    4.611238   -2.312998
    103          7           0       32.553759   -0.352586   -0.236977
    104          6           0       33.535701    0.506240   -0.722772
    105          6           0       34.889406   -0.166945   -0.484867
    106          6           0       34.521869   -1.665668   -0.182075
    107          6           0       33.042763   -1.572282   -0.014744
    108          6           0       36.019108    0.032710   -1.560835
    109          6           0       35.265107   -2.382791    0.986512
    110          6           0       35.968527   -3.666252    0.686682
    111          7           0       30.193946   -1.661978    0.420199
    112          6           0       30.988710   -2.757244    0.710267
    113          6           0       30.166796   -3.892546    1.172004
    114          6           0       28.874704   -3.270974    1.380073
    115          6           0       28.983262   -1.953954    0.923205
    116          6           0       30.552886   -5.318519    1.464727
    117          6           0       27.483164   -3.557619    1.837741
    118          8           0       27.014232   -4.539744    2.338527
    119          6           0       26.766011   -2.214340    1.750165
    120          6           0       25.533558   -2.407150    0.917932
    121          8           0       25.658023   -2.682128   -0.256176
    122          8           0       24.290580   -2.148645    1.570022
    123          6           0       23.073056   -2.134582    0.703580
    124          1           0       28.232699    4.056861   -0.939162
    125          1           0       34.440055    2.258062   -1.311098
    126          1           0       32.935655   -3.610118    0.595048
    127          1           0       25.382561    0.526154    0.478473
    128          1           0       26.372789    3.163680    0.431340
    129          1           0       26.493228    1.442642   -2.035420
    130          1           0       25.807627    3.119825   -1.798004
    131          1           0       24.896667    1.675288   -1.473589
    132          1           0       26.243621    2.318972    2.546902
    133          1           0       26.704668    0.729245    2.993482
    134          1           0       24.610650    0.641458    3.838235
    135          1           0       23.903748    0.485783    2.247610
    136          1           0       30.050982    5.938180   -2.852297
    137          1           0       30.989571    6.593338   -1.564493
    138          1           0       29.334154    6.125234   -1.239925
    139          1           0       35.442325    5.392444   -2.672293
    140          1           0       34.870126    3.755730   -2.981483
    141          1           0       35.230281    4.256946   -1.390032
    142          1           0       35.264643    0.401024    0.366924
    143          1           0       34.594489   -2.225215   -1.114193
    144          1           0       35.590789    0.338651   -2.515699
    145          1           0       36.627550   -0.867422   -1.646459
    146          1           0       36.725167    0.792721   -1.226939
    147          1           0       34.555071   -2.564111    1.793336
    148          1           0       35.942660   -1.652048    1.427943
    149          1           0       35.400937   -4.491753    1.115693
    150          1           0       36.952620   -3.661093    1.155138
    151          1           0       36.125466   -3.923242   -0.360676
    152          1           0       29.683736   -5.974920    1.427369
    153          1           0       31.008464   -5.316232    2.455347
    154          1           0       31.357383   -5.591478    0.781564
    155          1           0       26.611301   -1.861278    2.769842
    156          1           0       22.768550   -3.161320    0.499921
    157          1           0       23.290798   -1.687008   -0.265913
    158          1           0       22.270307   -1.566577    1.173362
 ---------------------------------------------------------------------

 SCF Done:  E(RwB97XD) =  -4070.63123786     A.U. after   17 cycles

 Excitation energies and oscillator strengths:

 Excited State   1:      Singlet-A      1.6113 eV  769.46 nm  f=0.3985  <S**2>=0.000
     309 -> 315        0.17519
     312 -> 314        0.68624
     309 <- 315        0.11590
 This state for optimization and/or second-order correction.
 Total Energy, E(TD-HF/TD-DFT) =  -4070.57202277
 Copying the excited state density for this state as the 1-particle RhoCI density.

 Excited State   2:      Singlet-A      1.6605 eV  746.67 nm  f=0.4161  <S**2>=0.000
     310 -> 316       -0.18408
     311 -> 313        0.68432
     310 <- 316       -0.11635

 Excited State   3:      Singlet-A      2.1343 eV  580.90 nm  f=0.1708  <S**2>=0.000
     310 -> 313        0.66026
     311 -> 316        0.24163

 Excited State   4:      Singlet-A      2.1826 eV  568.05 nm  f=0.1247  <S**2>=0.000
     309 -> 314        0.63925
     312 -> 315       -0.28430

 Excited State   5:      Singlet-A      3.1513 eV  393.43 nm  f=0.0019  <S**2>=0.000
     307 -> 314       -0.12192
     308 -> 314        0.66860
     312 -> 315        0.10236

 The electronic state is 1-A.
 Alpha  occ. eigenvalues --  -46.95661 -46.95444 -19.30505 -19.30280 -19.25672
 Alpha  occ. eigenvalues --  -19.24786 -19.23930 -19.23651 -19.23478 -19.22965
 Alpha  occ. eigenvalues --  -14.47399 -14.46715 -14.46259 -14.46124 -14.44159
 Alpha  occ. eigenvalues --  -14.44089 -14.43940 -14.43737 -10.44108 -10.42778
 Alpha  occ. eigenvalues --  -10.39437 -10.39360 -10.38536 -10.38443 -10.36029
 Alpha  occ. eigenvalues --  -10.35416 -10.35360 -10.35328 -10.35084 -10.34900
 Alpha  occ. eigenvalues --  -10.34697 -10.34476 -10.34406 -10.34297 -10.34280
 Alpha  occ. eigenvalues --  -10.34150 -10.34127 -10.34120 -10.33889 -10.33500
 Alpha  occ. eigenvalues --  -10.33220 -10.33111 -10.32994 -10.32896 -10.32846
 Alpha  occ. eigenvalues --  -10.32782 -10.32692 -10.32531 -10.32528 -10.32527
 Alpha  occ. eigenvalues --  -10.32318 -10.32116 -10.32092 -10.32086 -10.32056
 Alpha  occ. eigenvalues --  -10.32048 -10.31823 -10.31783 -10.31624 -10.31601
 Alpha  occ. eigenvalues --  -10.31548 -10.31357 -10.31289 -10.31038 -10.30862
 Alpha  occ. eigenvalues --  -10.30847 -10.30812 -10.30650 -10.30597 -10.30487
 Alpha  occ. eigenvalues --  -10.30388 -10.30356 -10.30290 -10.30286 -10.30153
 Alpha  occ. eigenvalues --  -10.30063 -10.29928 -10.29899 -10.29736 -10.29621
 Alpha  occ. eigenvalues --  -10.29568 -10.29534 -10.29271 -10.29242 -10.28840
 Alpha  occ. eigenvalues --  -10.28640  -3.21694  -3.21497  -1.95226  -1.95069
 Alpha  occ. eigenvalues --   -1.94816  -1.94666  -1.94581  -1.94512  -1.18028
 Alpha  occ. eigenvalues --   -1.17523  -1.13988  -1.12394  -1.12125  -1.11695
 Alpha  occ. eigenvalues --   -1.10093  -1.08023  -1.07401  -1.06696  -1.06574
 Alpha  occ. eigenvalues --   -1.06164  -1.05587  -1.05509  -1.04797  -1.03531
 Alpha  occ. eigenvalues --   -0.94750  -0.94588  -0.91259  -0.90951  -0.90755
 Alpha  occ. eigenvalues --   -0.90341  -0.90109  -0.90060  -0.89726  -0.89526
 Alpha  occ. eigenvalues --   -0.89369  -0.88371  -0.88167  -0.87582  -0.86395
 Alpha  occ. eigenvalues --   -0.86217  -0.85847  -0.85658  -0.84567  -0.84400
 Alpha  occ. eigenvalues --   -0.83775  -0.83733  -0.83112  -0.82489  -0.82280
 Alpha  occ. eigenvalues --   -0.82169  -0.80356  -0.80079  -0.79430  -0.79405
 Alpha  occ. eigenvalues --   -0.79034  -0.78739  -0.78251  -0.78163  -0.77431
 Alpha  occ. eigenvalues --   -0.77159  -0.75535  -0.74640  -0.73746  -0.73525
 Alpha  occ. eigenvalues --   -0.71548  -0.71438  -0.71213  -0.70891  -0.70094
 Alpha  occ. eigenvalues --   -0.69911  -0.69125  -0.68679  -0.67850  -0.67558
 Alpha  occ. eigenvalues --   -0.67108  -0.67057  -0.66727  -0.66547  -0.66315
 Alpha  occ. eigenvalues --   -0.66206  -0.64338  -0.64235  -0.62203  -0.61805
 Alpha  occ. eigenvalues --   -0.61797  -0.61498  -0.61186  -0.61063  -0.61037
 Alpha  occ. eigenvalues --   -0.60322  -0.60273  -0.59879  -0.59626  -0.59278
 Alpha  occ. eigenvalues --   -0.58490  -0.58238  -0.57595  -0.57416  -0.57331
 Alpha  occ. eigenvalues --   -0.56999  -0.56777  -0.56227  -0.55990  -0.55825
 Alpha  occ. eigenvalues --   -0.55304  -0.55227  -0.55092  -0.55050  -0.54836
 Alpha  occ. eigenvalues --   -0.54744  -0.54484  -0.54169  -0.54161  -0.54017
 Alpha  occ. eigenvalues --   -0.53761  -0.53665  -0.53399  -0.53231  -0.53022
 Alpha  occ. eigenvalues --   -0.52831  -0.52685  -0.52526  -0.52335  -0.52192
 Alpha  occ. eigenvalues --   -0.51860  -0.51802  -0.51799  -0.51669  -0.51462
 Alpha  occ. eigenvalues --   -0.51235  -0.51162  -0.51008  -0.51008  -0.50730
 Alpha  occ. eigenvalues --   -0.50671  -0.50639  -0.50521  -0.50502  -0.50167
 Alpha  occ. eigenvalues --   -0.50086  -0.49775  -0.49596  -0.49501  -0.49094
 Alpha  occ. eigenvalues --   -0.49002  -0.48926  -0.48797  -0.48425  -0.48363
 Alpha  occ. eigenvalues --   -0.48333  -0.48124  -0.48094  -0.47977  -0.47895
 Alpha  occ. eigenvalues --   -0.47885  -0.47802  -0.47744  -0.47233  -0.47192
 Alpha  occ. eigenvalues --   -0.46954  -0.46896  -0.46589  -0.46455  -0.45858
 Alpha  occ. eigenvalues --   -0.45830  -0.45712  -0.45559  -0.45553  -0.45395
 Alpha  occ. eigenvalues --   -0.45290  -0.45237  -0.45167  -0.44926  -0.44808
 Alpha  occ. eigenvalues --   -0.44544  -0.44478  -0.44386  -0.44185  -0.43906
 Alpha  occ. eigenvalues --   -0.43827  -0.43791  -0.43545  -0.43454  -0.43229
 Alpha  occ. eigenvalues --   -0.43032  -0.43012  -0.42721  -0.42493  -0.42463
 Alpha  occ. eigenvalues --   -0.42146  -0.41923  -0.41755  -0.41454  -0.41177
 Alpha  occ. eigenvalues --   -0.40409  -0.40408  -0.40147  -0.39645  -0.39345
 Alpha  occ. eigenvalues --   -0.39275  -0.39149  -0.38659  -0.38603  -0.38043
 Alpha  occ. eigenvalues --   -0.37756  -0.37676  -0.36988  -0.36547  -0.36383
 Alpha  occ. eigenvalues --   -0.35450  -0.35418  -0.35079  -0.33625  -0.33536
 Alpha  occ. eigenvalues --   -0.33313  -0.33246  -0.33030  -0.32448  -0.32392
 Alpha  occ. eigenvalues --   -0.32254  -0.31854  -0.30906  -0.26218  -0.25745
 Alpha  occ. eigenvalues --   -0.23273  -0.22912
 Alpha virt. eigenvalues --   -0.07459  -0.07334   0.00442   0.00729   0.02314
 Alpha virt. eigenvalues --    0.02727   0.04242   0.04559   0.04829   0.04942
 Alpha virt. eigenvalues --    0.06522   0.06874   0.06928   0.07986   0.08556

 Mulliken charges:
               1
     1  Mg   0.974596
     2  C   -0.004277
     3  C   -0.064860
     4  C   -0.065486
     5  C   -0.074902
     6  N   -0.330811
     7  C    0.000571
     8  C   -0.084342
     9  C   -0.117769
    10  C    0.051542
    11  C    0.025237
    12  C    0.010905
    13  C   -0.102357
    14  H    0.032750
    15  N   -0.356502
    16  C    0.129020
    17  C   -0.163785
    18  C   -0.075545
    19  C    0.100011
    20  C    0.082242
    21  C    0.043345
    22  O   -0.246931
    23  C   -0.017136
    24  N   -0.351526
    25  C    0.050254
    26  C   -0.080578
    27  C   -0.041528
    28  C    0.061460
    29  C    0.035323
    30  C   -0.057979
    31  C   -0.043054
    32  N   -0.478528
    33  C    0.099431
    34  C   -0.189099
    35  C    0.040973
    36  C    0.138063
    37  C    0.096911
    38  C    0.037757
    39  O   -0.207911
    40  C   -0.055969
    41  C    0.260115
    42  O   -0.281272
    43  O   -0.359711
    44  C    0.146621
    45  H   -0.010884
    46  H    0.017320
    47  H   -0.000411
    48  H    0.049008
    49  H    0.042625
    50  H    0.031658
    51  H    0.050434
    52  H    0.040576
    53  H    0.012377
    54  H    0.032272
    55  H    0.056007
    56  H    0.054323
    57  H    0.030622
    58  H    0.036827
    59  H    0.063558
    60  H    0.053835
    61  H    0.071510
    62  H    0.050430
    63  H    0.036339
    64  H    0.036891
    65  H    0.036523
    66  H    0.040342
    67  H    0.051422
    68  H    0.029689
    69  H    0.029348
    70  H    0.038449
    71  H    0.037287
    72  H    0.035910
    73  H    0.026406
    74  H    0.066830
    75  H    0.060968
    76  H    0.060677
    77  H    0.053420
    78  H    0.075505
    79  H    0.036639
    80  Mg   0.981263
    81  C   -0.076524
    82  C   -0.054073
    83  C   -0.080064
    84  C   -0.124440
    85  N   -0.313047
    86  C   -0.015913
    87  C   -0.065914
    88  C   -0.119746
    89  C    0.049101
    90  C    0.041511
    91  C    0.037321
    92  C   -0.107628
    93  H    0.023563
    94  N   -0.419488
    95  C    0.112287
    96  C   -0.143789
    97  C   -0.073708
    98  C    0.168685
    99  C    0.081160
   100  C    0.035466
   101  O   -0.234914
   102  C   -0.012057
   103  N   -0.451603
   104  C    0.092262
   105  C   -0.128719
   106  C   -0.033677
   107  C    0.089097
   108  C    0.013836
   109  C    0.000901
   110  C   -0.047224
   111  N   -0.442234
   112  C    0.135405
   113  C   -0.189501
   114  C   -0.106272
   115  C    0.178206
   116  C    0.090765
   117  C    0.132699
   118  O   -0.174068
   119  C   -0.015160
   120  C    0.278286
   121  O   -0.234420
   122  O   -0.404950
   123  C    0.133343
   124  H   -0.006114
   125  H   -0.037470
   126  H   -0.011829
   127  H    0.025615
   128  H    0.028731
   129  H    0.043264
   130  H    0.042634
   131  H    0.036726
   132  H    0.037374
   133  H    0.040610
   134  H    0.055491
   135  H    0.048120
   136  H    0.055525
   137  H    0.053854
   138  H    0.036858
   139  H    0.051236
   140  H    0.050092
   141  H    0.057933
   142  H    0.051510
   143  H    0.033577
   144  H    0.044832
   145  H    0.038332
   146  H    0.031048
   147  H    0.038667
   148  H    0.025377
   149  H    0.036250
   150  H    0.036902
   151  H    0.035842
   152  H    0.071578
   153  H    0.053867
   154  H    0.034425
   155  H    0.072716
   156  H    0.063793
   157  H    0.051501
   158  H    0.065111
 Sum of Mulliken charges =  -0.00000

 Dipole moment (field-independent basis, Debye):
    X=             -1.5445    Y=             -3.3947    Z=             -1.1424  Tot=              3.9005
 Quadrupole moment (field-independent basis, Debye-Ang):
   XX=           -181.9876   YY=           -540.4622   ZZ=           -489.9611
   XY=             54.6448   XZ=             26.5005   YZ=             33.2615

 Normal termination of Gaussian 16 at Mon Sep 20 20:30:08 2021.
