 Gaussian 16, Revision A.03,
 Gaussian 16:  ES64L-G16RevA.03 25-Dec-2016

 --------------------------------
 #p wB97XD/Def2SVP td=(nstates=5)
 --------------------------------

 --------------------------------
 TDDFT excited states in gaussian
 --------------------------------
 Symbolic Z-matrix:
 Charge =  0 Multiplicity = 1

                         Standard orientation:
 ---------------------------------------------------------------------
 Center     Atomic      Atomic             Coordinates (Angstroms)
 Number     Number       Type             X           Y           Z
 ---------------------------------------------------------------------
      1         12           0       19.176281   -0.918237   -0.009107
      2          6           0       21.096574    2.116151    0.144208
      3          6           0       16.952617    0.636509    2.273209
      4          6           0       17.233059   -3.818077    0.096408
      5          6           0       21.534513   -2.418394   -1.839019
      6          7           0       19.203806    1.149239    1.249931
      7          6           0       20.011548    2.207623    1.024808
      8          6           0       19.632920    3.385363    1.993184
      9          6           0       18.436981    2.736342    2.777499
     10          6           0       18.098750    1.435711    2.013367
     11          6           0       18.771765    2.507410    4.292781
     12          6           0       19.235675    4.667801    1.262556
     13          6           0       19.799704    5.939280    1.806445
     14          1           0       19.520022    7.251203    1.059094
     15          7           0       17.285484   -1.457672    0.838270
     16          6           0       16.567137   -0.677855    1.738546
     17          6           0       15.352052   -1.390194    2.080791
     18          6           0       15.340530   -2.603896    1.413585
     19          6           0       16.702967   -2.713607    0.791398
     20          6           0       14.357946   -0.939383    3.112116
     21          6           0       14.290252   -3.788907    1.422385
     22          8           0       14.346808   -4.828672    0.812629
     23          6           0       12.970070   -3.579075    2.131845
     24          7           0       19.389153   -2.843079   -0.600494
     25          6           0       18.517514   -3.894906   -0.489618
     26          6           0       19.147421   -5.227807   -0.957000
     27          6           0       20.405702   -4.740342   -1.793944
     28          6           0       20.425520   -3.212723   -1.405817
     29          6           0       19.461006   -6.202372    0.223020
     30          6           0       20.289553   -4.971288   -3.331409
     31          6           0       19.237787   -4.128931   -4.049765
     32          7           0       20.942831   -0.369798   -0.698641
     33          6           0       21.840596   -1.086073   -1.538439
     34          6           0       23.012003   -0.270634   -1.851625
     35          6           0       22.727764    0.975922   -1.265615
     36          6           0       21.479570    0.892451   -0.593627
     37          6           0       24.155547   -0.681990   -2.657296
     38          6           0       23.295573    2.310297   -1.102107
     39          8           0       24.314665    2.783262   -1.576700
     40          6           0       22.300067    3.101635   -0.094483
     41          6           0       22.026877    4.351091   -0.935268
     42          8           0       21.333980    4.454543   -1.963528
     43          8           0       22.715940    5.360612   -0.432421
     44          6           0       22.409077    6.774144   -0.896840
     45          1           0       16.237519    1.152463    2.916849
     46          1           0       16.696884   -4.770085    0.076342
     47          1           0       22.227328   -2.945109   -2.498140
     48          1           0       20.558103    3.597489    2.527983
     49          1           0       17.535809    3.347894    2.715902
     50          1           0       18.080373    2.953792    5.007496
     51          1           0       19.812595    2.701905    4.552208
     52          1           0       18.659316    1.487167    4.660290
     53          1           0       18.218605    4.806886    1.629486
     54          1           0       19.257027    4.568417    0.176745
     55          1           0       20.861999    6.005183    2.047100
     56          1           0       19.289518    6.039878    2.764471
     57          1           0       14.564535    0.077352    3.445302
     58          1           0       14.298647   -1.564734    4.004273
     59          1           0       13.323171   -0.879105    2.774512
     60          1           0       12.405054   -2.743286    1.719295
     61          1           0       13.298724   -3.446396    3.162662
     62          1           0       12.509067   -4.565998    2.091926
     63          1           0       18.340316   -5.713220   -1.506815
     64          1           0       21.393609   -4.983538   -1.402173
     65          1           0       18.820100   -7.084001    0.221585
     66          1           0       19.500675   -5.793277    1.231951
     67          1           0       20.493672   -6.469569   -0.002002
     68          1           0       20.313904   -6.047748   -3.501526
     69          1           0       21.232626   -4.654911   -3.776753
     70          1           0       18.591179   -3.528152   -3.411220
     71          1           0       18.597310   -4.843629   -4.565980
     72          1           0       19.622172   -3.336355   -4.690740
     73          1           0       24.935566    0.071314   -2.769609
     74          1           0       23.735817   -0.938985   -3.629780
     75          1           0       24.557240   -1.594071   -2.213599
     76          1           0       22.818030    3.480829    0.786422
     77          1           0       22.842803    7.431357   -0.142824
     78          1           0       21.342741    6.997981   -0.898739
     79          1           0       22.765777    6.987678   -1.905116
     80         12           0      -19.756091   -0.550333    0.089070
     81          6           0      -19.149228    2.753001   -1.027282
     82          6           0      -19.223997    0.520943    3.244780
     83          6           0      -20.190642   -3.649769    1.049782
     84          6           0      -19.537463   -1.573949   -3.342003
     85          7           0      -19.131666    1.426424    1.041132
     86          6           0      -19.208934    2.639481    0.377583
     87          6           0      -19.194312    3.703978    1.420869
     88          6           0      -18.660290    3.012726    2.675783
     89          6           0      -19.032527    1.543064    2.356984
     90          6           0      -17.098218    3.177557    2.787450
     91          6           0      -20.598689    4.463664    1.709292
     92          6           0      -20.634710    6.009683    1.910249
     93          1           0      -19.613141    6.608939    2.919580
     94          7           0      -19.692381   -1.422247    1.941840
     95          6           0      -19.481858   -0.815510    3.072604
     96          6           0      -19.496729   -1.823498    4.146861
     97          6           0      -19.991935   -3.037300    3.580999
     98          6           0      -19.954424   -2.753296    2.118267
     99          6           0      -19.108577   -1.652182    5.660597
    100          6           0      -20.441890   -4.349357    4.222802
    101          8           0      -20.742786   -5.375589    3.583687
    102          6           0      -20.321688   -4.488967    5.665895
    103          7           0      -19.675920   -2.408189   -1.050043
    104          6           0      -20.012945   -3.582439   -0.381965
    105          6           0      -20.265443   -4.719912   -1.445286
    106          6           0      -20.182169   -3.967819   -2.796950
    107          6           0      -19.812881   -2.540543   -2.386572
    108          6           0      -19.348231   -5.928528   -1.256759
    109          6           0      -21.411012   -4.101825   -3.731191
    110          6           0      -21.150026   -4.247320   -5.248581
    111          7           0      -19.403419    0.342478   -1.812730
    112          6           0      -19.292398   -0.187890   -3.094167
    113          6           0      -19.204887    0.900380   -4.034364
    114          6           0      -19.088203    2.059025   -3.265032
    115          6           0      -19.225863    1.698687   -1.896153
    116          6           0      -19.248947    0.815088   -5.434741
    117          6           0      -18.974652    3.524586   -3.300167
    118          8           0      -18.920195    4.330439   -4.215599
    119          6           0      -19.036952    4.031732   -1.822228
    120          6           0      -17.779217    4.844243   -1.570890
    121          8           0      -16.647461    4.550774   -1.258467
    122          8           0      -18.247716    6.121709   -1.679290
    123          6           0      -17.390801    7.216623   -1.165145
    124          1           0      -19.141781    0.868881    4.276962
    125          1           0      -20.534002   -4.619708    1.415359
    126          1           0      -19.692379   -1.834144   -4.390732
    127          1           0      -18.541491    4.555284    1.226384
    128          1           0      -19.231702    3.262472    3.569439
    129          1           0      -16.731630    3.229416    3.812089
    130          1           0      -16.735629    4.123826    2.385198
    131          1           0      -16.689639    2.276928    2.330435
    132          1           0      -21.121976    3.956231    2.519044
    133          1           0      -21.289677    4.274494    0.886958
    134          1           0      -21.612473    6.156495    2.370514
    135          1           0      -20.515119    6.365493    0.886894
    136          1           0      -19.937130   -1.717421    6.365460
    137          1           0      -18.633176   -0.675545    5.755795
    138          1           0      -18.468245   -2.434864    6.067480
    139          1           0      -20.839321   -3.678863    6.180273
    140          1           0      -19.274355   -4.502391    5.967847
    141          1           0      -20.907046   -5.364091    5.946354
    142          1           0      -21.316954   -4.990377   -1.347815
    143          1           0      -19.274835   -4.244374   -3.333597
    144          1           0      -18.433792   -5.774239   -1.830503
    145          1           0      -19.744352   -6.864195   -1.650079
    146          1           0      -18.962119   -5.924097   -0.237981
    147          1           0      -22.166607   -3.330175   -3.584581
    148          1           0      -22.014580   -4.968442   -3.458081
    149          1           0      -21.281131   -3.237316   -5.637192
    150          1           0      -21.976195   -4.858684   -5.613014
    151          1           0      -20.148677   -4.640412   -5.422156
    152          1           0      -18.820669    1.610954   -6.043647
    153          1           0      -20.291073    0.639493   -5.703502
    154          1           0      -18.651239   -0.060155   -5.686710
    155          1           0      -19.932812    4.633898   -1.671922
    156          1           0      -18.075895    7.869049   -0.624531
    157          1           0      -16.884975    7.825140   -1.914348
    158          1           0      -16.660803    6.818181   -0.461043
 ---------------------------------------------------------------------

 SCF Done:  E(RwB97XD) =  -4070.58842468     A.U. after   20 cycles

 Excitation energies and oscillator strengths:

 Excited State   1:      Singlet-A      1.5889 eV  780.31 nm  f=0.3668  <S**2>=0.000
     309 -> 316       -0.18994
     312 -> 313        0.68307
     309 <- 316       -0.12271
 This state for optimization and/or second-order correction.
 Total Energy, E(TD-HF/TD-DFT) =  -4070.53003306
 Copying the excited state density for this state as the 1-particle RhoCI density.

 Excited State   2:      Singlet-A      1.6742 eV  740.54 nm  f=0.3819  <S**2>=0.000
     310 -> 315       -0.19701
     311 -> 314        0.67925
     310 <- 315       -0.11760

 Excited State   3:      Singlet-A      2.1589 eV  574.30 nm  f=0.0888  <S**2>=0.000
     309 -> 313        0.62432
     312 -> 316        0.32219

 Excited State   4:      Singlet-A      2.2066 eV  561.88 nm  f=0.0675  <S**2>=0.000
     310 -> 314        0.62033
     311 -> 315        0.32389

 Excited State   5:      Singlet-A      3.4057 eV  364.05 nm  f=0.1364  <S**2>=0.000
     308 -> 314        0.57125
     310 -> 314        0.13898
     311 -> 315       -0.36089

 The electronic state is 1-A.
 Alpha  occ. eigenvalues --  -46.95719 -46.94600 -19.30117 -19.29616 -19.24984
 Alpha  occ. eigenvalues --  -19.24512 -19.24377 -19.24315 -19.23738 -19.22942
 Alpha  occ. eigenvalues --  -14.47047 -14.46376 -14.46108 -14.46013 -14.44703
 Alpha  occ. eigenvalues --  -14.44441 -14.44273 -14.43568 -10.43098 -10.42297
 Alpha  occ. eigenvalues --  -10.39547 -10.39506 -10.39393 -10.38842 -10.35959
 Alpha  occ. eigenvalues --  -10.35786 -10.35441 -10.35357 -10.35241 -10.35211
 Alpha  occ. eigenvalues --  -10.35110 -10.35104 -10.34843 -10.34831 -10.34671
 Alpha  occ. eigenvalues --  -10.34337 -10.34055 -10.34005 -10.34002 -10.33915
 Alpha  occ. eigenvalues --  -10.33847 -10.33662 -10.33573 -10.32908 -10.32870
 Alpha  occ. eigenvalues --  -10.32702 -10.32635 -10.32477 -10.32452 -10.32442
 Alpha  occ. eigenvalues --  -10.32388 -10.32370 -10.32211 -10.32206 -10.31974
 Alpha  occ. eigenvalues --  -10.31939 -10.31843 -10.31654 -10.31630 -10.31625
 Alpha  occ. eigenvalues --  -10.31594 -10.31592 -10.31358 -10.31314 -10.31311
 Alpha  occ. eigenvalues --  -10.31263 -10.30823 -10.30778 -10.30742 -10.30653
 Alpha  occ. eigenvalues --  -10.30579 -10.30312 -10.30239 -10.30067 -10.29996
 Alpha  occ. eigenvalues --  -10.29934 -10.29899 -10.29853 -10.29639 -10.29575
 Alpha  occ. eigenvalues --  -10.29572 -10.29479 -10.29435 -10.29185 -10.29101
 Alpha  occ. eigenvalues --  -10.28848  -3.21564  -3.20729  -1.95148  -1.94685
 Alpha  occ. eigenvalues --   -1.94522  -1.94307  -1.93869  -1.93702  -1.18299
 Alpha  occ. eigenvalues --   -1.18103  -1.13656  -1.12245  -1.11836  -1.11593
 Alpha  occ. eigenvalues --   -1.09977  -1.07448  -1.07197  -1.05957  -1.05755
 Alpha  occ. eigenvalues --   -1.05095  -1.05059  -1.04237  -1.04102  -1.03718
 Alpha  occ. eigenvalues --   -0.94756  -0.92796  -0.91073  -0.90774  -0.90580
 Alpha  occ. eigenvalues --   -0.90376  -0.89905  -0.89888  -0.89498  -0.89273
 Alpha  occ. eigenvalues --   -0.89085  -0.88869  -0.88817  -0.88372  -0.86148
 Alpha  occ. eigenvalues --   -0.86014  -0.85492  -0.85439  -0.84623  -0.84418
 Alpha  occ. eigenvalues --   -0.84244  -0.83455  -0.83412  -0.82947  -0.82577
 Alpha  occ. eigenvalues --   -0.82104  -0.80357  -0.80078  -0.79381  -0.79188
 Alpha  occ. eigenvalues --   -0.78962  -0.78856  -0.77872  -0.77796  -0.77058
 Alpha  occ. eigenvalues --   -0.77041  -0.74555  -0.74504  -0.73799  -0.73599
 Alpha  occ. eigenvalues --   -0.71944  -0.70871  -0.70705  -0.70676  -0.69704
 Alpha  occ. eigenvalues --   -0.69473  -0.69336  -0.68230  -0.67438  -0.67400
 Alpha  occ. eigenvalues --   -0.67295  -0.67041  -0.66978  -0.66572  -0.66335
 Alpha  occ. eigenvalues --   -0.66048  -0.63947  -0.63750  -0.62497  -0.61575
 Alpha  occ. eigenvalues --   -0.61569  -0.61267  -0.61240  -0.60891  -0.60300
 Alpha  occ. eigenvalues --   -0.59905  -0.59684  -0.59506  -0.59342  -0.58170
 Alpha  occ. eigenvalues --   -0.58164  -0.57868  -0.57617  -0.57388  -0.57145
 Alpha  occ. eigenvalues --   -0.57015  -0.56557  -0.56414  -0.55870  -0.55649
 Alpha  occ. eigenvalues --   -0.55518  -0.55249  -0.55194  -0.55147  -0.55127
 Alpha  occ. eigenvalues --   -0.54887  -0.54809  -0.54623  -0.54343  -0.54304
 Alpha  occ. eigenvalues --   -0.54045  -0.54029  -0.53613  -0.53513  -0.53435
 Alpha  occ. eigenvalues --   -0.53161  -0.52875  -0.52814  -0.52727  -0.52356
 Alpha  occ. eigenvalues --   -0.52034  -0.51907  -0.51720  -0.51605  -0.51533
 Alpha  occ. eigenvalues --   -0.51339  -0.51190  -0.51138  -0.50943  -0.50884
 Alpha  occ. eigenvalues --   -0.50744  -0.50539  -0.50339  -0.50110  -0.50048
 Alpha  occ. eigenvalues --   -0.49580  -0.49418  -0.49336  -0.49322  -0.49038
 Alpha  occ. eigenvalues --   -0.48866  -0.48648  -0.48583  -0.48554  -0.48265
 Alpha  occ. eigenvalues --   -0.48201  -0.48095  -0.47868  -0.47722  -0.47474
 Alpha  occ. eigenvalues --   -0.47403  -0.47185  -0.46977  -0.46826  -0.46807
 Alpha  occ. eigenvalues --   -0.46615  -0.46312  -0.46311  -0.46042  -0.46011
 Alpha  occ. eigenvalues --   -0.45866  -0.45775  -0.45628  -0.45568  -0.45439
 Alpha  occ. eigenvalues --   -0.45042  -0.44956  -0.44930  -0.44900  -0.44877
 Alpha  occ. eigenvalues --   -0.44696  -0.44481  -0.44239  -0.44098  -0.44036
 Alpha  occ. eigenvalues --   -0.43931  -0.43756  -0.43511  -0.43275  -0.43213
 Alpha  occ. eigenvalues --   -0.42808  -0.42803  -0.42448  -0.42243  -0.42133
 Alpha  occ. eigenvalues --   -0.42082  -0.41774  -0.41491  -0.41442  -0.41059
 Alpha  occ. eigenvalues --   -0.40679  -0.40506  -0.39951  -0.39701  -0.39517
 Alpha  occ. eigenvalues --   -0.39338  -0.38687  -0.38585  -0.38482  -0.38010
 Alpha  occ. eigenvalues --   -0.37846  -0.37625  -0.36659  -0.35924  -0.35874
 Alpha  occ. eigenvalues --   -0.35322  -0.35313  -0.34687  -0.33695  -0.33575
 Alpha  occ. eigenvalues --   -0.33374  -0.32962  -0.32780  -0.32740  -0.32483
 Alpha  occ. eigenvalues --   -0.32444  -0.32124  -0.31431  -0.25998  -0.25900
 Alpha  occ. eigenvalues --   -0.22784  -0.22731
 Alpha virt. eigenvalues --   -0.07038  -0.06631  -0.00155  -0.00099   0.01916
 Alpha virt. eigenvalues --    0.02733   0.04276   0.04509   0.05011   0.06535
 Alpha virt. eigenvalues --    0.07620   0.07842   0.07999   0.08033   0.08295

 Mulliken charges:
               1
     1  Mg   0.988306
     2  C    0.030741
     3  C   -0.071759
     4  C   -0.057323
     5  C   -0.105032
     6  N   -0.311617
     7  C   -0.008584
     8  C   -0.088392
     9  C   -0.083060
    10  C    0.047777
    11  C    0.016154
    12  C    0.051536
    13  C   -0.150250
    14  H    0.031583
    15  N   -0.450270
    16  C    0.180756
    17  C   -0.160660
    18  C   -0.081998
    19  C    0.134160
    20  C    0.054985
    21  C    0.057023
    22  O   -0.216010
    23  C   -0.009287
    24  N   -0.398649
    25  C    0.036502
    26  C   -0.083070
    27  C   -0.076620
    28  C    0.060754
    29  C    0.027352
    30  C   -0.005992
    31  C   -0.051476
    32  N   -0.527494
    33  C    0.158669
    34  C   -0.163681
    35  C   -0.041803
    36  C    0.162039
    37  C    0.081445
    38  C    0.128634
    39  O   -0.198800
    40  C   -0.130056
    41  C    0.252126
    42  O   -0.286940
    43  O   -0.341671
    44  C    0.147880
    45  H   -0.001392
    46  H    0.023000
    47  H   -0.006073
    48  H    0.039101
    49  H    0.035217
    50  H    0.033056
    51  H    0.038286
    52  H    0.025641
    53  H    0.023417
    54  H    0.069093
    55  H    0.048281
    56  H    0.037533
    57  H    0.022370
    58  H    0.055805
    59  H    0.037952
    60  H    0.076530
    61  H    0.034994
    62  H    0.053206
    63  H    0.040858
    64  H    0.042975
    65  H    0.048274
    66  H    0.047180
    67  H    0.024237
    68  H    0.039491
    69  H    0.022281
    70  H    0.040679
    71  H    0.045487
    72  H    0.042430
    73  H    0.065286
    74  H    0.051816
    75  H    0.044413
    76  H    0.067523
    77  H    0.057668
    78  H    0.052424
    79  H    0.073035
    80  Mg   0.942456
    81  C   -0.051981
    82  C   -0.101219
    83  C   -0.067658
    84  C   -0.090870
    85  N   -0.320502
    86  C    0.052353
    87  C   -0.094485
    88  C   -0.080774
    89  C   -0.005870
    90  C    0.041948
    91  C   -0.020869
    92  C   -0.113896
    93  H    0.029580
    94  N   -0.428188
    95  C    0.194938
    96  C   -0.167282
    97  C   -0.071094
    98  C    0.113815
    99  C    0.058743
   100  C    0.067062
   101  O   -0.250752
   102  C   -0.004377
   103  N   -0.356315
   104  C    0.033227
   105  C   -0.062140
   106  C   -0.056348
   107  C    0.068551
   108  C    0.048389
   109  C   -0.039084
   110  C   -0.040877
   111  N   -0.439454
   112  C    0.135363
   113  C   -0.196833
   114  C   -0.015713
   115  C    0.167463
   116  C    0.061225
   117  C    0.109491
   118  O   -0.199646
   119  C   -0.077097
   120  C    0.279485
   121  O   -0.226464
   122  O   -0.373846
   123  C    0.131605
   124  H   -0.012476
   125  H    0.026176
   126  H   -0.012822
   127  H    0.024503
   128  H    0.020064
   129  H    0.029317
   130  H    0.045910
   131  H    0.057430
   132  H    0.021568
   133  H    0.024541
   134  H    0.065215
   135  H    0.071806
   136  H    0.043688
   137  H    0.040960
   138  H    0.041478
   139  H    0.037725
   140  H    0.075220
   141  H    0.054613
   142  H    0.039213
   143  H    0.033359
   144  H    0.015973
   145  H    0.046712
   146  H    0.047926
   147  H    0.025308
   148  H    0.022975
   149  H    0.043233
   150  H    0.039869
   151  H    0.045446
   152  H    0.060032
   153  H    0.054189
   154  H    0.037959
   155  H    0.081395
   156  H    0.047544
   157  H    0.063826
   158  H    0.058064
 Sum of Mulliken charges =  -0.00000

 Dipole moment (field-independent basis, Debye):
    X=             -4.4402    Y=             -1.1709    Z=              7.3067  Tot=              8.6299
 Quadrupole moment (field-independent basis, Debye-Ang):
   XX=           -493.4945   YY=           -494.8535   ZZ=           -483.8199
   XY=            -34.4851   XZ=              2.7585   YZ=             52.2722

 Normal termination of Gaussian 16 at Sun Sep 19 09:20:02 2021.
