 Gaussian 16, Revision A.03,
 Gaussian 16:  ES64L-G16RevA.03 25-Dec-2016

 --------------------------------
 #p wB97XD/Def2SVP td=(nstates=5)
 --------------------------------

 --------------------------------
 TDDFT excited states in gaussian
 --------------------------------
 Symbolic Z-matrix:
 Charge =  0 Multiplicity = 1

                         Standard orientation:
 ---------------------------------------------------------------------
 Center     Atomic      Atomic             Coordinates (Angstroms)
 Number     Number       Type             X           Y           Z
 ---------------------------------------------------------------------
      1         12           0        4.969279   -0.701703   -0.233182
      2          6           0        3.157149    2.197825   -1.292021
      3          6           0        7.833737    1.055755   -0.824187
      4          6           0        6.587657   -3.383965    0.259713
      5          6           0        2.068306   -2.544408   -0.811504
      6          7           0        5.321054    1.358642   -0.962482
      7          6           0        4.540674    2.388199   -1.275838
      8          6           0        5.328712    3.711223   -1.512429
      9          6           0        6.748280    3.093859   -1.894121
     10          6           0        6.644866    1.771589   -1.154640
     11          6           0        6.909219    2.811883   -3.384453
     12          6           0        5.415348    4.590875   -0.219975
     13          6           0        5.878319    6.033772   -0.441467
     14          1           0        5.302389    7.087899    0.379793
     15          7           0        6.877373   -0.987068    0.191780
     16          6           0        7.906680   -0.159270   -0.109160
     17          6           0        9.123655   -0.814267    0.416796
     18          6           0        8.742789   -2.177747    0.879352
     19          6           0        7.375095   -2.248070    0.432311
     20          6           0       10.457471   -0.136339    0.488199
     21          6           0        9.495655   -3.251542    1.599274
     22          8           0        9.049203   -4.445418    1.698860
     23          6           0       10.827536   -2.887023    2.115277
     24          7           0        4.484841   -2.717586   -0.476425
     25          6           0        5.347484   -3.680751   -0.134160
     26          6           0        4.687584   -5.027758   -0.127800
     27          6           0        3.124022   -4.754859   -0.302596
     28          6           0        3.170330   -3.216004   -0.470077
     29          6           0        5.158538   -6.008846   -1.210242
     30          6           0        2.181516   -5.351751    0.772495
     31          6           0        2.414578   -4.663222    2.098658
     32          7           0        2.910024   -0.258254   -0.756506
     33          6           0        1.876300   -1.181921   -0.968466
     34          6           0        0.695207   -0.415505   -1.406292
     35          6           0        1.131510    0.907626   -1.434751
     36          6           0        2.505826    0.961218   -1.065055
     37          6           0       -0.565370   -0.964213   -1.772760
     38          6           0        0.763149    2.285842   -1.715263
     39          8           0       -0.291613    2.865074   -1.978815
     40          6           0        2.092245    3.162191   -1.751934
     41          6           0        1.849423    4.391208   -0.918949
     42          8           0        1.691491    4.306073    0.316031
     43          8           0        2.076425    5.484535   -1.663024
     44          6           0        1.881870    6.738862   -0.887804
     45          1           0        8.792101    1.424277   -1.195229
     46          1           0        7.077349   -4.322715    0.526897
     47          1           0        1.104000   -3.042241   -0.928677
     48          1           0        4.955135    4.321939   -2.334555
     49          1           0        7.570704    3.687591   -1.495597
     50          1           0        5.972825    2.961795   -3.921681
     51          1           0        7.223906    1.770250   -3.451275
     52          1           0        7.726474    3.399283   -3.803776
     53          1           0        6.229968    4.228861    0.407241
     54          1           0        4.461268    4.595438    0.308265
     55          1           0        5.839784    6.307252   -1.496281
     56          1           0        6.935606    6.096586   -0.183784
     57          1           0       10.463912    0.795334   -0.076150
     58          1           0       11.168074   -0.775807   -0.035092
     59          1           0       10.786617    0.014525    1.516418
     60          1           0       11.457145   -2.560239    1.287416
     61          1           0       11.179114   -3.751413    2.677481
     62          1           0       10.725825   -2.028950    2.780345
     63          1           0        4.856991   -5.541750    0.817472
     64          1           0        2.741743   -5.153879   -1.242447
     65          1           0        5.535256   -6.951606   -0.812759
     66          1           0        5.915854   -5.507947   -1.812624
     67          1           0        4.409452   -6.253005   -1.963020
     68          1           0        2.395135   -6.410031    0.918631
     69          1           0        1.125512   -5.258532    0.518691
     70          1           0        3.268548   -5.202956    2.506401
     71          1           0        1.540861   -4.771450    2.742176
     72          1           0        2.720465   -3.626017    1.960366
     73          1           0       -1.320671   -0.328093   -1.311413
     74          1           0       -0.659751   -1.997235   -1.438753
     75          1           0       -0.514721   -0.879275   -2.858153
     76          1           0        2.277981    3.406352   -2.797405
     77          1           0        1.150485    7.339975   -1.428150
     78          1           0        2.873337    7.165385   -0.734586
     79          1           0        1.389277    6.636060    0.079731
     80         12           0       -4.956048   -0.585516    0.208314
     81          6           0       -2.856504    2.020258    0.964379
     82          6           0       -7.518177    1.665231   -0.148130
     83          6           0       -7.118450   -3.216570   -0.447219
     84          6           0       -2.449633   -2.842281    1.011596
     85          7           0       -5.205921    1.632864    0.434847
     86          6           0       -4.146229    2.463063    0.665603
     87          6           0       -4.560311    3.854468    0.648243
     88          6           0       -6.074121    3.825784    0.508317
     89          6           0       -6.338585    2.273909    0.276990
     90          6           0       -6.950204    4.415561    1.667015
     91          6           0       -3.835023    4.661092   -0.482175
     92          6           0       -3.525062    6.170660   -0.193907
     93          1           0       -4.469562    6.911416    0.772961
     94          7           0       -7.018394   -0.709248   -0.348811
     95          6           0       -7.884759    0.365615   -0.451285
     96          6           0       -9.221331   -0.133476   -0.833338
     97          6           0       -9.118763   -1.587879   -0.933282
     98          6           0       -7.718811   -1.901808   -0.598462
     99          6           0      -10.448196    0.742335   -1.028462
    100          6           0      -10.175772   -2.555391   -1.412302
    101          8           0       -9.889857   -3.761628   -1.510731
    102          6           0      -11.570871   -2.183791   -1.750932
    103          7           0       -4.844387   -2.731178    0.343151
    104          6           0       -5.834801   -3.546470   -0.030389
    105          6           0       -5.364043   -5.010402   -0.033927
    106          6           0       -3.757454   -4.921397    0.193402
    107          6           0       -3.662346   -3.377282    0.456901
    108          6           0       -6.129538   -5.856266    1.029794
    109          6           0       -2.885954   -5.326786   -1.026827
    110          6           0       -2.072465   -6.619491   -0.863930
    111          7           0       -3.038798   -0.491059    0.929082
    112          6           0       -2.119934   -1.498837    1.230913
    113          6           0       -0.845509   -0.904806    1.692119
    114          6           0       -1.141252    0.476003    1.604243
    115          6           0       -2.473153    0.670729    1.150191
    116          6           0        0.383406   -1.578256    2.060545
    117          6           0       -0.534832    1.818443    1.719393
    118          8           0        0.586033    2.169540    1.976559
    119          6           0       -1.646814    2.863009    1.347832
    120          6           0       -1.763813    3.829772    2.451213
    121          8           0       -2.273363    3.489419    3.531049
    122          8           0       -1.408837    5.105593    2.135870
    123          6           0       -1.682329    6.167763    3.098757
    124          1           0       -8.311648    2.407812   -0.255118
    125          1           0       -7.823436   -4.032596   -0.620534
    126          1           0       -1.656180   -3.583170    1.128935
    127          1           0       -4.298783    4.292394    1.612148
    128          1           0       -6.392103    4.240870   -0.448787
    129          1           0       -6.504038    4.869961    2.552234
    130          1           0       -7.613685    3.625671    2.018253
    131          1           0       -7.678031    5.153416    1.328567
    132          1           0       -4.375420    4.540939   -1.421206
    133          1           0       -2.938628    4.117437   -0.779939
    134          1           0       -3.501469    6.731456   -1.128707
    135          1           0       -2.579504    6.317607    0.327200
    136          1           0      -10.228568    1.808660   -0.988105
    137          1           0      -11.181600    0.571541   -0.239894
    138          1           0      -10.811709    0.653003   -2.052015
    139          1           0      -12.040740   -3.085340   -2.142881
    140          1           0      -11.642111   -1.375102   -2.479465
    141          1           0      -12.058900   -1.766706   -0.869875
    142          1           0       -5.481208   -5.375703   -1.054268
    143          1           0       -3.432780   -5.448628    1.090393
    144          1           0       -6.533203   -6.788717    0.634992
    145          1           0       -6.973870   -5.297832    1.434889
    146          1           0       -5.398767   -5.998902    1.826219
    147          1           0       -2.166185   -4.561616   -1.315187
    148          1           0       -3.484937   -5.455639   -1.928602
    149          1           0       -2.583262   -7.283713   -0.166702
    150          1           0       -1.104997   -6.354983   -0.438314
    151          1           0       -1.898784   -7.005154   -1.867675
    152          1           0        1.251523   -0.920238    2.028970
    153          1           0        0.601664   -2.447214    1.440068
    154          1           0        0.334383   -1.790182    3.128720
    155          1           0       -1.228166    3.291545    0.436599
    156          1           0       -1.108510    6.094045    4.022956
    157          1           0       -2.752577    6.262888    3.281876
    158          1           0       -1.369699    7.124580    2.680881
 ---------------------------------------------------------------------

 SCF Done:  E(RwB97XD) =  -4070.67569661     A.U. after   20 cycles

 Excitation energies and oscillator strengths:

 Excited State   1:      Singlet-A      1.5724 eV  788.51 nm  f=0.8643  <S**2>=0.000
     309 -> 315        0.14583
     311 -> 313        0.59222
     312 -> 313       -0.11314
     312 -> 314        0.31608
 This state for optimization and/or second-order correction.
 Total Energy, E(TD-HF/TD-DFT) =  -4070.61791276
 Copying the excited state density for this state as the 1-particle RhoCI density.

 Excited State   2:      Singlet-A      1.6875 eV  734.72 nm  f=0.0801  <S**2>=0.000
     310 -> 316       -0.17214
     311 -> 313       -0.32795
     312 -> 314        0.59116
     310 <- 316       -0.10273

 Excited State   3:      Singlet-A      2.1206 eV  584.68 nm  f=0.0529  <S**2>=0.000
     309 -> 313        0.62202
     310 -> 314       -0.11422
     311 -> 315       -0.26319

 Excited State   4:      Singlet-A      2.1857 eV  567.25 nm  f=0.0955  <S**2>=0.000
     309 -> 313        0.12426
     310 -> 314        0.60292
     312 -> 316        0.30302

 Excited State   5:      Singlet-A      2.4704 eV  501.87 nm  f=0.0034  <S**2>=0.000
     312 -> 313        0.68417
     312 -> 314        0.10623

 The electronic state is 1-A.
 Alpha  occ. eigenvalues --  -46.94609 -46.94025 -19.31297 -19.30053 -19.23830
 Alpha  occ. eigenvalues --  -19.23667 -19.23568 -19.23125 -19.22943 -19.22724
 Alpha  occ. eigenvalues --  -14.46944 -14.46012 -14.45855 -14.45657 -14.43947
 Alpha  occ. eigenvalues --  -14.43544 -14.43219 -14.43072 -10.42556 -10.42248
 Alpha  occ. eigenvalues --  -10.39375 -10.38726 -10.38476 -10.37489 -10.35381
 Alpha  occ. eigenvalues --  -10.35366 -10.35271 -10.34798 -10.34555 -10.34500
 Alpha  occ. eigenvalues --  -10.34497 -10.34192 -10.34130 -10.33964 -10.33874
 Alpha  occ. eigenvalues --  -10.33782 -10.33613 -10.33607 -10.33448 -10.33401
 Alpha  occ. eigenvalues --  -10.33141 -10.32793 -10.32689 -10.32396 -10.32328
 Alpha  occ. eigenvalues --  -10.32227 -10.32051 -10.31925 -10.31828 -10.31772
 Alpha  occ. eigenvalues --  -10.31720 -10.31720 -10.31655 -10.31648 -10.31567
 Alpha  occ. eigenvalues --  -10.31521 -10.31397 -10.31367 -10.31161 -10.31109
 Alpha  occ. eigenvalues --  -10.31101 -10.31098 -10.30864 -10.30551 -10.30429
 Alpha  occ. eigenvalues --  -10.30425 -10.30356 -10.30325 -10.30213 -10.30151
 Alpha  occ. eigenvalues --  -10.30008 -10.29995 -10.29964 -10.29926 -10.29580
 Alpha  occ. eigenvalues --  -10.29515 -10.29325 -10.29302 -10.29289 -10.29266
 Alpha  occ. eigenvalues --  -10.29144 -10.29065 -10.28764 -10.28755 -10.28693
 Alpha  occ. eigenvalues --  -10.28546  -3.20487  -3.20189  -1.94097  -1.93764
 Alpha  occ. eigenvalues --   -1.93592  -1.93463  -1.93332  -1.93170  -1.18600
 Alpha  occ. eigenvalues --   -1.17471  -1.11743  -1.11258  -1.10677  -1.09377
 Alpha  occ. eigenvalues --   -1.08473  -1.08186  -1.06476  -1.06407  -1.05714
 Alpha  occ. eigenvalues --   -1.05490  -1.05189  -1.04825  -1.04357  -1.02426
 Alpha  occ. eigenvalues --   -0.93857  -0.93434  -0.91464  -0.90943  -0.90204
 Alpha  occ. eigenvalues --   -0.90103  -0.89827  -0.89635  -0.89530  -0.89170
 Alpha  occ. eigenvalues --   -0.89101  -0.88452  -0.88067  -0.87680  -0.86785
 Alpha  occ. eigenvalues --   -0.85874  -0.85058  -0.85017  -0.84870  -0.84489
 Alpha  occ. eigenvalues --   -0.83564  -0.83428  -0.83262  -0.82477  -0.82365
 Alpha  occ. eigenvalues --   -0.81828  -0.80689  -0.79817  -0.79106  -0.78771
 Alpha  occ. eigenvalues --   -0.78689  -0.78661  -0.77780  -0.77468  -0.76810
 Alpha  occ. eigenvalues --   -0.76303  -0.74663  -0.73942  -0.73577  -0.72855
 Alpha  occ. eigenvalues --   -0.71900  -0.70757  -0.70377  -0.70034  -0.69604
 Alpha  occ. eigenvalues --   -0.69174  -0.69063  -0.68320  -0.67134  -0.67028
 Alpha  occ. eigenvalues --   -0.66962  -0.66783  -0.66541  -0.66323  -0.66251
 Alpha  occ. eigenvalues --   -0.65644  -0.64193  -0.63848  -0.62403  -0.61651
 Alpha  occ. eigenvalues --   -0.61158  -0.60953  -0.60891  -0.60462  -0.60374
 Alpha  occ. eigenvalues --   -0.59719  -0.59583  -0.59421  -0.59198  -0.58603
 Alpha  occ. eigenvalues --   -0.58212  -0.57748  -0.57509  -0.57392  -0.57259
 Alpha  occ. eigenvalues --   -0.56877  -0.56775  -0.56418  -0.55721  -0.55695
 Alpha  occ. eigenvalues --   -0.55247  -0.55138  -0.55071  -0.54934  -0.54768
 Alpha  occ. eigenvalues --   -0.54691  -0.54531  -0.54451  -0.54213  -0.53879
 Alpha  occ. eigenvalues --   -0.53764  -0.53534  -0.53462  -0.53373  -0.53151
 Alpha  occ. eigenvalues --   -0.52704  -0.52483  -0.52204  -0.51977  -0.51889
 Alpha  occ. eigenvalues --   -0.51813  -0.51696  -0.51468  -0.51373  -0.51198
 Alpha  occ. eigenvalues --   -0.51034  -0.50874  -0.50582  -0.50518  -0.50463
 Alpha  occ. eigenvalues --   -0.50379  -0.50096  -0.49893  -0.49593  -0.49569
 Alpha  occ. eigenvalues --   -0.49472  -0.49187  -0.49075  -0.48843  -0.48776
 Alpha  occ. eigenvalues --   -0.48573  -0.48485  -0.48307  -0.48189  -0.48002
 Alpha  occ. eigenvalues --   -0.47812  -0.47639  -0.47584  -0.47205  -0.47073
 Alpha  occ. eigenvalues --   -0.47002  -0.46681  -0.46451  -0.46383  -0.46220
 Alpha  occ. eigenvalues --   -0.46042  -0.46027  -0.45950  -0.45865  -0.45818
 Alpha  occ. eigenvalues --   -0.45635  -0.45311  -0.45271  -0.45134  -0.45073
 Alpha  occ. eigenvalues --   -0.44911  -0.44776  -0.44548  -0.44484  -0.44427
 Alpha  occ. eigenvalues --   -0.44033  -0.43935  -0.43800  -0.43670  -0.43386
 Alpha  occ. eigenvalues --   -0.43327  -0.43118  -0.42980  -0.42811  -0.42781
 Alpha  occ. eigenvalues --   -0.42725  -0.42521  -0.42461  -0.42111  -0.42043
 Alpha  occ. eigenvalues --   -0.41979  -0.41675  -0.41487  -0.41199  -0.41105
 Alpha  occ. eigenvalues --   -0.40370  -0.39749  -0.39574  -0.39313  -0.39071
 Alpha  occ. eigenvalues --   -0.38724  -0.38563  -0.38375  -0.38065  -0.38000
 Alpha  occ. eigenvalues --   -0.37703  -0.37273  -0.36198  -0.35530  -0.35450
 Alpha  occ. eigenvalues --   -0.35080  -0.34936  -0.34567  -0.33285  -0.33135
 Alpha  occ. eigenvalues --   -0.32639  -0.32392  -0.32302  -0.31880  -0.31530
 Alpha  occ. eigenvalues --   -0.31214  -0.31204  -0.30892  -0.25910  -0.25124
 Alpha  occ. eigenvalues --   -0.22848  -0.22030
 Alpha virt. eigenvalues --   -0.07092  -0.06014   0.00217   0.00745   0.01992
 Alpha virt. eigenvalues --    0.03316   0.04112   0.05511   0.06478   0.06785
 Alpha virt. eigenvalues --    0.07180   0.07451   0.07781   0.08682   0.09113

 Mulliken charges:
               1
     1  Mg   0.979273
     2  C   -0.007005
     3  C   -0.101117
     4  C   -0.062145
     5  C   -0.070209
     6  N   -0.322978
     7  C   -0.012424
     8  C   -0.059302
     9  C   -0.138245
    10  C    0.063114
    11  C    0.058464
    12  C    0.013913
    13  C   -0.126451
    14  H    0.051682
    15  N   -0.518121
    16  C    0.184049
    17  C   -0.195655
    18  C   -0.036964
    19  C    0.167255
    20  C    0.060722
    21  C    0.056917
    22  O   -0.280191
    23  C    0.001503
    24  N   -0.410060
    25  C    0.067639
    26  C   -0.084908
    27  C   -0.059713
    28  C    0.085740
    29  C    0.032154
    30  C   -0.029762
    31  C   -0.061854
    32  N   -0.398162
    33  C    0.080000
    34  C   -0.190270
    35  C   -0.041602
    36  C    0.143304
    37  C    0.113194
    38  C    0.132619
    39  O   -0.237941
    40  C   -0.076332
    41  C    0.262184
    42  O   -0.259768
    43  O   -0.337022
    44  C    0.120833
    45  H    0.007717
    46  H    0.010449
    47  H   -0.020845
    48  H    0.025116
    49  H    0.022585
    50  H    0.046696
    51  H    0.037531
    52  H    0.039819
    53  H    0.035680
    54  H    0.072867
    55  H    0.037793
    56  H    0.040181
    57  H    0.029754
    58  H    0.048832
    59  H    0.062531
    60  H    0.057709
    61  H    0.061842
    62  H    0.053460
    63  H    0.042742
    64  H    0.034972
    65  H    0.045478
    66  H    0.034724
    67  H    0.025502
    68  H    0.034710
    69  H    0.033705
    70  H    0.032159
    71  H    0.041946
    72  H    0.055998
    73  H    0.078348
    74  H    0.025263
    75  H    0.063876
    76  H    0.063669
    77  H    0.056975
    78  H    0.062478
    79  H    0.071358
    80  Mg   0.946253
    81  C   -0.010660
    82  C   -0.086358
    83  C   -0.056795
    84  C   -0.085056
    85  N   -0.316840
    86  C   -0.009853
    87  C   -0.056673
    88  C   -0.039912
    89  C   -0.009622
    90  C    0.020995
    91  C    0.013634
    92  C   -0.112100
    93  H    0.007332
    94  N   -0.460641
    95  C    0.196231
    96  C   -0.169814
    97  C   -0.062566
    98  C    0.120137
    99  C    0.061306
   100  C    0.037858
   101  O   -0.264284
   102  C    0.013755
   103  N   -0.333685
   104  C    0.065646
   105  C   -0.091863
   106  C   -0.097258
   107  C    0.041185
   108  C    0.031549
   109  C   -0.013663
   110  C   -0.056272
   111  N   -0.446186
   112  C    0.116424
   113  C   -0.173216
   114  C   -0.044629
   115  C    0.124203
   116  C    0.103084
   117  C    0.087173
   118  O   -0.161410
   119  C   -0.032714
   120  C    0.279891
   121  O   -0.281706
   122  O   -0.345880
   123  C    0.145183
   124  H   -0.024605
   125  H    0.026238
   126  H   -0.011568
   127  H    0.044749
   128  H    0.033492
   129  H    0.048011
   130  H    0.029268
   131  H    0.024980
   132  H    0.017224
   133  H    0.049634
   134  H    0.052337
   135  H    0.064456
   136  H    0.025330
   137  H    0.062960
   138  H    0.050422
   139  H    0.062322
   140  H    0.041134
   141  H    0.052463
   142  H    0.039425
   143  H    0.036528
   144  H    0.046996
   145  H    0.046621
   146  H    0.028661
   147  H    0.026574
   148  H    0.026888
   149  H    0.042054
   150  H    0.029153
   151  H    0.040916
   152  H    0.052931
   153  H    0.023215
   154  H    0.052875
   155  H    0.078470
   156  H    0.064818
   157  H    0.050056
   158  H    0.042817
 Sum of Mulliken charges =  -0.00000

 Dipole moment (field-independent basis, Debye):
    X=              3.6241    Y=              3.7630    Z=             -3.3584  Tot=              6.2108
 Quadrupole moment (field-independent basis, Debye-Ang):
   XX=           -452.0696   YY=           -474.3733   ZZ=           -520.9146
   XY=              1.4860   XZ=             -6.6933   YZ=             -3.5221

 Normal termination of Gaussian 16 at Sun Sep 19 10:32:42 2021.
