 Gaussian 16, Revision A.03,
 Gaussian 16:  ES64L-G16RevA.03 25-Dec-2016

 --------------------------------
 #p wB97XD/Def2SVP td=(nstates=5)
 --------------------------------

 --------------------------------
 TDDFT excited states in gaussian
 --------------------------------
 Symbolic Z-matrix:
 Charge =  0 Multiplicity = 1

                         Standard orientation:
 ---------------------------------------------------------------------
 Center     Atomic      Atomic             Coordinates (Angstroms)
 Number     Number       Type             X           Y           Z
 ---------------------------------------------------------------------
      1         12           0        4.949706    0.609804   -0.029360
      2          6           0        2.613787   -1.995373    0.828153
      3          6           0        7.338271   -1.697548   -0.385280
      4          6           0        7.174130    3.114436    0.068142
      5          6           0        2.440133    2.897669    0.849263
      6          7           0        4.964580   -1.547478    0.249427
      7          6           0        3.886757   -2.435549    0.406008
      8          6           0        4.335430   -3.929252    0.177753
      9          6           0        5.854075   -3.778440   -0.139326
     10          6           0        6.068555   -2.241466   -0.149516
     11          6           0        6.825449   -4.477615    0.777509
     12          6           0        3.454649   -4.683033   -0.955945
     13          6           0        2.839500   -6.019938   -0.524173
     14          1           0        3.272324   -7.241276   -1.417680
     15          7           0        6.977635    0.703681   -0.283499
     16          6           0        7.806012   -0.337958   -0.409851
     17          6           0        9.199789    0.093336   -0.530143
     18          6           0        9.139037    1.510835   -0.297879
     19          6           0        7.720468    1.848652   -0.140950
     20          6           0       10.313931   -0.829679   -0.781061
     21          6           0       10.399156    2.419699   -0.146600
     22          8           0       10.311579    3.629017   -0.014605
     23          6           0       11.794061    1.881510   -0.177671
     24          7           0        4.807656    2.636085    0.383507
     25          6           0        5.883118    3.504615    0.231119
     26          6           0        5.437528    4.989899    0.434989
     27          6           0        3.869213    4.899192    0.332575
     28          6           0        3.670969    3.390233    0.474373
     29          6           0        6.024643    5.767057    1.657991
     30          6           0        3.287782    5.423544   -1.008942
     31          6           0        2.001679    6.210282   -0.982465
     32          7           0        2.951776    0.512925    0.741202
     33          6           0        2.080605    1.521702    1.040190
     34          6           0        0.719423    0.908528    1.365807
     35          6           0        0.873049   -0.451388    1.244334
     36          6           0        2.262014   -0.649118    0.932977
     37          6           0       -0.510797    1.745419    1.633422
     38          6           0        0.249830   -1.758479    1.352095
     39          8           0       -0.950703   -1.939120    1.644652
     40          6           0        1.428937   -2.888067    1.168616
     41          6           0        1.729911   -3.699317    2.411530
     42          8           0        2.008711   -3.137463    3.489233
     43          8           0        1.479561   -5.060832    2.235423
     44          6           0        1.356934   -5.769312    3.504114
     45          1           0        8.140405   -2.398754   -0.623876
     46          1           0        7.957701    3.873103    0.020937
     47          1           0        1.679937    3.669782    0.988302
     48          1           0        4.129700   -4.384752    1.146210
     49          1           0        5.997724   -4.343134   -1.061539
     50          1           0        6.339888   -4.986730    1.610164
     51          1           0        7.297669   -3.605939    1.229327
     52          1           0        7.447909   -5.213099    0.267002
     53          1           0        4.167620   -4.801416   -1.771410
     54          1           0        2.708296   -3.989620   -1.342635
     55          1           0        1.760675   -5.868176   -0.489492
     56          1           0        3.171108   -6.255373    0.487926
     57          1           0       11.162099   -0.862611   -0.097941
     58          1           0       10.830602   -0.399782   -1.638409
     59          1           0       10.032430   -1.816708   -1.148636
     60          1           0       11.898501    1.426969   -1.163585
     61          1           0       11.830163    1.072882    0.552878
     62          1           0       12.441166    2.730947    0.037380
     63          1           0        5.809496    5.492389   -0.457929
     64          1           0        3.361698    5.340254    1.190152
     65          1           0        6.773594    5.089741    2.067749
     66          1           0        5.278374    6.094543    2.381262
     67          1           0        6.645230    6.609350    1.349696
     68          1           0        3.151535    4.456698   -1.493066
     69          1           0        3.990077    5.987658   -1.623006
     70          1           0        2.152990    7.038961   -1.674298
     71          1           0        1.785531    6.645672   -0.006322
     72          1           0        1.256847    5.578166   -1.466578
     73          1           0       -0.204090    2.790102    1.585052
     74          1           0       -0.819780    1.571790    2.663948
     75          1           0       -1.305880    1.456705    0.946269
     76          1           0        1.168133   -3.518238    0.318336
     77          1           0        0.356274   -6.126367    3.743628
     78          1           0        1.715736   -5.206076    4.365700
     79          1           0        2.006126   -6.641030    3.426026
     80         12           0       -5.023771    0.631675   -0.402055
     81          6           0       -2.788794   -1.981340   -1.088929
     82          6           0       -7.442816   -1.736212    0.226868
     83          6           0       -7.116933    3.108923    0.209171
     84          6           0       -2.474196    2.900582   -1.235376
     85          7           0       -5.021095   -1.583238   -0.362246
     86          6           0       -4.012429   -2.487749   -0.694610
     87          6           0       -4.335341   -3.970827   -0.258870
     88          6           0       -5.824192   -3.820347   -0.013136
     89          6           0       -6.140002   -2.267826   -0.039365
     90          6           0       -6.662922   -4.487613   -1.197428
     91          6           0       -3.553753   -4.146926    1.118130
     92          6           0       -2.807096   -5.532622    1.355723
     93          1           0       -3.578768   -6.644876    0.692790
     94          7           0       -6.987071    0.666137   -0.014479
     95          6           0       -7.807625   -0.358691    0.198886
     96          6           0       -9.141342    0.060844    0.539277
     97          6           0       -9.049023    1.454757    0.722763
     98          6           0       -7.666637    1.825688    0.237203
     99          6           0      -10.314820   -0.826984    0.737810
    100          6           0      -10.023365    2.430528    1.349817
    101          8           0       -9.706784    3.580947    1.673412
    102          6           0      -11.496523    2.043583    1.506888
    103          7           0       -4.810478    2.737150   -0.555774
    104          6           0       -5.872207    3.511896   -0.152100
    105          6           0       -5.419372    4.969985   -0.116191
    106          6           0       -3.854363    4.913865   -0.472427
    107          6           0       -3.648041    3.442397   -0.718502
    108          6           0       -6.346965    5.838479   -1.037557
    109          6           0       -2.895845    5.524023    0.538196
    110          6           0       -1.906653    6.560959   -0.080217
    111          7           0       -3.052272    0.495081   -1.053520
    112          6           0       -2.119206    1.528684   -1.380151
    113          6           0       -0.892476    0.965883   -1.819322
    114          6           0       -1.129855   -0.414734   -1.710791
    115          6           0       -2.461129   -0.623248   -1.294528
    116          6           0        0.383473    1.617396   -2.245847
    117          6           0       -0.552210   -1.710652   -1.871687
    118          8           0        0.529226   -2.085338   -2.260080
    119          6           0       -1.585882   -2.755616   -1.364392
    120          6           0       -1.699920   -3.845948   -2.366953
    121          8           0       -2.215832   -3.790382   -3.479688
    122          8           0       -1.178046   -4.941628   -1.807018
    123          6           0       -1.252706   -6.168455   -2.572315
    124          1           0       -8.256665   -2.370640    0.583721
    125          1           0       -7.861587    3.882156    0.414174
    126          1           0       -1.635229    3.568006   -1.443378
    127          1           0       -3.897434   -4.592695   -1.039039
    128          1           0       -6.087651   -4.227190    0.962594
    129          1           0       -6.023910   -4.904139   -1.976312
    130          1           0       -7.303528   -3.722369   -1.635326
    131          1           0       -7.260223   -5.250896   -0.698577
    132          1           0       -4.194060   -4.041580    1.993421
    133          1           0       -2.848548   -3.317152    1.172412
    134          1           0       -2.878548   -5.831615    2.401541
    135          1           0       -1.730844   -5.437693    1.209298
    136          1           0      -10.559870   -0.782853    1.799865
    137          1           0      -10.076865   -1.861942    0.496147
    138          1           0      -11.186849   -0.528104    0.156902
    139          1           0      -11.932892    3.036241    1.615448
    140          1           0      -11.693627    1.382456    2.351611
    141          1           0      -12.002774    1.636745    0.631712
    142          1           0       -5.502732    5.466571    0.850490
    143          1           0       -3.702426    5.424253   -1.423578
    144          1           0       -6.590629    6.726393   -0.454065
    145          1           0       -7.234842    5.315010   -1.392318
    146          1           0       -5.776205    6.316728   -1.834428
    147          1           0       -2.309151    4.795091    1.096376
    148          1           0       -3.537220    6.148146    1.162062
    149          1           0       -2.155594    6.756724   -1.123323
    150          1           0       -0.902840    6.148855   -0.181311
    151          1           0       -1.922066    7.501304    0.471182
    152          1           0        0.782217    1.947804   -1.286316
    153          1           0        0.111974    2.388010   -2.966998
    154          1           0        1.097376    0.906417   -2.659339
    155          1           0       -1.084091   -3.199596   -0.503597
    156          1           0       -0.818393   -6.017359   -3.560963
    157          1           0       -2.250215   -6.545559   -2.800369
    158          1           0       -0.672307   -6.905627   -2.017212
 ---------------------------------------------------------------------

 SCF Done:  E(RwB97XD) =  -4070.65642301     A.U. after   19 cycles

 Excitation energies and oscillator strengths:

 Excited State   1:      Singlet-A      1.5794 eV  784.99 nm  f=0.9105  <S**2>=0.000
     309 -> 316        0.11749
     311 -> 313        0.32751
     311 -> 314        0.10004
     312 -> 313       -0.28804
     312 -> 314        0.52393
 This state for optimization and/or second-order correction.
 Total Energy, E(TD-HF/TD-DFT) =  -4070.59837999
 Copying the excited state density for this state as the 1-particle RhoCI density.

 Excited State   2:      Singlet-A      1.6933 eV  732.19 nm  f=0.0668  <S**2>=0.000
     309 -> 315        0.10670
     311 -> 313        0.49486
     311 -> 314        0.32411
     312 -> 313        0.26090
     312 -> 314       -0.22407

 Excited State   3:      Singlet-A      2.1913 eV  565.80 nm  f=0.0062  <S**2>=0.000
     309 -> 314       -0.41904
     310 -> 313        0.47982
     311 -> 315        0.18804
     312 -> 316        0.19529

 Excited State   4:      Singlet-A      2.2238 eV  557.54 nm  f=0.1728  <S**2>=0.000
     309 -> 313        0.42791
     309 -> 314       -0.15184
     310 -> 313       -0.12987
     310 -> 314       -0.41984
     311 -> 315       -0.17418
     312 -> 316        0.21037

 Excited State   5:      Singlet-A      2.5516 eV  485.91 nm  f=0.0001  <S**2>=0.000
     311 -> 313       -0.33961
     311 -> 314        0.59495
     311 -> 317        0.12380

 The electronic state is 1-A.
 Alpha  occ. eigenvalues --  -46.94407 -46.93808 -19.32020 -19.30464 -19.25801
 Alpha  occ. eigenvalues --  -19.25589 -19.24851 -19.23593 -19.23330 -19.22786
 Alpha  occ. eigenvalues --  -14.46814 -14.46506 -14.45988 -14.45965 -14.44617
 Alpha  occ. eigenvalues --  -14.44018 -14.43657 -14.42802 -10.44679 -10.41979
 Alpha  occ. eigenvalues --  -10.40909 -10.40114 -10.38659 -10.37248 -10.35682
 Alpha  occ. eigenvalues --  -10.35575 -10.35255 -10.34997 -10.34995 -10.34634
 Alpha  occ. eigenvalues --  -10.34592 -10.34548 -10.34477 -10.34138 -10.33957
 Alpha  occ. eigenvalues --  -10.33904 -10.33835 -10.33792 -10.33538 -10.33229
 Alpha  occ. eigenvalues --  -10.33152 -10.32868 -10.32839 -10.32587 -10.32353
 Alpha  occ. eigenvalues --  -10.32115 -10.32067 -10.32046 -10.31994 -10.31869
 Alpha  occ. eigenvalues --  -10.31816 -10.31748 -10.31654 -10.31475 -10.31406
 Alpha  occ. eigenvalues --  -10.31355 -10.31297 -10.31257 -10.31135 -10.31066
 Alpha  occ. eigenvalues --  -10.30973 -10.30924 -10.30769 -10.30706 -10.30440
 Alpha  occ. eigenvalues --  -10.30405 -10.30340 -10.30184 -10.30166 -10.30086
 Alpha  occ. eigenvalues --  -10.29811 -10.29786 -10.29755 -10.29711 -10.29610
 Alpha  occ. eigenvalues --  -10.29570 -10.29515 -10.29504 -10.29479 -10.29381
 Alpha  occ. eigenvalues --  -10.29361 -10.29240 -10.29210 -10.28979 -10.28959
 Alpha  occ. eigenvalues --  -10.27344  -3.20480  -3.19933  -1.94051  -1.93590
 Alpha  occ. eigenvalues --   -1.93538  -1.93482  -1.93041  -1.92940  -1.19205
 Alpha  occ. eigenvalues --   -1.18564  -1.12467  -1.12089  -1.11951  -1.11782
 Alpha  occ. eigenvalues --   -1.10185  -1.09139  -1.06871  -1.05647  -1.05629
 Alpha  occ. eigenvalues --   -1.05065  -1.04606  -1.04333  -1.04068  -1.03593
 Alpha  occ. eigenvalues --   -0.94359  -0.94260  -0.91429  -0.90837  -0.90262
 Alpha  occ. eigenvalues --   -0.90098  -0.89753  -0.89708  -0.89567  -0.88997
 Alpha  occ. eigenvalues --   -0.88912  -0.88667  -0.88353  -0.87733  -0.85786
 Alpha  occ. eigenvalues --   -0.85557  -0.85447  -0.85211  -0.84376  -0.84052
 Alpha  occ. eigenvalues --   -0.83603  -0.83500  -0.82883  -0.82828  -0.81969
 Alpha  occ. eigenvalues --   -0.81857  -0.80714  -0.80127  -0.79433  -0.79181
 Alpha  occ. eigenvalues --   -0.78544  -0.78293  -0.77877  -0.77177  -0.76620
 Alpha  occ. eigenvalues --   -0.76354  -0.74831  -0.74164  -0.73142  -0.72707
 Alpha  occ. eigenvalues --   -0.70981  -0.70876  -0.70608  -0.70187  -0.69385
 Alpha  occ. eigenvalues --   -0.69204  -0.68571  -0.68331  -0.67137  -0.67036
 Alpha  occ. eigenvalues --   -0.66867  -0.66708  -0.66689  -0.66521  -0.66147
 Alpha  occ. eigenvalues --   -0.66131  -0.64490  -0.64281  -0.62650  -0.62044
 Alpha  occ. eigenvalues --   -0.61529  -0.61300  -0.60934  -0.60763  -0.60266
 Alpha  occ. eigenvalues --   -0.60204  -0.60169  -0.59534  -0.59182  -0.58944
 Alpha  occ. eigenvalues --   -0.58479  -0.57995  -0.57444  -0.57286  -0.57072
 Alpha  occ. eigenvalues --   -0.56953  -0.56711  -0.56255  -0.55689  -0.55553
 Alpha  occ. eigenvalues --   -0.55275  -0.55224  -0.55022  -0.54934  -0.54381
 Alpha  occ. eigenvalues --   -0.54309  -0.54225  -0.54135  -0.54050  -0.53800
 Alpha  occ. eigenvalues --   -0.53532  -0.53309  -0.53234  -0.53090  -0.52990
 Alpha  occ. eigenvalues --   -0.52840  -0.52520  -0.52432  -0.52269  -0.52175
 Alpha  occ. eigenvalues --   -0.52066  -0.51891  -0.51844  -0.51546  -0.51379
 Alpha  occ. eigenvalues --   -0.50831  -0.50735  -0.50573  -0.50534  -0.50404
 Alpha  occ. eigenvalues --   -0.50333  -0.50262  -0.50137  -0.49990  -0.49882
 Alpha  occ. eigenvalues --   -0.49758  -0.49487  -0.49421  -0.49274  -0.49136
 Alpha  occ. eigenvalues --   -0.48796  -0.48755  -0.48536  -0.48372  -0.48253
 Alpha  occ. eigenvalues --   -0.47998  -0.47813  -0.47704  -0.47604  -0.47552
 Alpha  occ. eigenvalues --   -0.47301  -0.47051  -0.46947  -0.46778  -0.46520
 Alpha  occ. eigenvalues --   -0.46389  -0.46294  -0.46159  -0.46072  -0.45998
 Alpha  occ. eigenvalues --   -0.45752  -0.45623  -0.45490  -0.45477  -0.45438
 Alpha  occ. eigenvalues --   -0.45337  -0.45081  -0.44759  -0.44702  -0.44651
 Alpha  occ. eigenvalues --   -0.44637  -0.44185  -0.44132  -0.44023  -0.43616
 Alpha  occ. eigenvalues --   -0.43494  -0.43358  -0.43023  -0.42930  -0.42623
 Alpha  occ. eigenvalues --   -0.42503  -0.42430  -0.42349  -0.42148  -0.41737
 Alpha  occ. eigenvalues --   -0.41688  -0.41055  -0.41027  -0.40782  -0.40069
 Alpha  occ. eigenvalues --   -0.39941  -0.39800  -0.39567  -0.39353  -0.39116
 Alpha  occ. eigenvalues --   -0.39098  -0.39020  -0.38329  -0.38138  -0.38041
 Alpha  occ. eigenvalues --   -0.38006  -0.37643  -0.37008  -0.36149  -0.35952
 Alpha  occ. eigenvalues --   -0.35657  -0.34878  -0.34776  -0.34133  -0.33863
 Alpha  occ. eigenvalues --   -0.33381  -0.33367  -0.32804  -0.32406  -0.32371
 Alpha  occ. eigenvalues --   -0.31723  -0.31686  -0.31111  -0.25897  -0.25598
 Alpha  occ. eigenvalues --   -0.22664  -0.22277
 Alpha virt. eigenvalues --   -0.06812  -0.06488   0.00437   0.00930   0.01602
 Alpha virt. eigenvalues --    0.02902   0.04432   0.04847   0.05250   0.05708
 Alpha virt. eigenvalues --    0.07092   0.07476   0.08346   0.08387   0.08717

 Mulliken charges:
               1
     1  Mg   0.977725
     2  C   -0.081086
     3  C   -0.080513
     4  C   -0.090222
     5  C   -0.097302
     6  N   -0.372650
     7  C   -0.004623
     8  C   -0.076800
     9  C   -0.106540
    10  C    0.107924
    11  C    0.024695
    12  C   -0.001801
    13  C   -0.116425
    14  H    0.020468
    15  N   -0.454489
    16  C    0.114737
    17  C   -0.149305
    18  C   -0.076539
    19  C    0.118960
    20  C    0.069184
    21  C    0.031305
    22  O   -0.238814
    23  C    0.012103
    24  N   -0.401699
    25  C    0.096485
    26  C   -0.058816
    27  C   -0.103651
    28  C    0.062453
    29  C    0.035271
    30  C   -0.007509
    31  C   -0.040558
    32  N   -0.386133
    33  C    0.133357
    34  C   -0.244522
    35  C    0.050812
    36  C    0.156023
    37  C    0.095909
    38  C    0.137961
    39  O   -0.223688
    40  C   -0.030839
    41  C    0.292523
    42  O   -0.255716
    43  O   -0.365599
    44  C    0.120769
    45  H   -0.013979
    46  H    0.015501
    47  H   -0.008172
    48  H    0.037199
    49  H    0.035363
    50  H    0.027593
    51  H    0.040040
    52  H    0.042340
    53  H    0.030521
    54  H    0.065436
    55  H    0.071477
    56  H    0.048946
    57  H    0.046269
    58  H    0.028355
    59  H    0.043209
    60  H    0.049474
    61  H    0.051761
    62  H    0.067171
    63  H    0.030788
    64  H    0.028349
    65  H    0.038772
    66  H    0.044611
    67  H    0.035131
    68  H    0.030948
    69  H    0.033754
    70  H    0.029651
    71  H    0.046554
    72  H    0.047098
    73  H    0.017718
    74  H    0.051161
    75  H    0.095795
    76  H    0.065145
    77  H    0.059457
    78  H    0.072345
    79  H    0.046334
    80  Mg   0.982096
    81  C    0.045405
    82  C   -0.112454
    83  C   -0.078084
    84  C   -0.071259
    85  N   -0.350860
    86  C   -0.053333
    87  C   -0.053095
    88  C   -0.095409
    89  C    0.100617
    90  C    0.023306
    91  C   -0.004634
    92  C   -0.115042
    93  H    0.020199
    94  N   -0.465702
    95  C    0.154410
    96  C   -0.173511
    97  C   -0.070649
    98  C    0.139709
    99  C    0.077638
   100  C    0.063033
   101  O   -0.243627
   102  C   -0.045446
   103  N   -0.390370
   104  C    0.118335
   105  C   -0.106727
   106  C   -0.047001
   107  C    0.074936
   108  C    0.010255
   109  C   -0.000388
   110  C   -0.069484
   111  N   -0.413850
   112  C    0.044482
   113  C   -0.196781
   114  C   -0.020278
   115  C    0.137083
   116  C    0.108322
   117  C    0.066200
   118  O   -0.212223
   119  C   -0.082034
   120  C    0.230672
   121  O   -0.255699
   122  O   -0.333174
   123  C    0.141488
   124  H    0.000363
   125  H    0.027611
   126  H   -0.015023
   127  H    0.044463
   128  H    0.040203
   129  H    0.050954
   130  H    0.041468
   131  H    0.039217
   132  H    0.024790
   133  H    0.068496
   134  H    0.037312
   135  H    0.060996
   136  H    0.053608
   137  H    0.041373
   138  H    0.058154
   139  H    0.058218
   140  H    0.065564
   141  H    0.052585
   142  H    0.043131
   143  H    0.031428
   144  H    0.027264
   145  H    0.060957
   146  H    0.025227
   147  H    0.048826
   148  H    0.028066
   149  H    0.020119
   150  H    0.030249
   151  H    0.044343
   152  H    0.048226
   153  H    0.047562
   154  H    0.054793
   155  H    0.059039
   156  H    0.052770
   157  H    0.046951
   158  H    0.058692
 Sum of Mulliken charges =  -0.00000

 Dipole moment (field-independent basis, Debye):
    X=             -2.3467    Y=             -2.4834    Z=              0.8009  Tot=              3.5094
 Quadrupole moment (field-independent basis, Debye-Ang):
   XX=           -459.2829   YY=           -465.0399   ZZ=           -530.7126
   XY=             -8.4241   XZ=            -16.3752   YZ=            -18.1720

 Normal termination of Gaussian 16 at Sun Sep 19 16:45:45 2021.
