 Gaussian 16, Revision A.03,
 Gaussian 16:  ES64L-G16RevA.03 25-Dec-2016

 --------------------------------
 #p wB97XD/Def2SVP td=(nstates=5)
 --------------------------------

 --------------------------------
 TDDFT excited states in gaussian
 --------------------------------
 Symbolic Z-matrix:
 Charge =  0 Multiplicity = 1

                         Standard orientation:
 ---------------------------------------------------------------------
 Center     Atomic      Atomic             Coordinates (Angstroms)
 Number     Number       Type             X           Y           Z
 ---------------------------------------------------------------------
      1         12           0       23.933890    0.551707    0.052676
      2          6           0       22.994862   -2.566056   -1.292938
      3          6           0       23.959278   -0.842662    3.148768
      4          6           0       24.719803    3.594244    1.303776
      5          6           0       23.445034    1.976268   -3.076252
      6          7           0       23.437297   -1.411170    0.843140
      7          6           0       23.189007   -2.567515    0.098570
      8          6           0       23.182780   -3.755686    1.012783
      9          6           0       23.002536   -3.104340    2.404555
     10          6           0       23.507739   -1.667433    2.114629
     11          6           0       21.556746   -3.043689    2.990899
     12          6           0       24.445786   -4.693238    0.930515
     13          6           0       24.129033   -6.152204    0.841694
     14          1           0       24.953049   -7.091156    1.742446
     15          7           0       24.379106    1.213668    1.907492
     16          6           0       24.430806    0.457920    3.090589
     17          6           0       24.852213    1.268106    4.162955
     18          6           0       25.102818    2.627230    3.650797
     19          6           0       24.755740    2.522534    2.262228
     20          6           0       24.893612    0.861078    5.606886
     21          6           0       25.533884    3.982936    4.361524
     22          8           0       25.702427    4.993080    3.720508
     23          6           0       25.845820    4.022277    5.850724
     24          7           0       23.954910    2.528792   -0.757357
     25          6           0       24.299906    3.608974   -0.009906
     26          6           0       24.214332    4.943244   -0.894644
     27          6           0       24.098778    4.378391   -2.377784
     28          6           0       23.806674    2.847866   -2.071566
     29          6           0       23.055219    5.921050   -0.556307
     30          6           0       25.388350    4.585294   -3.249475
     31          6           0       25.073563    5.248293   -4.524244
     32          7           0       23.297935   -0.115257   -1.800242
     33          6           0       23.253107    0.563852   -3.016869
     34          6           0       22.875668   -0.341582   -4.067768
     35          6           0       22.739026   -1.560259   -3.434895
     36          6           0       23.019067   -1.404549   -2.113948
     37          6           0       22.785770    0.095374   -5.553211
     38          6           0       22.387417   -2.955237   -3.627073
     39          8           0       21.953795   -3.484222   -4.626784
     40          6           0       22.521367   -3.679882   -2.196896
     41          6           0       21.214034   -4.252339   -1.826711
     42          8           0       20.150530   -3.587888   -1.714615
     43          8           0       21.362479   -5.599785   -1.674490
     44          6           0       20.085187   -6.361053   -1.678667
     45          1           0       23.905084   -1.348155    4.115163
     46          1           0       24.948282    4.612045    1.626267
     47          1           0       23.227134    2.450782   -4.034793
     48          1           0       22.298748   -4.386831    0.914244
     49          1           0       23.588336   -3.584163    3.188779
     50          1           0       20.933221   -3.896527    2.719427
     51          1           0       21.114557   -2.109143    2.644687
     52          1           0       21.488494   -2.913722    4.070668
     53          1           0       25.036527   -4.445958    1.812341
     54          1           0       25.098064   -4.415623    0.102013
     55          1           0       24.293941   -6.335232   -0.220217
     56          1           0       23.103265   -6.323531    1.167852
     57          1           0       25.887850    0.700221    6.024261
     58          1           0       24.424790   -0.116164    5.714967
     59          1           0       24.399646    1.499293    6.339047
     60          1           0       26.247507    5.017258    6.038503
     61          1           0       26.469819    3.180870    6.153404
     62          1           0       24.957080    3.747655    6.419654
     63          1           0       25.092970    5.563226   -0.715804
     64          1           0       23.232485    4.841150   -2.852875
     65          1           0       22.345711    5.589682    0.202623
     66          1           0       22.439796    6.170328   -1.421082
     67          1           0       23.519029    6.845114   -0.210194
     68          1           0       25.794879    3.605754   -3.503884
     69          1           0       26.157585    5.200878   -2.783630
     70          1           0       25.318669    6.306823   -4.433526
     71          1           0       24.078867    5.130234   -4.952604
     72          1           0       25.662978    4.794642   -5.321121
     73          1           0       23.317611    1.039142   -5.676159
     74          1           0       21.756893    0.074099   -5.915370
     75          1           0       23.367569   -0.656694   -6.084830
     76          1           0       23.278277   -4.464462   -2.213211
     77          1           0       20.284005   -7.432579   -1.690093
     78          1           0       19.640184   -6.154617   -2.652284
     79          1           0       19.495843   -5.988864   -0.840197
     80         12           0      -23.972611    0.508069    0.099198
     81          6           0      -21.730464   -1.881330    1.012787
     82          6           0      -26.227154   -1.894791   -0.890850
     83          6           0      -26.026816    2.993498   -0.932140
     84          6           0      -21.459678    2.925738    0.675216
     85          7           0      -23.881207   -1.657480   -0.137920
     86          6           0      -23.006880   -2.390850    0.601518
     87          6           0      -23.415612   -3.815730    0.763296
     88          6           0      -24.774480   -3.804752   -0.110994
     89          6           0      -25.000410   -2.359832   -0.413820
     90          6           0      -24.658448   -4.677144   -1.441970
     91          6           0      -23.697559   -4.099260    2.312154
     92          6           0      -23.610927   -5.551499    2.786609
     93          1           0      -23.580638   -6.779701    1.843155
     94          7           0      -25.904126    0.599947   -0.697802
     95          6           0      -26.659484   -0.528179   -1.057320
     96          6           0      -27.902720   -0.044442   -1.611450
     97          6           0      -27.870590    1.364892   -1.601223
     98          6           0      -26.577564    1.684926   -1.012258
     99          6           0      -29.021011   -1.022662   -2.040781
    100          6           0      -28.974344    2.382260   -2.203977
    101          8           0      -28.925372    3.605375   -2.022159
    102          6           0      -30.186874    1.948072   -3.010812
    103          7           0      -23.760952    2.707865   -0.027628
    104          6           0      -24.766835    3.462716   -0.530604
    105          6           0      -24.308882    4.895178   -0.799801
    106          6           0      -22.908362    4.954723    0.043692
    107          6           0      -22.695742    3.467389    0.366565
    108          6           0      -24.259987    5.342239   -2.332238
    109          6           0      -22.959757    5.705808    1.469454
    110          6           0      -21.911455    6.748534    1.811409
    111          7           0      -21.995514    0.605346    0.765881
    112          6           0      -21.111900    1.604076    0.937871
    113          6           0      -19.847816    1.065687    1.531034
    114          6           0      -20.117770   -0.320988    1.613025
    115          6           0      -21.384893   -0.526093    1.014454
    116          6           0      -18.611390    1.755851    1.987630
    117          6           0      -19.502952   -1.522653    2.037108
    118          8           0      -18.380200   -1.718714    2.545991
    119          6           0      -20.519813   -2.598312    1.663658
    120          6           0      -19.908699   -3.512032    0.725663
    121          8           0      -19.381866   -3.313549   -0.324181
    122          8           0      -20.143307   -4.790684    1.222512
    123          6           0      -19.706840   -6.036711    0.483397
    124          1           0      -27.067087   -2.581422   -1.012160
    125          1           0      -26.655675    3.779923   -1.355478
    126          1           0      -20.585516    3.579086    0.690265
    127          1           0      -22.776834   -4.634493    0.432693
    128          1           0      -25.617198   -4.191929    0.461707
    129          1           0      -25.560634   -5.209698   -1.741991
    130          1           0      -23.779107   -5.317296   -1.372463
    131          1           0      -24.456697   -3.973510   -2.250275
    132          1           0      -24.676786   -3.727700    2.614706
    133          1           0      -22.951284   -3.511182    2.846928
    134          1           0      -24.441672   -5.680361    3.481565
    135          1           0      -22.731816   -5.655251    3.421472
    136          1           0      -28.802714   -2.070921   -1.837244
    137          1           0      -29.188552   -0.853989   -3.104024
    138          1           0      -29.928822   -0.716066   -1.520673
    139          1           0      -30.821247    1.433452   -2.290069
    140          1           0      -29.968016    1.114453   -3.678406
    141          1           0      -30.557536    2.774886   -3.616346
    142          1           0      -25.007340    5.564025   -0.295494
    143          1           0      -22.116468    5.415032   -0.547498
    144          1           0      -23.258819    5.664854   -2.619016
    145          1           0      -24.981195    6.138540   -2.512701
    146          1           0      -24.474961    4.496619   -2.985982
    147          1           0      -23.020054    4.999735    2.297531
    148          1           0      -23.931777    6.196087    1.514117
    149          1           0      -21.441430    6.420090    2.737740
    150          1           0      -22.323424    7.753266    1.901547
    151          1           0      -21.120648    6.733249    1.060108
    152          1           0      -18.649015    2.844066    1.940710
    153          1           0      -17.753861    1.456633    1.384400
    154          1           0      -18.421589    1.468356    3.021566
    155          1           0      -20.861191   -3.162045    2.532344
    156          1           0      -19.256905   -5.772203   -0.473767
    157          1           0      -20.579635   -6.648954    0.252577
    158          1           0      -18.993102   -6.528793    1.144051
 ---------------------------------------------------------------------

 SCF Done:  E(RwB97XD) =  -4070.62788925     A.U. after   19 cycles

 Excitation energies and oscillator strengths:

 Excited State   1:      Singlet-A      1.6817 eV  737.27 nm  f=0.3949  <S**2>=0.000
     310 -> 315        0.19775
     312 -> 314        0.68065
     310 <- 315        0.11935
 This state for optimization and/or second-order correction.
 Total Energy, E(TD-HF/TD-DFT) =  -4070.56608874
 Copying the excited state density for this state as the 1-particle RhoCI density.

 Excited State   2:      Singlet-A      1.6894 eV  733.88 nm  f=0.3936  <S**2>=0.000
     309 -> 316        0.18339
     311 -> 313        0.68255
     309 <- 316        0.11554

 Excited State   3:      Singlet-A      2.1431 eV  578.52 nm  f=0.1532  <S**2>=0.000
     309 -> 313        0.65152
     311 -> 316       -0.25247

 Excited State   4:      Singlet-A      2.1739 eV  570.33 nm  f=0.0994  <S**2>=0.000
     310 -> 314        0.63670
     312 -> 315       -0.29858

 Excited State   5:      Singlet-A      3.1998 eV  387.48 nm  f=0.0021  <S**2>=0.000
     307 -> 313        0.29706
     308 -> 313        0.62282

 The electronic state is 1-A.
 Alpha  occ. eigenvalues --  -46.95724 -46.93523 -19.30851 -19.28926 -19.24915
 Alpha  occ. eigenvalues --  -19.24518 -19.24453 -19.24201 -19.24048 -19.23893
 Alpha  occ. eigenvalues --  -14.47039 -14.46652 -14.46267 -14.46072 -14.44121
 Alpha  occ. eigenvalues --  -14.43977 -14.43948 -14.43132 -10.43257 -10.42478
 Alpha  occ. eigenvalues --  -10.40339 -10.40212 -10.39017 -10.38524 -10.35887
 Alpha  occ. eigenvalues --  -10.35790 -10.35654 -10.35050 -10.34715 -10.34669
 Alpha  occ. eigenvalues --  -10.34663 -10.34655 -10.34630 -10.34401 -10.34200
 Alpha  occ. eigenvalues --  -10.34032 -10.33987 -10.33883 -10.33717 -10.33131
 Alpha  occ. eigenvalues --  -10.33060 -10.33053 -10.32983 -10.32791 -10.32595
 Alpha  occ. eigenvalues --  -10.32377 -10.32335 -10.32321 -10.32281 -10.32162
 Alpha  occ. eigenvalues --  -10.32131 -10.32016 -10.32015 -10.32007 -10.31857
 Alpha  occ. eigenvalues --  -10.31827 -10.31808 -10.31796 -10.31678 -10.31653
 Alpha  occ. eigenvalues --  -10.31590 -10.31457 -10.31423 -10.31395 -10.31305
 Alpha  occ. eigenvalues --  -10.31177 -10.31007 -10.30610 -10.30511 -10.30463
 Alpha  occ. eigenvalues --  -10.30401 -10.30331 -10.30109 -10.30038 -10.30017
 Alpha  occ. eigenvalues --  -10.29953 -10.29949 -10.29932 -10.29906 -10.29833
 Alpha  occ. eigenvalues --  -10.29588 -10.29164 -10.29156 -10.28828 -10.28421
 Alpha  occ. eigenvalues --  -10.28319  -3.21579  -3.19658  -1.95189  -1.94683
 Alpha  occ. eigenvalues --   -1.94559  -1.93259  -1.92776  -1.92658  -1.17910
 Alpha  occ. eigenvalues --   -1.17779  -1.13938  -1.12525  -1.11710  -1.10588
 Alpha  occ. eigenvalues --   -1.09410  -1.08493  -1.07615  -1.06930  -1.06464
 Alpha  occ. eigenvalues --   -1.05579  -1.05328  -1.04640  -1.04550  -1.03489
 Alpha  occ. eigenvalues --   -0.95506  -0.94522  -0.91052  -0.90534  -0.90533
 Alpha  occ. eigenvalues --   -0.90123  -0.89918  -0.89425  -0.88982  -0.88942
 Alpha  occ. eigenvalues --   -0.88784  -0.88362  -0.88151  -0.87747  -0.86267
 Alpha  occ. eigenvalues --   -0.86195  -0.85683  -0.85345  -0.84792  -0.84242
 Alpha  occ. eigenvalues --   -0.84033  -0.83512  -0.83122  -0.83121  -0.82613
 Alpha  occ. eigenvalues --   -0.82260  -0.80362  -0.80211  -0.79396  -0.79222
 Alpha  occ. eigenvalues --   -0.79052  -0.78668  -0.78118  -0.77629  -0.77097
 Alpha  occ. eigenvalues --   -0.76808  -0.74845  -0.74598  -0.73950  -0.72895
 Alpha  occ. eigenvalues --   -0.71270  -0.70583  -0.70556  -0.70152  -0.70007
 Alpha  occ. eigenvalues --   -0.69501  -0.68507  -0.67955  -0.67440  -0.67242
 Alpha  occ. eigenvalues --   -0.67157  -0.67081  -0.66565  -0.66506  -0.66240
 Alpha  occ. eigenvalues --   -0.66031  -0.63914  -0.63829  -0.62457  -0.62320
 Alpha  occ. eigenvalues --   -0.62076  -0.61881  -0.61234  -0.61168  -0.60793
 Alpha  occ. eigenvalues --   -0.60429  -0.60131  -0.59730  -0.59672  -0.59571
 Alpha  occ. eigenvalues --   -0.58167  -0.58010  -0.57624  -0.57504  -0.57400
 Alpha  occ. eigenvalues --   -0.57228  -0.56869  -0.56134  -0.55700  -0.55696
 Alpha  occ. eigenvalues --   -0.55516  -0.55368  -0.54950  -0.54889  -0.54696
 Alpha  occ. eigenvalues --   -0.54552  -0.54483  -0.54103  -0.54070  -0.53808
 Alpha  occ. eigenvalues --   -0.53728  -0.53585  -0.53544  -0.53496  -0.53340
 Alpha  occ. eigenvalues --   -0.52952  -0.52791  -0.52752  -0.52473  -0.52427
 Alpha  occ. eigenvalues --   -0.52037  -0.51725  -0.51718  -0.51599  -0.51359
 Alpha  occ. eigenvalues --   -0.51340  -0.51331  -0.51091  -0.51059  -0.50809
 Alpha  occ. eigenvalues --   -0.50627  -0.50234  -0.50084  -0.49875  -0.49872
 Alpha  occ. eigenvalues --   -0.49563  -0.49542  -0.49233  -0.49149  -0.48863
 Alpha  occ. eigenvalues --   -0.48738  -0.48553  -0.48493  -0.48386  -0.48367
 Alpha  occ. eigenvalues --   -0.48137  -0.48079  -0.48045  -0.47759  -0.47658
 Alpha  occ. eigenvalues --   -0.47506  -0.47300  -0.47124  -0.46971  -0.46674
 Alpha  occ. eigenvalues --   -0.46628  -0.46568  -0.46385  -0.46268  -0.46261
 Alpha  occ. eigenvalues --   -0.46224  -0.45897  -0.45819  -0.45642  -0.45335
 Alpha  occ. eigenvalues --   -0.45240  -0.45062  -0.44846  -0.44768  -0.44581
 Alpha  occ. eigenvalues --   -0.44555  -0.44312  -0.44284  -0.43855  -0.43771
 Alpha  occ. eigenvalues --   -0.43670  -0.43557  -0.43291  -0.43120  -0.43057
 Alpha  occ. eigenvalues --   -0.42915  -0.42863  -0.42744  -0.42331  -0.42097
 Alpha  occ. eigenvalues --   -0.41947  -0.41643  -0.41332  -0.41027  -0.40716
 Alpha  occ. eigenvalues --   -0.40313  -0.40258  -0.39881  -0.39740  -0.39738
 Alpha  occ. eigenvalues --   -0.39519  -0.38756  -0.38747  -0.38562  -0.38387
 Alpha  occ. eigenvalues --   -0.38111  -0.37901  -0.36457  -0.36218  -0.36216
 Alpha  occ. eigenvalues --   -0.36084  -0.35399  -0.35359  -0.33727  -0.33465
 Alpha  occ. eigenvalues --   -0.33379  -0.33126  -0.33011  -0.32814  -0.32354
 Alpha  occ. eigenvalues --   -0.32220  -0.32144  -0.31733  -0.25866  -0.25743
 Alpha  occ. eigenvalues --   -0.23323  -0.22929
 Alpha virt. eigenvalues --   -0.07353  -0.06854   0.00200   0.00657   0.02048
 Alpha virt. eigenvalues --    0.02799   0.04450   0.04889   0.05832   0.06491
 Alpha virt. eigenvalues --    0.06714   0.07327   0.08020   0.08064   0.08376

 Mulliken charges:
               1
     1  Mg   0.978812
     2  C   -0.032891
     3  C   -0.099759
     4  C   -0.063560
     5  C   -0.089496
     6  N   -0.322112
     7  C    0.015232
     8  C   -0.082456
     9  C   -0.128420
    10  C    0.030577
    11  C    0.020670
    12  C    0.044960
    13  C   -0.121230
    14  H    0.030796
    15  N   -0.523069
    16  C    0.242069
    17  C   -0.149303
    18  C   -0.081342
    19  C    0.154401
    20  C    0.041989
    21  C    0.076245
    22  O   -0.213770
    23  C   -0.007712
    24  N   -0.359225
    25  C    0.071819
    26  C   -0.108357
    27  C   -0.079727
    28  C    0.063433
    29  C    0.008313
    30  C    0.027452
    31  C   -0.074065
    32  N   -0.444044
    33  C    0.130221
    34  C   -0.214775
    35  C    0.007953
    36  C    0.121554
    37  C    0.094263
    38  C    0.108355
    39  O   -0.190833
    40  C   -0.041867
    41  C    0.275509
    42  O   -0.281904
    43  O   -0.372047
    44  C    0.141513
    45  H   -0.011131
    46  H    0.021680
    47  H   -0.003606
    48  H    0.026734
    49  H    0.025649
    50  H    0.045059
    51  H    0.043266
    52  H    0.033154
    53  H    0.030082
    54  H    0.030073
    55  H    0.065272
    56  H    0.054122
    57  H    0.051065
    58  H    0.023056
    59  H    0.045335
    60  H    0.070845
    61  H    0.046644
    62  H    0.048707
    63  H    0.037836
    64  H    0.037787
    65  H    0.044184
    66  H    0.029748
    67  H    0.037009
    68  H    0.035357
    69  H    0.037532
    70  H    0.038898
    71  H    0.028210
    72  H    0.026659
    73  H    0.030845
    74  H    0.066478
    75  H    0.049373
    76  H    0.057608
    77  H    0.060429
    78  H    0.064186
    79  H    0.067683
    80  Mg   0.950818
    81  C   -0.080499
    82  C   -0.065086
    83  C   -0.054686
    84  C   -0.099701
    85  N   -0.357823
    86  C    0.029476
    87  C   -0.079423
    88  C   -0.109851
    89  C    0.090147
    90  C    0.022811
    91  C   -0.013531
    92  C   -0.098891
    93  H    0.035622
    94  N   -0.438924
    95  C    0.108611
    96  C   -0.179385
    97  C   -0.083500
    98  C    0.122527
    99  C    0.062523
   100  C    0.075990
   101  O   -0.249661
   102  C    0.010470
   103  N   -0.332056
   104  C    0.031025
   105  C   -0.062565
   106  C   -0.122889
   107  C    0.110761
   108  C    0.017300
   109  C   -0.023486
   110  C   -0.037701
   111  N   -0.390522
   112  C    0.092744
   113  C   -0.157221
   114  C   -0.058351
   115  C    0.195074
   116  C    0.082427
   117  C    0.129009
   118  O   -0.229522
   119  C   -0.055293
   120  C    0.260438
   121  O   -0.202694
   122  O   -0.416610
   123  C    0.130256
   124  H   -0.007819
   125  H    0.015261
   126  H    0.000066
   127  H    0.042259
   128  H    0.032255
   129  H    0.044436
   130  H    0.032993
   131  H    0.038542
   132  H    0.033228
   133  H    0.032473
   134  H    0.042986
   135  H    0.053453
   136  H    0.042673
   137  H    0.051385
   138  H    0.048431
   139  H    0.054853
   140  H    0.026300
   141  H    0.075592
   142  H    0.037484
   143  H    0.035318
   144  H    0.033706
   145  H    0.050446
   146  H    0.045477
   147  H    0.038388
   148  H    0.020841
   149  H    0.037095
   150  H    0.048332
   151  H    0.024447
   152  H    0.023635
   153  H    0.065376
   154  H    0.063728
   155  H    0.069620
   156  H    0.065988
   157  H    0.053364
   158  H    0.069229
 Sum of Mulliken charges =  -0.00000

 Dipole moment (field-independent basis, Debye):
    X=             -2.0257    Y=             -1.9154    Z=              3.9343  Tot=              4.8219
 Quadrupole moment (field-independent basis, Debye-Ang):
   XX=           -277.9355   YY=           -467.9801   ZZ=           -493.4245
   XY=             49.6154   XZ=             88.9948   YZ=            -19.0664

 Normal termination of Gaussian 16 at Sat Sep 18 17:46:57 2021.
