 Gaussian 16, Revision A.03,
 Gaussian 16:  ES64L-G16RevA.03 25-Dec-2016

 --------------------------------
 #p wB97XD/Def2SVP td=(nstates=5)
 --------------------------------

 --------------------------------
 TDDFT excited states in gaussian
 --------------------------------
 Symbolic Z-matrix:
 Charge =  0 Multiplicity = 1

                         Standard orientation:
 ---------------------------------------------------------------------
 Center     Atomic      Atomic             Coordinates (Angstroms)
 Number     Number       Type             X           Y           Z
 ---------------------------------------------------------------------
      1         12           0      -13.148918   -0.649332   -0.236828
      2          6           0      -12.145763    2.177405    1.639121
      3          6           0      -15.353680    1.362350   -1.969985
      4          6           0      -14.298003   -3.420131   -1.812868
      5          6           0      -11.051206   -2.688751    1.694435
      6          7           0      -13.686141    1.488248   -0.026691
      7          6           0      -13.006220    2.503807    0.641432
      8          6           0      -13.589409    3.929312    0.273683
      9          6           0      -14.773599    3.557219   -0.657850
     10          6           0      -14.657036    2.032519   -0.879446
     11          6           0      -16.229342    3.942070   -0.197595
     12          6           0      -12.552932    5.010532   -0.240496
     13          6           0      -12.464218    6.255347    0.589523
     14          1           0      -12.236651    7.603181   -0.202971
     15          7           0      -14.600310   -0.924868   -1.646273
     16          6           0      -15.368987    0.012575   -2.305882
     17          6           0      -16.261814   -0.661553   -3.235457
     18          6           0      -15.993495   -2.059688   -3.230938
     19          6           0      -14.894156   -2.199545   -2.206434
     20          6           0      -17.217618    0.070690   -4.198747
     21          6           0      -16.602327   -3.180677   -4.067124
     22          8           0      -16.223274   -4.333236   -4.031075
     23          6           0      -17.727025   -2.965741   -5.161127
     24          7           0      -12.790827   -2.792181   -0.005520
     25          6           0      -13.379871   -3.704147   -0.767903
     26          6           0      -12.882592   -5.157059   -0.439465
     27          6           0      -11.689749   -4.888588    0.561173
     28          6           0      -11.815612   -3.348104    0.762049
     29          6           0      -14.042695   -6.075613    0.042063
     30          6           0      -10.364364   -5.384406    0.017617
     31          6           0       -9.487409   -6.083260    1.055056
     32          7           0      -11.933359   -0.443389    1.442255
     33          6           0      -11.066826   -1.323754    2.061312
     34          6           0      -10.470188   -0.630853    3.161503
     35          6           0      -10.805679    0.739995    3.035224
     36          6           0      -11.727506    0.834353    1.955545
     37          6           0       -9.580370   -1.225304    4.186311
     38          6           0      -10.537476    2.090540    3.559432
     39          8           0       -9.922299    2.496973    4.540893
     40          6           0      -11.455676    3.123789    2.545054
     41          6           0      -12.358781    3.897989    3.338092
     42          8           0      -13.551312    3.697786    3.419068
     43          8           0      -11.716850    4.982626    3.891677
     44          6           0      -12.603443    5.785072    4.770729
     45          1           0      -15.972765    1.979031   -2.625172
     46          1           0      -14.664162   -4.349527   -2.252828
     47          1           0      -10.361916   -3.379195    2.186294
     48          1           0      -14.099605    4.247852    1.182074
     49          1           0      -14.651372    4.018654   -1.637813
     50          1           0      -16.753757    4.290989   -1.087718
     51          1           0      -16.155564    4.715061    0.566957
     52          1           0      -16.800302    3.115676    0.226163
     53          1           0      -12.836123    5.225393   -1.270996
     54          1           0      -11.569255    4.542019   -0.204905
     55          1           0      -11.628686    6.173484    1.285953
     56          1           0      -13.406986    6.261742    1.135831
     57          1           0      -16.816019   -0.122430   -5.192862
     58          1           0      -17.098775    1.146228   -4.065483
     59          1           0      -18.256653   -0.260614   -4.181719
     60          1           0      -17.355728   -2.238582   -5.884068
     61          1           0      -18.718872   -2.833453   -4.727865
     62          1           0      -17.899819   -3.961426   -5.568504
     63          1           0      -12.432361   -5.665316   -1.291912
     64          1           0      -11.978977   -5.361648    1.499817
     65          1           0      -13.735779   -6.555074    0.972025
     66          1           0      -14.373038   -6.788247   -0.714089
     67          1           0      -14.921951   -5.470545    0.257054
     68          1           0       -9.784758   -4.585876   -0.444375
     69          1           0      -10.454836   -6.069982   -0.826370
     70          1           0       -9.883846   -5.956827    2.062557
     71          1           0       -8.515331   -5.591258    1.011595
     72          1           0       -9.285991   -7.123364    0.798219
     73          1           0       -9.372061   -2.292554    4.111537
     74          1           0       -9.917214   -0.828032    5.144574
     75          1           0       -8.595753   -0.870744    3.880548
     76          1           0      -10.776464    3.786959    2.008595
     77          1           0      -12.976435    5.164106    5.585509
     78          1           0      -13.368453    6.207920    4.119583
     79          1           0      -12.084035    6.608157    5.259942
     80         12           0       13.504048   -0.669889    0.191955
     81          6           0       11.699465    2.357342   -0.988241
     82          6           0       16.257301    1.273379   -0.067315
     83          6           0       14.967386   -3.385080    0.922710
     84          6           0       10.494069   -2.440198   -0.500828
     85          7           0       13.893957    1.523554   -0.501776
     86          6           0       13.009467    2.561883   -0.739937
     87          6           0       13.654065    3.952024   -0.784918
     88          6           0       15.142987    3.515236   -0.945152
     89          6           0       15.142201    2.005184   -0.488259
     90          6           0       15.709674    3.674184   -2.320837
     91          6           0       13.350176    4.920819    0.406716
     92          6           0       13.334421    6.387646    0.133049
     93          1           0       13.898532    7.264940    1.246129
     94          7           0       15.407420   -1.031124    0.457225
     95          6           0       16.444064   -0.078657    0.367800
     96          6           0       17.648080   -0.700286    0.838744
     97          6           0       17.209485   -2.025493    1.274779
     98          6           0       15.849693   -2.158986    0.894025
     99          6           0       19.036166    0.022810    1.000602
    100          6           0       18.067844   -3.031451    1.978758
    101          8           0       17.647646   -4.177453    2.271194
    102          6           0       19.453211   -2.744941    2.430716
    103          7           0       12.929695   -2.656334    0.072865
    104          6           0       13.731985   -3.648523    0.463814
    105          6           0       13.063013   -5.059730    0.418700
    106          6           0       11.555337   -4.607443    0.400951
    107          6           0       11.641940   -3.135146   -0.086258
    108          6           0       13.442572   -5.853067   -0.872947
    109          6           0       10.891428   -4.665739    1.840581
    110          6           0       10.955817   -5.976337    2.652728
    111          7           0       11.490579   -0.176460   -0.538040
    112          6           0       10.391559   -1.014565   -0.687928
    113          6           0        9.271574   -0.258909   -1.198160
    114          6           0        9.726838    1.062404   -1.292337
    115          6           0       11.110601    1.066994   -0.964989
    116          6           0        7.882413   -0.755571   -1.419277
    117          6           0        9.320758    2.417519   -1.641137
    118          8           0        8.259217    2.927308   -1.974609
    119          6           0       10.641539    3.298527   -1.339874
    120          6           0       10.864527    4.089754   -2.537768
    121          8           0       11.122723    3.664184   -3.674652
    122          8           0       10.321094    5.324454   -2.326310
    123          6           0       10.344520    6.289427   -3.378328
    124          1           0       17.077500    1.993664   -0.031630
    125          1           0       15.430269   -4.341927    1.172241
    126          1           0        9.595449   -3.035087   -0.679188
    127          1           0       13.324749    4.426966   -1.709329
    128          1           0       15.767078    4.002629   -0.196698
    129          1           0       15.791125    2.674514   -2.747647
    130          1           0       16.723512    4.069036   -2.256669
    131          1           0       15.148275    4.287562   -3.025333
    132          1           0       14.142714    4.774239    1.139987
    133          1           0       12.420840    4.585592    0.866431
    134          1           0       12.274995    6.610151    0.007330
    135          1           0       13.698183    6.631876   -0.865108
    136          1           0       19.330084    0.252261    2.024413
    137          1           0       19.094554    0.914703    0.377302
    138          1           0       19.709725   -0.713993    0.561190
    139          1           0       20.106517   -2.759382    1.557939
    140          1           0       19.710747   -3.553660    3.115181
    141          1           0       19.411604   -1.801267    2.973621
    142          1           0       13.399496   -5.575943    1.318445
    143          1           0       10.909208   -5.144634   -0.292682
    144          1           0       14.053052   -6.695593   -0.547083
    145          1           0       13.930653   -5.278027   -1.659175
    146          1           0       12.465824   -6.211899   -1.200546
    147          1           0        9.822430   -4.483359    1.733282
    148          1           0       11.287821   -3.811020    2.388408
    149          1           0       11.466307   -5.702230    3.575843
    150          1           0       11.599197   -6.624799    2.057342
    151          1           0        9.968560   -6.378535    2.879518
    152          1           0        7.857688   -1.718614   -0.908820
    153          1           0        7.777802   -0.883791   -2.496605
    154          1           0        7.105111   -0.062545   -1.097432
    155          1           0       10.462087    3.940456   -0.477613
    156          1           0       10.852857    5.909452   -4.264780
    157          1           0       10.933628    7.118639   -2.986389
    158          1           0        9.351257    6.694878   -3.565712
 ---------------------------------------------------------------------

 SCF Done:  E(RwB97XD) =  -4070.60594153     A.U. after   20 cycles

 Excitation energies and oscillator strengths:

 Excited State   1:      Singlet-A      1.6009 eV  774.48 nm  f=0.4005  <S**2>=0.000
     309 -> 316       -0.16170
     311 -> 313        0.68927
     309 <- 316       -0.11298
 This state for optimization and/or second-order correction.
 Total Energy, E(TD-HF/TD-DFT) =  -4070.54711073
 Copying the excited state density for this state as the 1-particle RhoCI density.

 Excited State   2:      Singlet-A      1.7607 eV  704.16 nm  f=0.3664  <S**2>=0.000
     310 -> 315       -0.17857
     312 -> 314        0.68329
     310 <- 315       -0.10771

 Excited State   3:      Singlet-A      2.1247 eV  583.54 nm  f=0.2071  <S**2>=0.000
     309 -> 313        0.66537
     311 -> 316        0.22068

 Excited State   4:      Singlet-A      2.2094 eV  561.16 nm  f=0.1128  <S**2>=0.000
     310 -> 314        0.63747
     312 -> 315        0.28420

 Excited State   5:      Singlet-A      3.1831 eV  389.51 nm  f=0.0050  <S**2>=0.000
     304 -> 313        0.17970
     306 -> 313        0.66146

 The electronic state is 1-A.
 Alpha  occ. eigenvalues --  -46.95211 -46.94555 -19.30025 -19.29455 -19.24967
 Alpha  occ. eigenvalues --  -19.24937 -19.24375 -19.24325 -19.24049 -19.22420
 Alpha  occ. eigenvalues --  -14.46909 -14.46869 -14.46310 -14.45975 -14.44983
 Alpha  occ. eigenvalues --  -14.44251 -14.44173 -14.43242 -10.42991 -10.42040
 Alpha  occ. eigenvalues --  -10.40428 -10.40025 -10.39936 -10.37901 -10.36636
 Alpha  occ. eigenvalues --  -10.36142 -10.35432 -10.35332 -10.35254 -10.34932
 Alpha  occ. eigenvalues --  -10.34826 -10.34767 -10.34749 -10.34666 -10.34455
 Alpha  occ. eigenvalues --  -10.34432 -10.34421 -10.34116 -10.33817 -10.33718
 Alpha  occ. eigenvalues --  -10.33182 -10.33092 -10.33050 -10.32881 -10.32628
 Alpha  occ. eigenvalues --  -10.32557 -10.32366 -10.32356 -10.32243 -10.32158
 Alpha  occ. eigenvalues --  -10.32142 -10.32058 -10.32030 -10.32016 -10.31984
 Alpha  occ. eigenvalues --  -10.31973 -10.31878 -10.31823 -10.31681 -10.31640
 Alpha  occ. eigenvalues --  -10.31607 -10.31514 -10.31388 -10.31370 -10.31136
 Alpha  occ. eigenvalues --  -10.30962 -10.30854 -10.30745 -10.30655 -10.30631
 Alpha  occ. eigenvalues --  -10.30564 -10.30297 -10.30273 -10.30101 -10.30060
 Alpha  occ. eigenvalues --  -10.29850 -10.29765 -10.29661 -10.29615 -10.29594
 Alpha  occ. eigenvalues --  -10.29535 -10.29409 -10.29356 -10.29059 -10.28888
 Alpha  occ. eigenvalues --  -10.28812  -3.21313  -3.20519  -1.94872  -1.94436
 Alpha  occ. eigenvalues --   -1.94300  -1.94116  -1.93634  -1.93500  -1.18711
 Alpha  occ. eigenvalues --   -1.17925  -1.13768  -1.12485  -1.11403  -1.09613
 Alpha  occ. eigenvalues --   -1.09525  -1.09202  -1.06902  -1.06054  -1.06030
 Alpha  occ. eigenvalues --   -1.05640  -1.04570  -1.04511  -1.03932  -1.02910
 Alpha  occ. eigenvalues --   -0.95685  -0.93723  -0.91389  -0.90959  -0.90655
 Alpha  occ. eigenvalues --   -0.90260  -0.89981  -0.89931  -0.89367  -0.89230
 Alpha  occ. eigenvalues --   -0.88793  -0.88763  -0.88155  -0.87442  -0.86606
 Alpha  occ. eigenvalues --   -0.86247  -0.85952  -0.85473  -0.84999  -0.84384
 Alpha  occ. eigenvalues --   -0.83993  -0.83007  -0.82968  -0.82758  -0.82631
 Alpha  occ. eigenvalues --   -0.82026  -0.80485  -0.80421  -0.79393  -0.79191
 Alpha  occ. eigenvalues --   -0.78802  -0.78322  -0.78145  -0.77626  -0.77360
 Alpha  occ. eigenvalues --   -0.76650  -0.75336  -0.74182  -0.73259  -0.72875
 Alpha  occ. eigenvalues --   -0.71189  -0.71064  -0.70713  -0.70567  -0.70149
 Alpha  occ. eigenvalues --   -0.69400  -0.69111  -0.68889  -0.67628  -0.67501
 Alpha  occ. eigenvalues --   -0.67060  -0.66873  -0.66711  -0.66572  -0.66435
 Alpha  occ. eigenvalues --   -0.66317  -0.64026  -0.63094  -0.62711  -0.62060
 Alpha  occ. eigenvalues --   -0.61759  -0.61472  -0.61125  -0.60814  -0.60738
 Alpha  occ. eigenvalues --   -0.60363  -0.59911  -0.59717  -0.59673  -0.58976
 Alpha  occ. eigenvalues --   -0.57916  -0.57831  -0.57634  -0.57579  -0.56835
 Alpha  occ. eigenvalues --   -0.56685  -0.56590  -0.56101  -0.56073  -0.55638
 Alpha  occ. eigenvalues --   -0.55587  -0.55207  -0.55158  -0.55138  -0.54920
 Alpha  occ. eigenvalues --   -0.54748  -0.54464  -0.54442  -0.54325  -0.54017
 Alpha  occ. eigenvalues --   -0.53673  -0.53578  -0.53324  -0.53288  -0.53158
 Alpha  occ. eigenvalues --   -0.53012  -0.52911  -0.52747  -0.52471  -0.52195
 Alpha  occ. eigenvalues --   -0.52017  -0.51816  -0.51794  -0.51615  -0.51489
 Alpha  occ. eigenvalues --   -0.51423  -0.51422  -0.51324  -0.51133  -0.50626
 Alpha  occ. eigenvalues --   -0.50601  -0.50533  -0.50229  -0.50049  -0.49932
 Alpha  occ. eigenvalues --   -0.49884  -0.49760  -0.49644  -0.49492  -0.49443
 Alpha  occ. eigenvalues --   -0.49146  -0.48664  -0.48426  -0.48328  -0.48299
 Alpha  occ. eigenvalues --   -0.48117  -0.48092  -0.47884  -0.47870  -0.47434
 Alpha  occ. eigenvalues --   -0.47350  -0.47069  -0.47011  -0.46894  -0.46720
 Alpha  occ. eigenvalues --   -0.46715  -0.46627  -0.46382  -0.46270  -0.45928
 Alpha  occ. eigenvalues --   -0.45893  -0.45843  -0.45643  -0.45445  -0.45164
 Alpha  occ. eigenvalues --   -0.45155  -0.45124  -0.45034  -0.44952  -0.44738
 Alpha  occ. eigenvalues --   -0.44570  -0.44268  -0.44163  -0.44011  -0.43888
 Alpha  occ. eigenvalues --   -0.43859  -0.43575  -0.43372  -0.43213  -0.43101
 Alpha  occ. eigenvalues --   -0.42632  -0.42563  -0.42428  -0.42173  -0.41902
 Alpha  occ. eigenvalues --   -0.41717  -0.41535  -0.41346  -0.41275  -0.41204
 Alpha  occ. eigenvalues --   -0.40571  -0.40451  -0.40136  -0.39663  -0.39617
 Alpha  occ. eigenvalues --   -0.39204  -0.39173  -0.38861  -0.38379  -0.38193
 Alpha  occ. eigenvalues --   -0.37833  -0.37804  -0.36599  -0.36247  -0.36133
 Alpha  occ. eigenvalues --   -0.35749  -0.35371  -0.35299  -0.33883  -0.33756
 Alpha  occ. eigenvalues --   -0.33465  -0.33414  -0.32849  -0.32221  -0.32147
 Alpha  occ. eigenvalues --   -0.32048  -0.31745  -0.30718  -0.26150  -0.25986
 Alpha  occ. eigenvalues --   -0.23524  -0.23121
 Alpha virt. eigenvalues --   -0.07999  -0.06805   0.00184   0.01165   0.02126
 Alpha virt. eigenvalues --    0.02383   0.04246   0.04305   0.04972   0.06056
 Alpha virt. eigenvalues --    0.06128   0.06960   0.07676   0.07949   0.08247

 Mulliken charges:
               1
     1  Mg   0.955548
     2  C    0.013663
     3  C   -0.100296
     4  C   -0.065381
     5  C   -0.066984
     6  N   -0.380895
     7  C   -0.011732
     8  C   -0.052020
     9  C   -0.156852
    10  C    0.113202
    11  C    0.022928
    12  C    0.049846
    13  C   -0.135491
    14  H    0.029691
    15  N   -0.509924
    16  C    0.184355
    17  C   -0.168150
    18  C   -0.051424
    19  C    0.184582
    20  C    0.066047
    21  C    0.037468
    22  O   -0.218216
    23  C   -0.019153
    24  N   -0.317933
    25  C    0.037430
    26  C   -0.121241
    27  C   -0.060535
    28  C    0.021347
    29  C    0.018098
    30  C    0.000714
    31  C   -0.057022
    32  N   -0.463864
    33  C    0.166519
    34  C   -0.208629
    35  C   -0.042125
    36  C    0.161355
    37  C    0.091170
    38  C    0.152408
    39  O   -0.199087
    40  C   -0.162903
    41  C    0.269546
    42  O   -0.250540
    43  O   -0.372283
    44  C    0.150449
    45  H   -0.008658
    46  H    0.020367
    47  H   -0.018323
    48  H    0.051642
    49  H    0.032817
    50  H    0.036878
    51  H    0.043436
    52  H    0.050742
    53  H    0.038866
    54  H    0.034564
    55  H    0.066076
    56  H    0.050539
    57  H    0.052523
    58  H    0.034043
    59  H    0.066313
    60  H    0.061669
    61  H    0.055595
    62  H    0.047352
    63  H    0.040353
    64  H    0.034332
    65  H    0.035152
    66  H    0.050573
    67  H    0.041461
    68  H    0.031069
    69  H    0.027953
    70  H    0.040999
    71  H    0.031125
    72  H    0.041150
    73  H    0.018990
    74  H    0.070102
    75  H    0.044926
    76  H    0.080095
    77  H    0.060025
    78  H    0.049490
    79  H    0.052082
    80  Mg   0.983398
    81  C   -0.013741
    82  C   -0.065908
    83  C   -0.042837
    84  C   -0.083035
    85  N   -0.296716
    86  C   -0.036531
    87  C   -0.084135
    88  C   -0.102323
    89  C   -0.016682
    90  C    0.047902
    91  C    0.043082
    92  C   -0.116567
    93  H    0.053942
    94  N   -0.496779
    95  C    0.190177
    96  C   -0.170818
    97  C   -0.082148
    98  C    0.148041
    99  C    0.072056
   100  C    0.008794
   101  O   -0.274979
   102  C    0.009602
   103  N   -0.391750
   104  C    0.045262
   105  C   -0.110550
   106  C   -0.102344
   107  C    0.088935
   108  C    0.051783
   109  C   -0.033958
   110  C   -0.032746
   111  N   -0.400088
   112  C    0.123228
   113  C   -0.202551
   114  C   -0.040021
   115  C    0.129383
   116  C    0.087814
   117  C    0.156535
   118  O   -0.192151
   119  C   -0.060054
   120  C    0.245614
   121  O   -0.268871
   122  O   -0.350351
   123  C    0.133694
   124  H   -0.007735
   125  H    0.013629
   126  H    0.004942
   127  H    0.033324
   128  H    0.025439
   129  H    0.044439
   130  H    0.034217
   131  H    0.048367
   132  H    0.032044
   133  H    0.031376
   134  H    0.048071
   135  H    0.042853
   136  H    0.067965
   137  H    0.040218
   138  H    0.042951
   139  H    0.063985
   140  H    0.055089
   141  H    0.045604
   142  H    0.047121
   143  H    0.025341
   144  H    0.046335
   145  H    0.060207
   146  H    0.027896
   147  H    0.024717
   148  H    0.033512
   149  H    0.042623
   150  H    0.036142
   151  H    0.048618
   152  H    0.031193
   153  H    0.059901
   154  H    0.065223
   155  H    0.072060
   156  H    0.065994
   157  H    0.033754
   158  H    0.061980
 Sum of Mulliken charges =  -0.00000

 Dipole moment (field-independent basis, Debye):
    X=             -0.1910    Y=              1.2591    Z=             -2.4284  Tot=              2.7421
 Quadrupole moment (field-independent basis, Debye-Ang):
   XX=           -387.9293   YY=           -477.7174   ZZ=           -527.1154
   XY=             34.7612   XZ=             77.4655   YZ=             -8.0832

 Normal termination of Gaussian 16 at Mon Sep 20 12:19:59 2021.
