 Gaussian 16, Revision A.03,
 Gaussian 16:  ES64L-G16RevA.03 25-Dec-2016

 --------------------------------
 #p wB97XD/Def2SVP td=(nstates=5)
 --------------------------------

 --------------------------------
 TDDFT excited states in gaussian
 --------------------------------
 Symbolic Z-matrix:
 Charge =  0 Multiplicity = 1

                         Standard orientation:
 ---------------------------------------------------------------------
 Center     Atomic      Atomic             Coordinates (Angstroms)
 Number     Number       Type             X           Y           Z
 ---------------------------------------------------------------------
      1         12           0      -24.207073    0.691249    0.112520
      2          6           0      -23.116555   -2.336183   -1.357114
      3          6           0      -22.372491    2.266425   -2.107010
      4          6           0      -24.421979    3.289800    2.145591
      5          6           0      -25.486034   -1.332739    2.738563
      6          7           0      -23.028439   -0.068682   -1.666469
      7          6           0      -22.788054   -1.244398   -2.120561
      8          6           0      -22.153640   -1.172769   -3.524798
      9          6           0      -21.482226    0.293647   -3.543676
     10          6           0      -22.280757    0.886067   -2.308944
     11          6           0      -19.914847    0.356109   -3.354979
     12          6           0      -23.289679   -1.260314   -4.672246
     13          6           0      -22.979557   -1.941111   -6.044641
     14          1           0      -21.483313   -1.882298   -6.526976
     15          7           0      -23.673232    2.587777   -0.063916
     16          6           0      -22.937937    3.057519   -1.141799
     17          6           0      -22.731211    4.537772   -0.961895
     18          6           0      -23.386509    4.835843    0.305230
     19          6           0      -23.881599    3.600562    0.918752
     20          6           0      -21.934464    5.348748   -1.966349
     21          6           0      -23.558534    6.197309    0.942072
     22          8           0      -24.086958    6.397122    2.044635
     23          6           0      -23.105335    7.388438    0.199574
     24          7           0      -24.984270    0.967971    2.188944
     25          6           0      -24.889752    2.153143    2.764115
     26          6           0      -25.776312    2.190107    4.087406
     27          6           0      -26.091072    0.606306    4.259416
     28          6           0      -25.516763    0.044431    2.961674
     29          6           0      -25.072517    2.879265    5.302858
     30          6           0      -27.578916    0.171256    4.467022
     31          6           0      -27.947620   -0.382724    5.819279
     32          7           0      -24.508142   -1.427643    0.549778
     33          6           0      -25.045031   -2.038502    1.665570
     34          6           0      -24.886042   -3.429847    1.575840
     35          6           0      -24.095633   -3.583891    0.421147
     36          6           0      -23.844836   -2.369550   -0.172641
     37          6           0      -25.341433   -4.445614    2.497815
     38          6           0      -23.546570   -4.601043   -0.388854
     39          8           0      -23.579901   -5.861516   -0.405514
     40          6           0      -22.647674   -3.807360   -1.440081
     41          6           0      -22.779363   -4.411044   -2.790106
     42          8           0      -23.788045   -4.486040   -3.488720
     43          8           0      -21.467494   -4.803502   -3.204305
     44          6           0      -21.344345   -5.442302   -4.520796
     45          1           0      -21.864503    2.748903   -2.945145
     46          1           0      -24.539989    4.170981    2.778646
     47          1           0      -25.951832   -1.947985    3.512055
     48          1           0      -21.288690   -1.835507   -3.516645
     49          1           0      -21.624878    0.719382   -4.536312
     50          1           0      -19.507568   -0.594847   -3.012279
     51          1           0      -19.631409    1.070631   -2.582376
     52          1           0      -19.510040    0.610766   -4.334397
     53          1           0      -23.710217   -0.275880   -4.878119
     54          1           0      -24.156194   -1.766831   -4.246704
     55          1           0      -23.558861   -1.537394   -6.875635
     56          1           0      -23.080501   -3.015621   -5.886890
     57          1           0      -22.424360    6.290805   -2.215196
     58          1           0      -21.737356    4.810008   -2.893202
     59          1           0      -20.911204    5.458916   -1.608168
     60          1           0      -22.042345    7.325101   -0.034819
     61          1           0      -23.297845    8.285626    0.787948
     62          1           0      -23.623926    7.584781   -0.738839
     63          1           0      -26.742942    2.669198    3.932271
     64          1           0      -25.435570    0.134859    4.993124
     65          1           0      -24.041124    3.128494    5.052782
     66          1           0      -25.255845    2.142104    6.084839
     67          1           0      -25.691293    3.731753    5.579997
     68          1           0      -27.790336   -0.612581    3.739362
     69          1           0      -28.236947    1.007523    4.230054
     70          1           0      -27.059200   -0.187359    6.418349
     71          1           0      -28.054852   -1.463169    5.716395
     72          1           0      -28.791030    0.128244    6.282032
     73          1           0      -26.402858   -4.263602    2.664062
     74          1           0      -24.997496   -4.345616    3.527327
     75          1           0      -25.202084   -5.431760    2.054481
     76          1           0      -21.610934   -3.860615   -1.106233
     77          1           0      -20.321213   -5.777507   -4.692913
     78          1           0      -21.468971   -4.677668   -5.287770
     79          1           0      -21.988232   -6.320551   -4.553592
     80         12           0       23.868975    0.562535   -0.611431
     81          6           0       23.268270   -2.832523    0.124301
     82          6           0       20.558199    1.138177   -0.050578
     83          6           0       24.580814    3.905128   -0.568887
     84          6           0       27.332771   -0.275397   -0.613967
     85          7           0       22.113124   -0.711064    0.121199
     86          6           0       22.025973   -2.070541    0.214356
     87          6           0       20.645012   -2.533698    0.709649
     88          6           0       19.819212   -1.238531    0.237294
     89          6           0       20.898049   -0.194820    0.087723
     90          6           0       19.003934   -1.400493   -1.073667
     91          6           0       20.541200   -2.742043    2.287366
     92          6           0       19.476689   -3.678888    2.837132
     93          1           0       18.260044   -3.163079    3.634780
     94          7           0       22.748693    2.383589   -0.382692
     95          6           0       21.386661    2.357976   -0.302479
     96          6           0       20.851223    3.640231   -0.435316
     97          6           0       21.995856    4.504001   -0.619425
     98          6           0       23.203764    3.639139   -0.501427
     99          6           0       19.364878    3.975941   -0.413312
    100          6           0       21.862862    5.992752   -0.847465
    101          8           0       20.718856    6.514420   -0.890203
    102          6           0       23.077451    6.939121   -1.150583
    103          7           0       25.683688    1.580493   -0.599355
    104          6           0       25.715280    3.001227   -0.617500
    105          6           0       27.095955    3.478740   -0.972486
    106          6           0       28.010053    2.273664   -0.661878
    107          6           0       26.992433    1.096381   -0.697993
    108          6           0       27.407056    3.926518   -2.418550
    109          6           0       28.686718    2.376439    0.804971
    110          6           0       29.963198    3.189209    0.960691
    111          7           0       25.032276   -1.244530   -0.485707
    112          6           0       26.407248   -1.423207   -0.513059
    113          6           0       26.755190   -2.743991   -0.301312
    114          6           0       25.523764   -3.387787   -0.090768
    115          6           0       24.510696   -2.419283   -0.190607
    116          6           0       28.151764   -3.280668   -0.308410
    117          6           0       24.932312   -4.608606    0.077191
    118          8           0       25.413625   -5.723931    0.042766
    119          6           0       23.483229   -4.261295    0.478382
    120          6           0       23.403099   -4.575824    1.942428
    121          8           0       24.107079   -4.086591    2.770158
    122          8           0       22.449102   -5.569062    2.170920
    123          6           0       22.453398   -6.021431    3.518628
    124          1           0       19.484802    1.336943   -0.085890
    125          1           0       24.851450    4.945365   -0.763895
    126          1           0       28.395257   -0.473831   -0.768083
    127          1           0       20.246357   -3.359233    0.120964
    128          1           0       19.091515   -1.036991    1.022894
    129          1           0       17.999422   -1.602726   -0.700910
    130          1           0       19.331282   -2.258185   -1.661175
    131          1           0       18.989693   -0.477937   -1.654232
    132          1           0       20.320055   -1.795811    2.781259
    133          1           0       21.541046   -3.012954    2.627203
    134          1           0       20.038426   -4.370308    3.466891
    135          1           0       19.098175   -4.261600    1.997479
    136          1           0       18.980203    4.768225   -1.056380
    137          1           0       19.269125    4.162793    0.656022
    138          1           0       18.787307    3.126519   -0.778059
    139          1           0       23.548670    6.635495   -2.084999
    140          1           0       23.700401    6.803232   -0.266737
    141          1           0       22.869221    8.008846   -1.134683
    142          1           0       27.334899    4.272002   -0.264892
    143          1           0       28.800851    2.152245   -1.402236
    144          1           0       28.096801    3.283258   -2.964682
    145          1           0       27.458844    5.012794   -2.495071
    146          1           0       26.472921    3.745394   -2.949993
    147          1           0       28.864916    1.319048    0.999557
    148          1           0       27.974714    2.764258    1.533740
    149          1           0       29.831740    3.908521    1.768578
    150          1           0       30.164210    3.723207    0.031544
    151          1           0       30.803807    2.557641    1.249256
    152          1           0       28.247832   -3.873245    0.600922
    153          1           0       28.904765   -2.495233   -0.232838
    154          1           0       28.352860   -3.929083   -1.161355
    155          1           0       22.813785   -4.908726   -0.086943
    156          1           0       23.111558   -6.884819    3.612120
    157          1           0       21.503139   -6.453148    3.835138
    158          1           0       22.783507   -5.251982    4.214447
 ---------------------------------------------------------------------

 SCF Done:  E(RwB97XD) =  -4070.55191350     A.U. after   20 cycles

 Excitation energies and oscillator strengths:

 Excited State   1:      Singlet-A      1.6461 eV  753.19 nm  f=0.3983  <S**2>=0.000
     309 -> 316       -0.19123
     311 -> 313        0.68053
     309 <- 316       -0.11798
 This state for optimization and/or second-order correction.
 Total Energy, E(TD-HF/TD-DFT) =  -4070.49141949
 Copying the excited state density for this state as the 1-particle RhoCI density.

 Excited State   2:      Singlet-A      1.7435 eV  711.14 nm  f=0.3650  <S**2>=0.000
     310 -> 315       -0.21770
     312 -> 314        0.67307
     310 <- 315       -0.11924

 Excited State   3:      Singlet-A      2.0912 eV  592.89 nm  f=0.1262  <S**2>=0.000
     309 -> 313        0.64853
     311 -> 316        0.26305

 Excited State   4:      Singlet-A      2.1696 eV  571.47 nm  f=0.0786  <S**2>=0.000
     310 -> 314        0.62758
     312 -> 315        0.30964

 Excited State   5:      Singlet-A      3.1712 eV  390.97 nm  f=0.0097  <S**2>=0.000
     306 -> 313       -0.26124
     307 -> 313        0.60994
     307 -> 318       -0.13661

 The electronic state is 1-A.
 Alpha  occ. eigenvalues --  -46.96674 -46.95739 -19.30646 -19.29194 -19.25860
 Alpha  occ. eigenvalues --  -19.25162 -19.24042 -19.23544 -19.23183 -19.22942
 Alpha  occ. eigenvalues --  -14.47797 -14.47289 -14.46727 -14.46305 -14.44622
 Alpha  occ. eigenvalues --  -14.44424 -14.43835 -14.43194 -10.43575 -10.43172
 Alpha  occ. eigenvalues --  -10.39099 -10.39040 -10.38538 -10.37370 -10.36488
 Alpha  occ. eigenvalues --  -10.36384 -10.35706 -10.35593 -10.35037 -10.35010
 Alpha  occ. eigenvalues --  -10.34846 -10.34815 -10.34756 -10.34744 -10.34713
 Alpha  occ. eigenvalues --  -10.34645 -10.34451 -10.34303 -10.34295 -10.33996
 Alpha  occ. eigenvalues --  -10.33338 -10.33326 -10.33097 -10.32769 -10.32734
 Alpha  occ. eigenvalues --  -10.32571 -10.32524 -10.32491 -10.32396 -10.32391
 Alpha  occ. eigenvalues --  -10.32386 -10.32373 -10.32125 -10.32110 -10.32052
 Alpha  occ. eigenvalues --  -10.31978 -10.31918 -10.31895 -10.31883 -10.31728
 Alpha  occ. eigenvalues --  -10.31669 -10.31667 -10.31666 -10.31589 -10.31547
 Alpha  occ. eigenvalues --  -10.31513 -10.31478 -10.31320 -10.31020 -10.30489
 Alpha  occ. eigenvalues --  -10.30447 -10.30417 -10.30365 -10.30250 -10.30250
 Alpha  occ. eigenvalues --  -10.30179 -10.30078 -10.29979 -10.29813 -10.29808
 Alpha  occ. eigenvalues --  -10.29699 -10.29680 -10.29479 -10.29229 -10.28683
 Alpha  occ. eigenvalues --  -10.28211  -3.22444  -3.21652  -1.96024  -1.95554
 Alpha  occ. eigenvalues --   -1.95402  -1.95243  -1.94783  -1.94599  -1.19815
 Alpha  occ. eigenvalues --   -1.16123  -1.12278  -1.11758  -1.11644  -1.09547
 Alpha  occ. eigenvalues --   -1.09521  -1.08946  -1.07805  -1.07797  -1.07228
 Alpha  occ. eigenvalues --   -1.06732  -1.05997  -1.05565  -1.03923  -1.03524
 Alpha  occ. eigenvalues --   -0.96391  -0.94967  -0.91437  -0.90884  -0.90651
 Alpha  occ. eigenvalues --   -0.90577  -0.90532  -0.89813  -0.89543  -0.89497
 Alpha  occ. eigenvalues --   -0.89281  -0.89046  -0.88868  -0.87885  -0.86319
 Alpha  occ. eigenvalues --   -0.86230  -0.85883  -0.85549  -0.84852  -0.84659
 Alpha  occ. eigenvalues --   -0.83966  -0.83835  -0.83461  -0.82669  -0.82645
 Alpha  occ. eigenvalues --   -0.82320  -0.80952  -0.80037  -0.79664  -0.79325
 Alpha  occ. eigenvalues --   -0.78914  -0.78904  -0.77923  -0.77841  -0.77666
 Alpha  occ. eigenvalues --   -0.77184  -0.75626  -0.75236  -0.74261  -0.74259
 Alpha  occ. eigenvalues --   -0.71496  -0.70955  -0.70519  -0.70434  -0.70409
 Alpha  occ. eigenvalues --   -0.69905  -0.69219  -0.69183  -0.68271  -0.67903
 Alpha  occ. eigenvalues --   -0.67594  -0.67568  -0.67342  -0.66730  -0.66609
 Alpha  occ. eigenvalues --   -0.66255  -0.64823  -0.63272  -0.62558  -0.62523
 Alpha  occ. eigenvalues --   -0.62178  -0.62137  -0.61603  -0.61312  -0.61209
 Alpha  occ. eigenvalues --   -0.61050  -0.60366  -0.60105  -0.59736  -0.59309
 Alpha  occ. eigenvalues --   -0.58979  -0.58514  -0.57770  -0.57710  -0.57423
 Alpha  occ. eigenvalues --   -0.57299  -0.57095  -0.56323  -0.55827  -0.55753
 Alpha  occ. eigenvalues --   -0.55528  -0.55485  -0.55141  -0.55129  -0.54898
 Alpha  occ. eigenvalues --   -0.54753  -0.54568  -0.54545  -0.54414  -0.54237
 Alpha  occ. eigenvalues --   -0.54198  -0.53802  -0.53471  -0.53373  -0.53169
 Alpha  occ. eigenvalues --   -0.53096  -0.52857  -0.52808  -0.52567  -0.52520
 Alpha  occ. eigenvalues --   -0.52278  -0.52085  -0.51847  -0.51799  -0.51682
 Alpha  occ. eigenvalues --   -0.51509  -0.51354  -0.51122  -0.50952  -0.50759
 Alpha  occ. eigenvalues --   -0.50753  -0.50630  -0.50435  -0.50323  -0.49969
 Alpha  occ. eigenvalues --   -0.49888  -0.49741  -0.49577  -0.49296  -0.49259
 Alpha  occ. eigenvalues --   -0.49175  -0.49017  -0.48981  -0.48739  -0.48561
 Alpha  occ. eigenvalues --   -0.48363  -0.48275  -0.48259  -0.48067  -0.47990
 Alpha  occ. eigenvalues --   -0.47741  -0.47537  -0.47306  -0.47254  -0.47022
 Alpha  occ. eigenvalues --   -0.46884  -0.46683  -0.46531  -0.46202  -0.45913
 Alpha  occ. eigenvalues --   -0.45864  -0.45835  -0.45734  -0.45510  -0.45304
 Alpha  occ. eigenvalues --   -0.45254  -0.45191  -0.44932  -0.44913  -0.44571
 Alpha  occ. eigenvalues --   -0.44567  -0.44456  -0.44174  -0.43902  -0.43630
 Alpha  occ. eigenvalues --   -0.43588  -0.43467  -0.43311  -0.43192  -0.43127
 Alpha  occ. eigenvalues --   -0.42961  -0.42933  -0.42670  -0.42546  -0.42411
 Alpha  occ. eigenvalues --   -0.42249  -0.42220  -0.41989  -0.41376  -0.40966
 Alpha  occ. eigenvalues --   -0.40458  -0.40434  -0.39922  -0.39841  -0.39598
 Alpha  occ. eigenvalues --   -0.39421  -0.39149  -0.38915  -0.38649  -0.38409
 Alpha  occ. eigenvalues --   -0.38110  -0.37625  -0.37508  -0.37079  -0.36596
 Alpha  occ. eigenvalues --   -0.35908  -0.35689  -0.35650  -0.34028  -0.33673
 Alpha  occ. eigenvalues --   -0.33239  -0.32631  -0.32479  -0.32323  -0.32175
 Alpha  occ. eigenvalues --   -0.31999  -0.31656  -0.31480  -0.26254  -0.26104
 Alpha  occ. eigenvalues --   -0.23855  -0.23505
 Alpha virt. eigenvalues --   -0.07972  -0.06978  -0.00748  -0.00600   0.01804
 Alpha virt. eigenvalues --    0.01988   0.04344   0.04545   0.04679   0.05420
 Alpha virt. eigenvalues --    0.06729   0.06735   0.07423   0.07849   0.07976

 Mulliken charges:
               1
     1  Mg   0.950640
     2  C   -0.001444
     3  C   -0.092588
     4  C   -0.057226
     5  C   -0.097655
     6  N   -0.289289
     7  C   -0.079909
     8  C   -0.022256
     9  C   -0.152156
    10  C    0.044851
    11  C    0.020210
    12  C    0.019266
    13  C   -0.121905
    14  H   -0.003185
    15  N   -0.573431
    16  C    0.230563
    17  C   -0.157372
    18  C   -0.064105
    19  C    0.176490
    20  C    0.067648
    21  C    0.057072
    22  O   -0.243271
    23  C   -0.029415
    24  N   -0.281802
    25  C    0.040699
    26  C   -0.118747
    27  C   -0.082450
    28  C    0.022737
    29  C    0.039343
    30  C   -0.018071
    31  C   -0.035005
    32  N   -0.421085
    33  C    0.154806
    34  C   -0.152087
    35  C   -0.029636
    36  C    0.146259
    37  C    0.092550
    38  C    0.133317
    39  O   -0.250651
    40  C   -0.095564
    41  C    0.289089
    42  O   -0.246556
    43  O   -0.409298
    44  C    0.146642
    45  H   -0.006532
    46  H    0.019252
    47  H   -0.015427
    48  H    0.025053
    49  H    0.044105
    50  H    0.036940
    51  H    0.039616
    52  H    0.044107
    53  H    0.028287
    54  H    0.057673
    55  H    0.065766
    56  H    0.078829
    57  H    0.055765
    58  H    0.031546
    59  H    0.060673
    60  H    0.053857
    61  H    0.050865
    62  H    0.060056
    63  H    0.047716
    64  H    0.033928
    65  H    0.061748
    66  H    0.028993
    67  H    0.039263
    68  H    0.034203
    69  H    0.025069
    70  H    0.022690
    71  H    0.040435
    72  H    0.046568
    73  H    0.029876
    74  H    0.045552
    75  H    0.071954
    76  H    0.082474
    77  H    0.044121
    78  H    0.042260
    79  H    0.066696
    80  Mg   0.948678
    81  C    0.000519
    82  C   -0.064876
    83  C   -0.087388
    84  C   -0.085797
    85  N   -0.297967
    86  C   -0.038028
    87  C   -0.036650
    88  C   -0.151848
    89  C    0.082471
    90  C    0.029909
    91  C   -0.001041
    92  C   -0.097782
    93  H    0.043775
    94  N   -0.426013
    95  C    0.122612
    96  C   -0.157847
    97  C   -0.085140
    98  C    0.168983
    99  C    0.086363
   100  C    0.032022
   101  O   -0.271698
   102  C   -0.011431
   103  N   -0.428278
   104  C    0.087202
   105  C   -0.091887
   106  C   -0.113574
   107  C    0.082577
   108  C    0.055255
   109  C   -0.033179
   110  C   -0.022701
   111  N   -0.388625
   112  C    0.120793
   113  C   -0.174849
   114  C    0.039007
   115  C    0.121387
   116  C    0.098375
   117  C    0.025920
   118  O   -0.206318
   119  C   -0.074470
   120  C    0.254142
   121  O   -0.209766
   122  O   -0.358107
   123  C    0.118632
   124  H   -0.004357
   125  H   -0.015927
   126  H    0.009971
   127  H    0.028218
   128  H    0.041451
   129  H    0.039132
   130  H    0.042964
   131  H    0.043368
   132  H    0.044047
   133  H    0.047749
   134  H    0.049696
   135  H    0.043097
   136  H    0.069563
   137  H    0.065468
   138  H    0.029153
   139  H    0.067714
   140  H    0.050353
   141  H    0.051423
   142  H    0.031770
   143  H    0.027929
   144  H    0.049159
   145  H    0.044389
   146  H    0.015807
   147  H    0.024919
   148  H    0.036988
   149  H    0.036024
   150  H    0.032848
   151  H    0.043100
   152  H    0.055749
   153  H    0.023770
   154  H    0.063728
   155  H    0.047911
   156  H    0.048956
   157  H    0.048450
   158  H    0.062057
 Sum of Mulliken charges =  -0.00000

 Dipole moment (field-independent basis, Debye):
    X=              1.8447    Y=              5.5115    Z=             -2.2028  Tot=              6.2154
 Quadrupole moment (field-independent basis, Debye-Ang):
   XX=           -501.2619   YY=           -573.2981   ZZ=           -484.2452
   XY=            -34.8053   XZ=            -27.8578   YZ=            -27.0515

 Normal termination of Gaussian 16 at Sun Sep 19 00:02:26 2021.
