 Gaussian 16, Revision A.03,
 Gaussian 16:  ES64L-G16RevA.03 25-Dec-2016

 --------------------------------
 #p wB97XD/Def2SVP td=(nstates=5)
 --------------------------------

 --------------------------------
 TDDFT excited states in gaussian
 --------------------------------
 Symbolic Z-matrix:
 Charge =  0 Multiplicity = 1

                         Standard orientation:
 ---------------------------------------------------------------------
 Center     Atomic      Atomic             Coordinates (Angstroms)
 Number     Number       Type             X           Y           Z
 ---------------------------------------------------------------------
      1         12           0      -17.769712   -0.855618    0.173791
      2          6           0      -17.764451    2.660185   -0.384040
      3          6           0      -16.695688   -0.261555    3.385666
      4          6           0      -17.774410   -4.145129    0.486808
      5          6           0      -18.398494   -1.348593   -3.330626
      6          7           0      -17.199964    1.040965    1.395761
      7          6           0      -17.401636    2.328047    0.932015
      8          6           0      -17.056679    3.279926    2.128258
      9          6           0      -16.658642    2.319337    3.371571
     10          6           0      -16.845998    0.966086    2.678103
     11          6           0      -15.281702    2.579155    4.017337
     12          6           0      -18.103758    4.419766    2.467641
     13          6           0      -17.577959    5.824518    2.408851
     14          1           0      -16.138330    6.188565    2.659329
     15          7           0      -17.402349   -2.088184    1.834607
     16          6           0      -16.966701   -1.640744    3.042002
     17          6           0      -16.994690   -2.783299    3.918551
     18          6           0      -17.197329   -3.914398    3.098689
     19          6           0      -17.457250   -3.449070    1.697529
     20          6           0      -16.649906   -2.618924    5.408372
     21          6           0      -17.047714   -5.353403    3.489913
     22          8           0      -17.136955   -6.275754    2.645191
     23          6           0      -16.729604   -5.695107    4.898276
     24          7           0      -17.996481   -2.498002   -1.305840
     25          6           0      -18.032864   -3.716459   -0.891505
     26          6           0      -18.381466   -4.856179   -1.989997
     27          6           0      -18.557200   -3.936867   -3.208248
     28          6           0      -18.321008   -2.561795   -2.633122
     29          6           0      -17.190811   -5.879243   -2.083913
     30          6           0      -19.926478   -4.023276   -3.969754
     31          6           0      -21.155468   -3.412889   -3.255095
     32          7           0      -17.897266    0.345653   -1.475959
     33          6           0      -18.129552   -0.023484   -2.821841
     34          6           0      -18.282043    1.209911   -3.605556
     35          6           0      -18.154982    2.280830   -2.688578
     36          6           0      -17.962853    1.702226   -1.388571
     37          6           0      -18.572081    1.279287   -5.134827
     38          6           0      -18.193072    3.644896   -2.622185
     39          8           0      -18.308510    4.501429   -3.474954
     40          6           0      -18.004765    4.009975   -1.123207
     41          6           0      -16.908785    4.944927   -1.014496
     42          8           0      -15.720331    4.627951   -0.890898
     43          8           0      -17.360933    6.237401   -1.305910
     44          6           0      -16.283378    7.252274   -1.410758
     45          1           0      -16.127664   -0.228937    4.318138
     46          1           0      -17.611220   -5.221732    0.569950
     47          1           0      -18.593616   -1.441778   -4.400954
     48          1           0      -16.236456    3.821246    1.658537
     49          1           0      -17.353462    2.500918    4.190338
     50          1           0      -15.386405    2.761615    5.087610
     51          1           0      -14.680683    3.380174    3.587270
     52          1           0      -14.738453    1.648723    3.852161
     53          1           0      -18.538178    4.245910    3.452293
     54          1           0      -18.864939    4.348551    1.690665
     55          1           0      -17.965539    6.332445    3.292682
     56          1           0      -17.905674    6.262739    1.466824
     57          1           0      -16.709061   -1.579311    5.731381
     58          1           0      -15.646773   -2.999360    5.596645
     59          1           0      -17.397255   -3.219335    5.926102
     60          1           0      -17.523968   -5.271309    5.512702
     61          1           0      -15.796434   -5.230776    5.219468
     62          1           0      -16.595950   -6.770121    5.012127
     63          1           0      -19.314635   -5.366469   -1.750186
     64          1           0      -17.700486   -4.047393   -3.873418
     65          1           0      -16.274338   -5.344993   -1.833556
     66          1           0      -17.106276   -6.205597   -3.121070
     67          1           0      -17.233333   -6.773067   -1.460988
     68          1           0      -20.084474   -5.039201   -4.330358
     69          1           0      -19.802382   -3.503724   -4.919379
     70          1           0      -21.165282   -3.461972   -2.166759
     71          1           0      -22.053063   -3.845625   -3.698316
     72          1           0      -21.169346   -2.368725   -3.567166
     73          1           0      -19.400337    1.942536   -5.384425
     74          1           0      -18.742088    0.302452   -5.586182
     75          1           0      -17.791930    1.870197   -5.615371
     76          1           0      -18.954262    4.494259   -0.897497
     77          1           0      -15.678358    7.078210   -2.300197
     78          1           0      -15.574674    7.245291   -0.583429
     79          1           0      -16.766256    8.223044   -1.297485
     80         12           0       17.868877   -0.581550    0.138719
     81          6           0       16.026901    2.332970    0.566701
     82          6           0       20.709068    1.343197    0.181286
     83          6           0       19.697320   -3.427684   -0.547732
     84          6           0       14.951466   -2.393368   -0.458445
     85          7           0       18.294080    1.574520    0.448207
     86          6           0       17.422673    2.562903    0.712742
     87          6           0       18.069906    3.917556    1.083734
     88          6           0       19.589645    3.635812    0.716472
     89          6           0       19.564087    2.069478    0.374089
     90          6           0       20.012390    4.574255   -0.469521
     91          6           0       17.791629    4.159871    2.655387
     92          6           0       17.120576    5.510448    3.042983
     93          1           0       17.273464    6.636170    1.957111
     94          7           0       19.891904   -1.022814   -0.220859
     95          6           0       20.923256   -0.073631   -0.065730
     96          6           0       22.196198   -0.761530   -0.102310
     97          6           0       21.937299   -2.113694   -0.359881
     98          6           0       20.436789   -2.273801   -0.310822
     99          6           0       23.517960    0.014725   -0.189206
    100          6           0       22.961427   -3.254228   -0.601210
    101          8           0       22.669850   -4.444795   -0.820618
    102          6           0       24.458981   -2.920182   -0.489953
    103          7           0       17.341866   -2.589287   -0.498643
    104          6           0       18.343647   -3.595343   -0.653281
    105          6           0       17.718801   -4.894223   -1.204004
    106          6           0       16.172271   -4.627172   -0.894313
    107          6           0       16.150199   -3.114554   -0.550935
    108          6           0       18.131707   -5.080131   -2.654755
    109          6           0       15.669680   -5.486467    0.341432
    110          6           0       16.350460   -5.526991    1.751923
    111          7           0       15.912736   -0.159150   -0.016771
    112          6           0       14.811687   -0.979453   -0.281198
    113          6           0       13.622259   -0.192819   -0.230134
    114          6           0       14.026718    1.078620    0.134722
    115          6           0       15.443196    1.099303    0.157189
    116          6           0       12.211639   -0.633772   -0.563419
    117          6           0       13.557967    2.373237    0.434501
    118          8           0       12.438921    2.769495    0.355745
    119          6           0       14.856002    3.265086    0.611026
    120          6           0       14.853462    4.233098   -0.539683
    121          8           0       15.590037    4.147565   -1.500014
    122          8           0       13.890879    5.132581   -0.304349
    123          6           0       13.474547    5.834158   -1.493922
    124          1           0       21.622571    1.933832    0.274221
    125          1           0       20.270113   -4.243441   -0.992225
    126          1           0       14.028727   -2.944382   -0.654500
    127          1           0       17.669542    4.782477    0.555196
    128          1           0       20.291805    3.765089    1.540419
    129          1           0       20.601895    4.094699   -1.251296
    130          1           0       20.593333    5.301279    0.097260
    131          1           0       19.106874    5.076747   -0.808749
    132          1           0       18.727069    3.964990    3.179442
    133          1           0       17.131494    3.355414    2.980614
    134          1           0       17.660501    5.751959    3.957903
    135          1           0       16.058997    5.446099    3.279911
    136          1           0       24.030090   -0.328662   -1.088399
    137          1           0       24.157306   -0.267506    0.648344
    138          1           0       23.318919    1.085908   -0.198731
    139          1           0       24.717953   -2.340079   -1.376648
    140          1           0       24.978775   -3.871554   -0.601872
    141          1           0       24.679818   -2.567423    0.517168
    142          1           0       18.056923   -5.672523   -0.519262
    143          1           0       15.563465   -4.973864   -1.728552
    144          1           0       19.098641   -4.632770   -2.885569
    145          1           0       17.390453   -4.642919   -3.323312
    146          1           0       18.265214   -6.136706   -2.886064
    147          1           0       15.548058   -6.514235   -0.000769
    148          1           0       14.705177   -5.030793    0.565620
    149          1           0       17.114441   -6.304467    1.739030
    150          1           0       15.552265   -5.785681    2.448655
    151          1           0       16.716934   -4.574675    2.136520
    152          1           0       11.871559   -1.448112    0.076598
    153          1           0       12.288591   -0.989854   -1.590536
    154          1           0       11.427764    0.098298   -0.364213
    155          1           0       14.934890    3.875535    1.510778
    156          1           0       12.428504    6.139516   -1.483887
    157          1           0       13.727858    5.472447   -2.490366
    158          1           0       13.971892    6.795223   -1.626477
 ---------------------------------------------------------------------

 SCF Done:  E(RwB97XD) =  -4070.61243669     A.U. after   19 cycles

 Excitation energies and oscillator strengths:

 Excited State   1:      Singlet-A      1.6515 eV  750.73 nm  f=0.3901  <S**2>=0.000
     310 -> 316       -0.18079
     312 -> 313        0.68427
     310 <- 316       -0.11554
 This state for optimization and/or second-order correction.
 Total Energy, E(TD-HF/TD-DFT) =  -4070.55174480
 Copying the excited state density for this state as the 1-particle RhoCI density.

 Excited State   2:      Singlet-A      1.7177 eV  721.79 nm  f=0.3717  <S**2>=0.000
     309 -> 315        0.19147
     311 -> 314        0.67997
     309 <- 315        0.11531

 Excited State   3:      Singlet-A      2.1591 eV  574.24 nm  f=0.1023  <S**2>=0.000
     309 -> 314        0.63938
     311 -> 315       -0.28256

 Excited State   4:      Singlet-A      2.1707 eV  571.18 nm  f=0.1276  <S**2>=0.000
     310 -> 313        0.64452
     312 -> 316        0.27781

 Excited State   5:      Singlet-A      3.4205 eV  362.47 nm  f=0.0211  <S**2>=0.000
     304 -> 313       -0.50546
     305 -> 313       -0.21935
     307 -> 313        0.35884
     312 -> 316        0.19426

 The electronic state is 1-A.
 Alpha  occ. eigenvalues --  -46.96141 -46.94399 -19.31374 -19.29428 -19.24998
 Alpha  occ. eigenvalues --  -19.24428 -19.24162 -19.23872 -19.23564 -19.22486
 Alpha  occ. eigenvalues --  -14.47258 -14.46819 -14.46448 -14.46003 -14.44372
 Alpha  occ. eigenvalues --  -14.44229 -14.44100 -14.43685 -10.43148 -10.42392
 Alpha  occ. eigenvalues --  -10.39084 -10.39032 -10.38846 -10.37195 -10.35981
 Alpha  occ. eigenvalues --  -10.35803 -10.35653 -10.35581 -10.35096 -10.35083
 Alpha  occ. eigenvalues --  -10.35047 -10.34676 -10.34482 -10.34312 -10.34261
 Alpha  occ. eigenvalues --  -10.34143 -10.33870 -10.33804 -10.33791 -10.33597
 Alpha  occ. eigenvalues --  -10.33595 -10.33585 -10.32946 -10.32878 -10.32706
 Alpha  occ. eigenvalues --  -10.32599 -10.32430 -10.32426 -10.32330 -10.32186
 Alpha  occ. eigenvalues --  -10.32175 -10.32118 -10.32100 -10.32057 -10.31963
 Alpha  occ. eigenvalues --  -10.31898 -10.31894 -10.31737 -10.31690 -10.31668
 Alpha  occ. eigenvalues --  -10.31615 -10.31460 -10.31425 -10.31181 -10.31146
 Alpha  occ. eigenvalues --  -10.31143 -10.31059 -10.31020 -10.30762 -10.30731
 Alpha  occ. eigenvalues --  -10.30555 -10.30503 -10.30468 -10.30259 -10.30208
 Alpha  occ. eigenvalues --  -10.30177 -10.29864 -10.29790 -10.29669 -10.29639
 Alpha  occ. eigenvalues --  -10.29603 -10.29410 -10.29161 -10.29063 -10.28762
 Alpha  occ. eigenvalues --  -10.27821  -3.21947  -3.20433  -1.95546  -1.95098
 Alpha  occ. eigenvalues --   -1.94868  -1.94025  -1.93535  -1.93424  -1.20344
 Alpha  occ. eigenvalues --   -1.16437  -1.14286  -1.11392  -1.11261  -1.10726
 Alpha  occ. eigenvalues --   -1.10466  -1.08437  -1.08119  -1.06167  -1.05765
 Alpha  occ. eigenvalues --   -1.05312  -1.05062  -1.04725  -1.03665  -1.03119
 Alpha  occ. eigenvalues --   -0.94806  -0.94207  -0.91588  -0.90414  -0.90264
 Alpha  occ. eigenvalues --   -0.89970  -0.89658  -0.89610  -0.89223  -0.89006
 Alpha  occ. eigenvalues --   -0.88694  -0.88411  -0.87904  -0.87395  -0.86211
 Alpha  occ. eigenvalues --   -0.85864  -0.85244  -0.85215  -0.84428  -0.84184
 Alpha  occ. eigenvalues --   -0.84136  -0.83140  -0.82787  -0.82586  -0.82018
 Alpha  occ. eigenvalues --   -0.81853  -0.80322  -0.79623  -0.79457  -0.78999
 Alpha  occ. eigenvalues --   -0.78640  -0.78332  -0.77765  -0.77604  -0.76931
 Alpha  occ. eigenvalues --   -0.76868  -0.74946  -0.74484  -0.73527  -0.73123
 Alpha  occ. eigenvalues --   -0.72344  -0.71013  -0.70805  -0.70616  -0.69917
 Alpha  occ. eigenvalues --   -0.69798  -0.68924  -0.68308  -0.67792  -0.67237
 Alpha  occ. eigenvalues --   -0.66877  -0.66575  -0.66525  -0.66440  -0.66200
 Alpha  occ. eigenvalues --   -0.65850  -0.64351  -0.63370  -0.62260  -0.61967
 Alpha  occ. eigenvalues --   -0.61474  -0.61396  -0.60887  -0.60595  -0.60367
 Alpha  occ. eigenvalues --   -0.60083  -0.59979  -0.59860  -0.59504  -0.59222
 Alpha  occ. eigenvalues --   -0.58205  -0.58189  -0.57977  -0.57643  -0.57190
 Alpha  occ. eigenvalues --   -0.56896  -0.56886  -0.56348  -0.55876  -0.55468
 Alpha  occ. eigenvalues --   -0.55295  -0.55210  -0.55043  -0.54923  -0.54780
 Alpha  occ. eigenvalues --   -0.54479  -0.54423  -0.54083  -0.53961  -0.53880
 Alpha  occ. eigenvalues --   -0.53807  -0.53663  -0.53453  -0.53214  -0.52848
 Alpha  occ. eigenvalues --   -0.52704  -0.52561  -0.52439  -0.51828  -0.51743
 Alpha  occ. eigenvalues --   -0.51731  -0.51462  -0.51436  -0.51177  -0.51118
 Alpha  occ. eigenvalues --   -0.51044  -0.50941  -0.50772  -0.50721  -0.50504
 Alpha  occ. eigenvalues --   -0.50466  -0.50205  -0.49953  -0.49866  -0.49834
 Alpha  occ. eigenvalues --   -0.49643  -0.49412  -0.49377  -0.49215  -0.49071
 Alpha  occ. eigenvalues --   -0.48636  -0.48563  -0.48529  -0.48429  -0.48165
 Alpha  occ. eigenvalues --   -0.48082  -0.48072  -0.47730  -0.47720  -0.47468
 Alpha  occ. eigenvalues --   -0.47412  -0.47121  -0.46878  -0.46820  -0.46504
 Alpha  occ. eigenvalues --   -0.46475  -0.46420  -0.46230  -0.46105  -0.45718
 Alpha  occ. eigenvalues --   -0.45651  -0.45646  -0.45556  -0.45385  -0.45350
 Alpha  occ. eigenvalues --   -0.45121  -0.44975  -0.44893  -0.44659  -0.44554
 Alpha  occ. eigenvalues --   -0.44365  -0.44270  -0.44253  -0.43781  -0.43771
 Alpha  occ. eigenvalues --   -0.43723  -0.43689  -0.43538  -0.43368  -0.43248
 Alpha  occ. eigenvalues --   -0.43170  -0.43010  -0.42676  -0.42583  -0.42477
 Alpha  occ. eigenvalues --   -0.42166  -0.41977  -0.41671  -0.41434  -0.41026
 Alpha  occ. eigenvalues --   -0.40999  -0.39646  -0.39375  -0.39076  -0.38963
 Alpha  occ. eigenvalues --   -0.38873  -0.38637  -0.38423  -0.38422  -0.38135
 Alpha  occ. eigenvalues --   -0.38017  -0.37442  -0.36734  -0.36066  -0.35896
 Alpha  occ. eigenvalues --   -0.35537  -0.35298  -0.34913  -0.33790  -0.33526
 Alpha  occ. eigenvalues --   -0.33181  -0.33034  -0.32504  -0.32464  -0.32291
 Alpha  occ. eigenvalues --   -0.31921  -0.31675  -0.31644  -0.25726  -0.25667
 Alpha  occ. eigenvalues --   -0.23054  -0.22762
 Alpha virt. eigenvalues --   -0.06880  -0.06873   0.00143   0.00626   0.02212
 Alpha virt. eigenvalues --    0.02634   0.04445   0.04620   0.05636   0.05702
 Alpha virt. eigenvalues --    0.07128   0.07244   0.08128   0.08345   0.08628

 Mulliken charges:
               1
     1  Mg   0.949085
     2  C    0.012502
     3  C   -0.090503
     4  C   -0.048227
     5  C   -0.087788
     6  N   -0.314626
     7  C   -0.013049
     8  C   -0.056007
     9  C   -0.105087
    10  C    0.077822
    11  C    0.018412
    12  C    0.000063
    13  C   -0.139650
    14  H    0.031667
    15  N   -0.486328
    16  C    0.140150
    17  C   -0.180412
    18  C   -0.072176
    19  C    0.161075
    20  C    0.072949
    21  C    0.036392
    22  O   -0.261897
    23  C    0.006691
    24  N   -0.271953
    25  C    0.015718
    26  C   -0.110022
    27  C    0.029193
    28  C   -0.040056
    29  C   -0.003648
    30  C   -0.032779
    31  C   -0.036095
    32  N   -0.476695
    33  C    0.148451
    34  C   -0.175967
    35  C    0.006819
    36  C    0.138865
    37  C    0.087124
    38  C    0.031568
    39  O   -0.201467
    40  C   -0.063056
    41  C    0.267054
    42  O   -0.263239
    43  O   -0.379068
    44  C    0.150035
    45  H    0.007829
    46  H    0.029020
    47  H   -0.009067
    48  H    0.057266
    49  H    0.044899
    50  H    0.035049
    51  H    0.051830
    52  H    0.033501
    53  H    0.031600
    54  H    0.036280
    55  H    0.048466
    56  H    0.062254
    57  H    0.047854
    58  H    0.064188
    59  H    0.046291
    60  H    0.050867
    61  H    0.050335
    62  H    0.058502
    63  H    0.052375
    64  H    0.036487
    65  H    0.045583
    66  H    0.037060
    67  H    0.064056
    68  H    0.030890
    69  H    0.025073
    70  H    0.049780
    71  H    0.041200
    72  H    0.038635
    73  H    0.043736
    74  H    0.031526
    75  H    0.051165
    76  H    0.073517
    77  H    0.064671
    78  H    0.041718
    79  H    0.053721
    80  Mg   0.964504
    81  C   -0.022068
    82  C   -0.067063
    83  C   -0.064407
    84  C   -0.108270
    85  N   -0.333507
    86  C    0.014143
    87  C   -0.076080
    88  C   -0.120600
    89  C    0.066849
    90  C    0.027405
    91  C   -0.000199
    92  C   -0.127141
    93  H    0.035030
    94  N   -0.460785
    95  C    0.133457
    96  C   -0.174310
    97  C   -0.090060
    98  C    0.138039
    99  C    0.086630
   100  C    0.051284
   101  O   -0.252431
   102  C   -0.016451
   103  N   -0.338853
   104  C    0.022074
   105  C   -0.061442
   106  C   -0.072315
   107  C    0.096936
   108  C    0.042016
   109  C   -0.059412
   110  C   -0.054426
   111  N   -0.488710
   112  C    0.148416
   113  C   -0.184026
   114  C   -0.008127
   115  C    0.147969
   116  C    0.079516
   117  C    0.095230
   118  O   -0.162761
   119  C   -0.097591
   120  C    0.245680
   121  O   -0.237022
   122  O   -0.309761
   123  C    0.140897
   124  H   -0.012953
   125  H    0.030830
   126  H    0.003282
   127  H    0.039881
   128  H    0.038807
   129  H    0.052163
   130  H    0.032861
   131  H    0.049494
   132  H    0.033206
   133  H    0.042313
   134  H    0.056986
   135  H    0.070043
   136  H    0.044550
   137  H    0.039271
   138  H    0.041518
   139  H    0.061843
   140  H    0.044450
   141  H    0.064006
   142  H    0.035075
   143  H    0.030298
   144  H    0.046265
   145  H    0.035085
   146  H    0.037239
   147  H    0.038893
   148  H    0.021494
   149  H    0.047705
   150  H    0.037222
   151  H    0.043644
   152  H    0.037560
   153  H    0.056890
   154  H    0.057422
   155  H    0.056415
   156  H    0.058073
   157  H    0.054748
   158  H    0.025173
 Sum of Mulliken charges =  -0.00000

 Dipole moment (field-independent basis, Debye):
    X=             -0.5184    Y=             -0.7195    Z=              5.7831  Tot=              5.8506
 Quadrupole moment (field-independent basis, Debye-Ang):
   XX=           -444.4856   YY=           -508.8300   ZZ=           -476.5652
   XY=             94.6961   XZ=            -23.4851   YZ=             28.9182

 Normal termination of Gaussian 16 at Sun Sep 19 05:37:18 2021.
