 Gaussian 16, Revision A.03,
 Gaussian 16:  ES64L-G16RevA.03 25-Dec-2016

 --------------------------------
 #p wB97XD/Def2SVP td=(nstates=5)
 --------------------------------

 --------------------------------
 TDDFT excited states in gaussian
 --------------------------------
 Symbolic Z-matrix:
 Charge =  0 Multiplicity = 1

                         Standard orientation:
 ---------------------------------------------------------------------
 Center     Atomic      Atomic             Coordinates (Angstroms)
 Number     Number       Type             X           Y           Z
 ---------------------------------------------------------------------
      1         12           0       23.975542    0.356973   -0.311178
      2          6           0       22.215854   -1.700855    2.038675
      3          6           0       23.233192    3.066172    1.688994
      4          6           0       25.023480    2.256086   -2.754619
      5          6           0       24.397595   -2.491113   -2.240093
      6          7           0       22.573068    0.690105    1.561622
      7          6           0       22.111228   -0.336780    2.339651
      8          6           0       21.664202    0.219034    3.718287
      9          6           0       21.932561    1.777295    3.595344
     10          6           0       22.611700    1.916154    2.184155
     11          6           0       20.687716    2.755095    3.702405
     12          6           0       22.395632   -0.389552    4.944437
     13          6           0       21.572828   -0.776217    6.121526
     14          1           0       20.117222   -0.230329    6.383072
     15          7           0       24.118347    2.439975   -0.548262
     16          6           0       23.896063    3.411962    0.426843
     17          6           0       24.142391    4.742019   -0.162534
     18          6           0       24.780807    4.487236   -1.436711
     19          6           0       24.655999    3.024826   -1.637351
     20          6           0       23.859681    6.061839    0.488901
     21          6           0       25.433679    5.450258   -2.456117
     22          8           0       26.216449    5.105913   -3.366606
     23          6           0       25.253545    6.898293   -2.235162
     24          7           0       24.537736   -0.067438   -2.179593
     25          6           0       24.876085    0.955887   -3.037544
     26          6           0       25.517066    0.405786   -4.341755
     27          6           0       25.641018   -1.140988   -3.982562
     28          6           0       24.821918   -1.258344   -2.708893
     29          6           0       24.775433    0.679750   -5.713322
     30          6           0       27.043018   -1.694394   -3.782610
     31          6           0       27.501987   -2.740523   -4.819929
     32          7           0       23.609210   -1.712934   -0.087260
     33          6           0       23.812309   -2.742083   -0.975934
     34          6           0       23.276303   -3.993808   -0.425338
     35          6           0       22.703061   -3.612922    0.774951
     36          6           0       22.923652   -2.227481    0.941655
     37          6           0       23.260343   -5.358890   -1.029990
     38          6           0       22.021921   -4.154673    1.895333
     39          8           0       21.748437   -5.342824    2.228538
     40          6           0       21.681091   -2.994246    2.730806
     41          6           0       20.208295   -2.991763    3.039462
     42          8           0       19.345397   -2.762695    2.262566
     43          8           0       20.016547   -3.217659    4.338951
     44          6           0       18.716654   -3.564227    4.804432
     45          1           0       23.032086    3.978117    2.255291
     46          1           0       25.438059    2.755655   -3.633693
     47          1           0       24.466344   -3.365550   -2.889292
     48          1           0       20.598783   -0.001063    3.795181
     49          1           0       22.656387    2.089188    4.347671
     50          1           0       19.751776    2.287510    4.006868
     51          1           0       20.496845    3.128800    2.695361
     52          1           0       20.923402    3.602578    4.346803
     53          1           0       23.138549    0.284737    5.372076
     54          1           0       22.925471   -1.310934    4.704439
     55          1           0       22.068416   -0.453644    7.037691
     56          1           0       21.509672   -1.864022    6.126613
     57          1           0       23.232533    6.662743   -0.169299
     58          1           0       24.823624    6.557590    0.603595
     59          1           0       23.519967    5.937165    1.517600
     60          1           0       24.188400    7.112642   -2.323008
     61          1           0       25.746337    7.380890   -3.078827
     62          1           0       25.762936    7.242542   -1.335509
     63          1           0       26.520245    0.832238   -4.371598
     64          1           0       25.181299   -1.690171   -4.804182
     65          1           0       23.869759    1.259916   -5.540168
     66          1           0       24.607071   -0.225576   -6.297796
     67          1           0       25.463041    1.247605   -6.340291
     68          1           0       27.293876   -2.039531   -2.779488
     69          1           0       27.728808   -0.858826   -3.918666
     70          1           0       28.018582   -3.621135   -4.438676
     71          1           0       28.323918   -2.286584   -5.374179
     72          1           0       26.721648   -3.124774   -5.475445
     73          1           0       23.976865   -5.465011   -1.845011
     74          1           0       22.316204   -5.526227   -1.548151
     75          1           0       23.322712   -6.063376   -0.200679
     76          1           0       22.251309   -3.114574    3.651558
     77          1           0       18.547801   -4.595644    4.491768
     78          1           0       17.949892   -2.990852    4.283240
     79          1           0       18.668126   -3.538841    5.893379
     80         12           0      -23.674238    0.547346    0.591641
     81          6           0      -22.158525   -2.575474   -0.510882
     82          6           0      -20.524799    1.914633    0.558013
     83          6           0      -25.066882    3.550974    0.121353
     84          6           0      -26.693007   -1.008681    0.701911
     85          7           0      -21.593783   -0.233151   -0.122180
     86          6           0      -21.212833   -1.581601   -0.460542
     87          6           0      -19.685882   -1.677127   -0.524363
     88          6           0      -19.186790   -0.375996    0.170482
     89          6           0      -20.486174    0.540286    0.247429
     90          6           0      -18.587633   -0.619833    1.635830
     91          6           0      -19.073617   -2.018868   -1.851281
     92          6           0      -19.955262   -1.845735   -3.110573
     93          1           0      -19.527207   -2.064722   -4.573196
     94          7           0      -22.896395    2.514366    0.506941
     95          6           0      -21.561820    2.854620    0.489070
     96          6           0      -21.463010    4.347205    0.522873
     97          6           0      -22.765840    4.775168    0.280691
     98          6           0      -23.668043    3.626926    0.234357
     99          6           0      -20.144371    5.023627    0.652524
    100          6           0      -23.180294    6.261457    0.076131
    101          8           0      -22.296045    7.098711    0.041564
    102          6           0      -24.567150    6.721018   -0.230240
    103          7           0      -25.626691    1.101154    0.281408
    104          6           0      -25.929439    2.462124    0.259045
    105          6           0      -27.440644    2.688087    0.304738
    106          6           0      -27.980956    1.294201    0.789929
    107          6           0      -26.726369    0.432368    0.631218
    108          6           0      -27.988845    3.852810    1.168789
    109          6           0      -29.230294    0.739265    0.033446
    110          6           0      -30.609041    0.779027    0.838303
    111          7           0      -24.340783   -1.411790    0.268700
    112          6           0      -25.625319   -1.907024    0.439814
    113          6           0      -25.593376   -3.345016    0.333401
    114          6           0      -24.285705   -3.587675   -0.108507
    115          6           0      -23.573071   -2.363185   -0.101041
    116          6           0      -26.832543   -4.241605    0.499574
    117          6           0      -23.344475   -4.600231   -0.477323
    118          8           0      -23.578962   -5.825362   -0.499218
    119          6           0      -21.861632   -4.038180   -0.627090
    120          6           0      -21.413390   -4.534876   -1.943335
    121          8           0      -22.031647   -4.460772   -3.010468
    122          8           0      -20.141283   -4.972453   -1.776762
    123          6           0      -19.533506   -5.700848   -2.934230
    124          1           0      -19.525077    2.351987    0.529961
    125          1           0      -25.507647    4.540516   -0.018326
    126          1           0      -27.655205   -1.497129    0.867161
    127          1           0      -19.572441   -2.513097    0.165888
    128          1           0      -18.522599    0.215377   -0.460027
    129          1           0      -17.530497   -0.388290    1.511805
    130          1           0      -18.795776   -1.643889    1.946736
    131          1           0      -19.060838    0.128799    2.272220
    132          1           0      -18.667257   -3.024434   -1.744137
    133          1           0      -18.227232   -1.331378   -1.865916
    134          1           0      -20.328675   -0.823290   -3.045256
    135          1           0      -20.807360   -2.523430   -3.054364
    136          1           0      -19.960363    5.503067   -0.308480
    137          1           0      -19.396702    4.266850    0.888042
    138          1           0      -20.174688    5.715067    1.495331
    139          1           0      -25.013763    6.415872   -1.175795
    140          1           0      -24.635769    7.802460   -0.344325
    141          1           0      -25.084291    6.400617    0.674091
    142          1           0      -27.577424    2.881898   -0.759767
    143          1           0      -28.165847    1.431341    1.855575
    144          1           0      -28.241494    4.742171    0.590570
    145          1           0      -27.219046    4.182021    1.865939
    146          1           0      -28.832096    3.464637    1.741103
    147          1           0      -29.113824   -0.279575   -0.337068
    148          1           0      -29.277921    1.346495   -0.870579
    149          1           0      -31.299898    1.144450    0.078925
    150          1           0      -30.614459    1.432580    1.710752
    151          1           0      -30.770883   -0.224355    1.230559
    152          1           0      -26.633438   -5.247584    0.869644
    153          1           0      -27.172916   -4.307826   -0.533231
    154          1           0      -27.486187   -3.840431    1.273803
    155          1           0      -21.253896   -4.404137    0.201763
    156          1           0      -18.514006   -5.992417   -2.679462
    157          1           0      -19.482517   -5.064572   -3.817979
    158          1           0      -20.207079   -6.549677   -3.043381
 ---------------------------------------------------------------------

 SCF Done:  E(RwB97XD) =  -4070.57209285     A.U. after   19 cycles

 Excitation energies and oscillator strengths:

 Excited State   1:      Singlet-A      1.6104 eV  769.88 nm  f=0.3550  <S**2>=0.000
     309 -> 315       -0.16149
     312 -> 314        0.68856
     309 <- 315       -0.10999
 This state for optimization and/or second-order correction.
 Total Energy, E(TD-HF/TD-DFT) =  -4070.51291047
 Copying the excited state density for this state as the 1-particle RhoCI density.

 Excited State   2:      Singlet-A      1.6708 eV  742.05 nm  f=0.4220  <S**2>=0.000
     310 -> 316        0.18115
     311 -> 313        0.68457
     310 <- 316        0.11413

 Excited State   3:      Singlet-A      2.1575 eV  574.66 nm  f=0.1257  <S**2>=0.000
     310 -> 313        0.64763
     311 -> 316       -0.26956

 Excited State   4:      Singlet-A      2.2276 eV  556.58 nm  f=0.0764  <S**2>=0.000
     309 -> 314        0.61815
     312 -> 315        0.32514

 Excited State   5:      Singlet-A      3.3588 eV  369.13 nm  f=0.1108  <S**2>=0.000
     305 -> 314       -0.46190
     308 -> 314        0.33570
     308 -> 318       -0.13915
     308 -> 321       -0.15412
     309 -> 314       -0.10207
     312 -> 315        0.29973

 The electronic state is 1-A.
 Alpha  occ. eigenvalues --  -46.95645 -46.95256 -19.30553 -19.30254 -19.24622
 Alpha  occ. eigenvalues --  -19.24339 -19.24198 -19.24136 -19.23524 -19.22085
 Alpha  occ. eigenvalues --  -14.47064 -14.46664 -14.46229 -14.46187 -14.44357
 Alpha  occ. eigenvalues --  -14.44340 -14.44112 -14.43258 -10.42952 -10.42922
 Alpha  occ. eigenvalues --  -10.39518 -10.38874 -10.38803 -10.37516 -10.36053
 Alpha  occ. eigenvalues --  -10.35852 -10.35786 -10.35740 -10.35264 -10.35085
 Alpha  occ. eigenvalues --  -10.35002 -10.34957 -10.34945 -10.34943 -10.34685
 Alpha  occ. eigenvalues --  -10.34518 -10.34128 -10.33667 -10.33481 -10.33391
 Alpha  occ. eigenvalues --  -10.33056 -10.33002 -10.32944 -10.32814 -10.32797
 Alpha  occ. eigenvalues --  -10.32557 -10.32551 -10.32444 -10.32390 -10.32371
 Alpha  occ. eigenvalues --  -10.32316 -10.32309 -10.32178 -10.31956 -10.31871
 Alpha  occ. eigenvalues --  -10.31846 -10.31674 -10.31662 -10.31615 -10.31570
 Alpha  occ. eigenvalues --  -10.31542 -10.31385 -10.31269 -10.31258 -10.31217
 Alpha  occ. eigenvalues --  -10.31105 -10.31085 -10.30871 -10.30817 -10.30798
 Alpha  occ. eigenvalues --  -10.30785 -10.30730 -10.30697 -10.30428 -10.30229
 Alpha  occ. eigenvalues --  -10.30213 -10.30157 -10.29880 -10.29860 -10.29766
 Alpha  occ. eigenvalues --  -10.29743 -10.29400 -10.29324 -10.29284 -10.29166
 Alpha  occ. eigenvalues --  -10.27936  -3.21586  -3.21277  -1.95143  -1.94849
 Alpha  occ. eigenvalues --   -1.94729  -1.94536  -1.94412  -1.94246  -1.20843
 Alpha  occ. eigenvalues --   -1.18218  -1.12947  -1.11943  -1.10461  -1.10389
 Alpha  occ. eigenvalues --   -1.09627  -1.08845  -1.06922  -1.06821  -1.06024
 Alpha  occ. eigenvalues --   -1.05815  -1.04918  -1.04520  -1.03781  -1.02343
 Alpha  occ. eigenvalues --   -0.95650  -0.93871  -0.91254  -0.91043  -0.90876
 Alpha  occ. eigenvalues --   -0.90492  -0.90419  -0.90253  -0.89750  -0.88793
 Alpha  occ. eigenvalues --   -0.88778  -0.88638  -0.88218  -0.87990  -0.86533
 Alpha  occ. eigenvalues --   -0.86284  -0.85590  -0.85410  -0.84659  -0.84528
 Alpha  occ. eigenvalues --   -0.84251  -0.83972  -0.83665  -0.82906  -0.82486
 Alpha  occ. eigenvalues --   -0.82106  -0.80257  -0.80017  -0.79677  -0.79651
 Alpha  occ. eigenvalues --   -0.79102  -0.78411  -0.78286  -0.77913  -0.77182
 Alpha  occ. eigenvalues --   -0.77129  -0.75203  -0.74993  -0.73679  -0.73482
 Alpha  occ. eigenvalues --   -0.71554  -0.71394  -0.70958  -0.70945  -0.69556
 Alpha  occ. eigenvalues --   -0.69447  -0.68913  -0.68219  -0.68134  -0.67860
 Alpha  occ. eigenvalues --   -0.67367  -0.66880  -0.66836  -0.66674  -0.66478
 Alpha  occ. eigenvalues --   -0.65507  -0.65044  -0.64101  -0.62323  -0.61894
 Alpha  occ. eigenvalues --   -0.61659  -0.61316  -0.61150  -0.61109  -0.61020
 Alpha  occ. eigenvalues --   -0.60203  -0.59925  -0.59747  -0.59518  -0.59181
 Alpha  occ. eigenvalues --   -0.58755  -0.58443  -0.58151  -0.58097  -0.57143
 Alpha  occ. eigenvalues --   -0.57091  -0.56907  -0.56520  -0.56172  -0.55712
 Alpha  occ. eigenvalues --   -0.55621  -0.55434  -0.55345  -0.55238  -0.54930
 Alpha  occ. eigenvalues --   -0.54739  -0.54680  -0.54512  -0.54364  -0.54238
 Alpha  occ. eigenvalues --   -0.53728  -0.53655  -0.53509  -0.53426  -0.53369
 Alpha  occ. eigenvalues --   -0.53137  -0.53046  -0.52979  -0.52570  -0.52038
 Alpha  occ. eigenvalues --   -0.51957  -0.51889  -0.51800  -0.51539  -0.51526
 Alpha  occ. eigenvalues --   -0.51273  -0.51017  -0.50832  -0.50707  -0.50706
 Alpha  occ. eigenvalues --   -0.50548  -0.50253  -0.50221  -0.50156  -0.50063
 Alpha  occ. eigenvalues --   -0.49690  -0.49626  -0.49555  -0.49346  -0.49112
 Alpha  occ. eigenvalues --   -0.48871  -0.48850  -0.48776  -0.48713  -0.48470
 Alpha  occ. eigenvalues --   -0.48176  -0.48139  -0.48082  -0.47994  -0.47762
 Alpha  occ. eigenvalues --   -0.47654  -0.47407  -0.47194  -0.47108  -0.46882
 Alpha  occ. eigenvalues --   -0.46759  -0.46512  -0.46431  -0.46323  -0.45926
 Alpha  occ. eigenvalues --   -0.45836  -0.45635  -0.45394  -0.45369  -0.45303
 Alpha  occ. eigenvalues --   -0.44910  -0.44862  -0.44645  -0.44597  -0.44528
 Alpha  occ. eigenvalues --   -0.44480  -0.44227  -0.44144  -0.44054  -0.43901
 Alpha  occ. eigenvalues --   -0.43844  -0.43671  -0.43558  -0.43414  -0.43142
 Alpha  occ. eigenvalues --   -0.42952  -0.42900  -0.42773  -0.42189  -0.42004
 Alpha  occ. eigenvalues --   -0.41816  -0.41579  -0.41239  -0.41038  -0.40988
 Alpha  occ. eigenvalues --   -0.40438  -0.40090  -0.39853  -0.39348  -0.39230
 Alpha  occ. eigenvalues --   -0.39105  -0.38580  -0.38555  -0.38278  -0.38264
 Alpha  occ. eigenvalues --   -0.37789  -0.37771  -0.36677  -0.36305  -0.36128
 Alpha  occ. eigenvalues --   -0.35805  -0.35168  -0.34915  -0.33738  -0.33728
 Alpha  occ. eigenvalues --   -0.33577  -0.33161  -0.32873  -0.32611  -0.32315
 Alpha  occ. eigenvalues --   -0.31600  -0.31537  -0.31141  -0.26390  -0.26054
 Alpha  occ. eigenvalues --   -0.23122  -0.22572
 Alpha virt. eigenvalues --   -0.07292  -0.06914   0.00137   0.00441   0.01841
 Alpha virt. eigenvalues --    0.03153   0.04113   0.04479   0.04646   0.05394
 Alpha virt. eigenvalues --    0.07089   0.07781   0.07805   0.08341   0.08472

 Mulliken charges:
               1
     1  Mg   0.968276
     2  C   -0.020894
     3  C   -0.037285
     4  C   -0.068970
     5  C   -0.100300
     6  N   -0.318749
     7  C   -0.004601
     8  C   -0.025643
     9  C   -0.108463
    10  C    0.038709
    11  C    0.011080
    12  C    0.007065
    13  C   -0.131867
    14  H    0.014316
    15  N   -0.444921
    16  C    0.109632
    17  C   -0.188504
    18  C   -0.082166
    19  C    0.150584
    20  C    0.090915
    21  C    0.056834
    22  O   -0.260087
    23  C   -0.010248
    24  N   -0.428891
    25  C    0.096374
    26  C   -0.123039
    27  C   -0.081956
    28  C    0.106377
    29  C    0.027984
    30  C    0.012434
    31  C   -0.064934
    32  N   -0.411409
    33  C    0.113870
    34  C   -0.170853
    35  C   -0.051549
    36  C    0.143813
    37  C    0.088546
    38  C    0.114949
    39  O   -0.251341
    40  C   -0.028927
    41  C    0.225634
    42  O   -0.205804
    43  O   -0.332386
    44  C    0.138703
    45  H   -0.013860
    46  H    0.020139
    47  H   -0.001498
    48  H    0.046131
    49  H    0.041920
    50  H    0.041049
    51  H    0.040365
    52  H    0.039980
    53  H    0.033340
    54  H    0.031225
    55  H    0.045759
    56  H    0.057642
    57  H    0.058257
    58  H    0.041361
    59  H    0.035344
    60  H    0.054159
    61  H    0.046936
    62  H    0.066249
    63  H    0.046355
    64  H    0.023304
    65  H    0.051623
    66  H    0.034850
    67  H    0.038271
    68  H    0.040937
    69  H    0.022562
    70  H    0.029654
    71  H    0.032299
    72  H    0.037096
    73  H    0.030961
    74  H    0.058228
    75  H    0.072589
    76  H    0.069279
    77  H    0.047677
    78  H    0.056353
    79  H    0.061153
    80  Mg   0.953966
    81  C   -0.033110
    82  C   -0.082897
    83  C   -0.079709
    84  C   -0.082980
    85  N   -0.368271
    86  C   -0.053344
    87  C   -0.005028
    88  C   -0.142294
    89  C    0.044389
    90  C    0.037055
    91  C    0.030656
    92  C   -0.102232
    93  H    0.037304
    94  N   -0.470933
    95  C    0.144949
    96  C   -0.159813
    97  C   -0.079541
    98  C    0.169625
    99  C    0.104656
   100  C    0.036114
   101  O   -0.227571
   102  C    0.002029
   103  N   -0.386305
   104  C    0.091515
   105  C   -0.126888
   106  C   -0.015447
   107  C    0.025742
   108  C    0.031654
   109  C   -0.022305
   110  C   -0.061800
   111  N   -0.377946
   112  C    0.092414
   113  C   -0.180504
   114  C   -0.010837
   115  C    0.118875
   116  C    0.073282
   117  C    0.083813
   118  O   -0.250547
   119  C   -0.041266
   120  C    0.265251
   121  O   -0.260785
   122  O   -0.368580
   123  C    0.138608
   124  H    0.004120
   125  H   -0.041793
   126  H   -0.009009
   127  H    0.025755
   128  H    0.040003
   129  H    0.048701
   130  H    0.050486
   131  H    0.040810
   132  H    0.031502
   133  H    0.017663
   134  H    0.047105
   135  H    0.072049
   136  H    0.073579
   137  H    0.022240
   138  H    0.060957
   139  H    0.076681
   140  H    0.048869
   141  H    0.056597
   142  H    0.052210
   143  H    0.031502
   144  H    0.041494
   145  H    0.036523
   146  H    0.042382
   147  H    0.044488
   148  H    0.024543
   149  H    0.051160
   150  H    0.034936
   151  H    0.047434
   152  H    0.051622
   153  H    0.071753
   154  H    0.038732
   155  H    0.074332
   156  H    0.059729
   157  H    0.067150
   158  H    0.072733
 Sum of Mulliken charges =  -0.00000

 Dipole moment (field-independent basis, Debye):
    X=              0.7159    Y=              4.8995    Z=              4.9684  Tot=              7.0145
 Quadrupole moment (field-independent basis, Debye-Ang):
   XX=           -380.5323   YY=           -547.8949   ZZ=           -491.6817
   XY=            -79.8341   XZ=            -46.8338   YZ=             18.8161

 Normal termination of Gaussian 16 at Mon Sep 20 08:39:13 2021.
