 Gaussian 16, Revision A.03,
 Gaussian 16:  ES64L-G16RevA.03 25-Dec-2016

 --------------------------------
 #p wB97XD/Def2SVP td=(nstates=5)
 --------------------------------

 --------------------------------
 TDDFT excited states in gaussian
 --------------------------------
 Symbolic Z-matrix:
 Charge =  0 Multiplicity = 1

                         Standard orientation:
 ---------------------------------------------------------------------
 Center     Atomic      Atomic             Coordinates (Angstroms)
 Number     Number       Type             X           Y           Z
 ---------------------------------------------------------------------
      1         12           0       12.635975    0.307499    0.507459
      2          6           0        9.410506   -0.608676   -0.454362
      3          6           0       13.019032    1.972246   -2.348895
      4          6           0       16.014009   -0.022487    0.913779
      5          6           0       12.204911   -1.490422    3.460073
      6          7           0       11.277958    0.784264   -1.154140
      7          6           0       10.042960    0.322213   -1.307366
      8          6           0        9.393919    1.008065   -2.563590
      9          6           0       10.604291    1.731745   -3.200781
     10          6           0       11.728817    1.476831   -2.201605
     11          6           0       11.081869    1.099996   -4.601262
     12          6           0        8.199741    2.018327   -2.246352
     13          6           0        7.074213    1.885789   -3.214096
     14          1           0        6.532538    3.126119   -3.907934
     15          7           0       14.273993    0.921570   -0.568182
     16          6           0       14.228508    1.632277   -1.738235
     17          6           0       15.569818    2.164897   -2.015260
     18          6           0       16.435842    1.573137   -1.053834
     19          6           0       15.564440    0.737681   -0.210938
     20          6           0       15.888814    3.081772   -3.239033
     21          6           0       17.985339    1.691045   -0.935675
     22          8           0       18.652732    1.145070   -0.064268
     23          6           0       18.694758    2.537928   -1.923484
     24          7           0       13.897076   -0.614650    1.903344
     25          6           0       15.292227   -0.695346    1.861289
     26          6           0       15.788805   -1.670367    2.960682
     27          6           0       14.646518   -1.570375    4.064318
     28          6           0       13.524265   -1.184965    3.059270
     29          6           0       16.099033   -3.084850    2.425573
     30          6           0       14.809181   -0.522866    5.128862
     31          6           0       14.500043    0.918310    4.851265
     32          7           0       11.099762   -0.664446    1.487768
     33          6           0       11.060006   -1.385899    2.658482
     34          6           0        9.731392   -1.948015    2.911784
     35          6           0        9.036544   -1.754561    1.634031
     36          6           0        9.945619   -0.973404    0.819376
     37          6           0        9.335021   -2.739722    4.050262
     38          6           0        7.822406   -2.030429    0.875692
     39          8           0        6.871875   -2.678628    1.107985
     40          6           0        8.000137   -1.210033   -0.506153
     41          6           0        7.683558   -2.006335   -1.746814
     42          8           0        8.499165   -2.643439   -2.406781
     43          8           0        6.339451   -1.815228   -2.065411
     44          6           0        5.822635   -2.484667   -3.272828
     45          1           0       13.267748    2.700044   -3.124542
     46          1           0       17.102043   -0.101624    0.969716
     47          1           0       12.109441   -1.954167    4.443715
     48          1           0        9.045068    0.279149   -3.295511
     49          1           0       10.471711    2.790252   -3.424505
     50          1           0       10.559540    1.647336   -5.386185
     51          1           0       10.809181    0.056931   -4.759668
     52          1           0       12.155012    1.270469   -4.694955
     53          1           0        8.530350    3.056599   -2.278996
     54          1           0        7.771431    1.940854   -1.246928
     55          1           0        6.248819    1.554795   -2.584396
     56          1           0        7.169921    1.149777   -4.011868
     57          1           0       16.159064    2.405534   -4.049576
     58          1           0       16.653974    3.820538   -2.999371
     59          1           0       15.007934    3.529083   -3.700764
     60          1           0       18.421721    2.537512   -2.978616
     61          1           0       19.759281    2.305551   -1.906816
     62          1           0       18.792311    3.547463   -1.523184
     63          1           0       16.689471   -1.186134    3.336975
     64          1           0       14.475621   -2.520228    4.570636
     65          1           0       15.604739   -3.916429    2.927855
     66          1           0       17.161455   -3.267144    2.262374
     67          1           0       15.741681   -3.178437    1.400229
     68          1           0       15.810231   -0.469638    5.555133
     69          1           0       14.174230   -0.806021    5.968487
     70          1           0       13.474930    1.006108    5.210731
     71          1           0       14.490930    1.210349    3.800926
     72          1           0       15.181966    1.548466    5.423129
     73          1           0        8.297643   -2.470497    4.249750
     74          1           0        9.953702   -2.424453    4.890099
     75          1           0        9.406360   -3.800995    3.814172
     76          1           0        7.295853   -0.378780   -0.472600
     77          1           0        6.081343   -3.540176   -3.184503
     78          1           0        6.313397   -2.103419   -4.167934
     79          1           0        4.760063   -2.424745   -3.508886
     80         12           0      -12.214725   -0.412217   -0.506797
     81          6           0      -11.922564    2.881711    0.725704
     82          6           0       -8.811167   -0.367423   -1.269341
     83          6           0      -12.335960   -3.812659   -0.698309
     84          6           0      -15.535967   -0.399413    0.834487
     85          7           0      -10.619559    1.081617   -0.321267
     86          6           0      -10.719569    2.313444    0.221799
     87          6           0       -9.319798    3.004224    0.309244
     88          6           0       -8.480234    2.070130   -0.678333
     89          6           0       -9.376933    0.797986   -0.822115
     90          6           0       -8.137939    2.537065   -2.111343
     91          6           0       -8.830008    2.975513    1.806411
     92          6           0       -8.034226    4.238895    2.236845
     93          1           0       -6.777855    3.972492    3.162163
     94          7           0      -10.793979   -1.917558   -1.136409
     95          6           0       -9.487425   -1.638766   -1.438404
     96          6           0       -8.901050   -2.854652   -1.857911
     97          6           0       -9.835456   -3.913696   -1.656807
     98          6           0      -11.095814   -3.247124   -1.186583
     99          6           0       -7.479098   -3.007832   -2.343750
    100          6           0       -9.561086   -5.376606   -1.739599
    101          8           0       -8.438325   -5.812575   -1.937299
    102          6           0      -10.541154   -6.410929   -1.533519
    103          7           0      -13.738140   -1.899319    0.122147
    104          6           0      -13.560164   -3.240467   -0.248364
    105          6           0      -14.819278   -4.018985   -0.027375
    106          6           0      -15.847975   -2.965677    0.527839
    107          6           0      -15.033257   -1.683854    0.508090
    108          6           0      -15.237494   -4.677146   -1.348428
    109          6           0      -16.575116   -3.424056    1.847762
    110          6           0      -18.072748   -3.469308    1.815448
    111          7           0      -13.548766    0.964569    0.551299
    112          6           0      -14.852722    0.813802    0.954915
    113          6           0      -15.396436    2.102928    1.435814
    114          6           0      -14.219423    2.897013    1.405377
    115          6           0      -13.191637    2.201081    0.797058
    116          6           0      -16.767895    2.421413    2.010312
    117          6           0      -13.694795    4.163693    1.841792
    118          8           0      -14.247350    5.080834    2.469003
    119          6           0      -12.225638    4.259801    1.431296
    120          6           0      -11.978305    5.455951    0.604762
    121          8           0      -11.212016    6.293866    0.916667
    122          8           0      -12.562566    5.400446   -0.627529
    123          6           0      -12.065529    6.492630   -1.492166
    124          1           0       -7.767497   -0.363427   -1.592006
    125          1           0      -12.331896   -4.889792   -0.872492
    126          1           0      -16.496160   -0.215956    1.322300
    127          1           0       -9.426282    4.029048   -0.046849
    128          1           0       -7.634357    1.554506   -0.223955
    129          1           0       -8.872829    3.263897   -2.459267
    130          1           0       -8.036254    1.755821   -2.864683
    131          1           0       -7.186631    3.061605   -2.028648
    132          1           0       -8.253549    2.072170    2.007843
    133          1           0       -9.747378    2.904906    2.390911
    134          1           0       -8.777812    4.833514    2.767805
    135          1           0       -7.818685    4.720463    1.282788
    136          1           0       -7.270812   -3.880894   -2.962332
    137          1           0       -6.901163   -3.050252   -1.420949
    138          1           0       -7.007308   -2.118024   -2.760638
    139          1           0      -11.304986   -6.276564   -2.300492
    140          1           0      -10.945052   -6.375575   -0.521323
    141          1           0      -10.053262   -7.377527   -1.659361
    142          1           0      -14.696168   -4.721276    0.796736
    143          1           0      -16.603768   -2.586317   -0.160237
    144          1           0      -14.445291   -4.681482   -2.097484
    145          1           0      -16.073999   -4.154771   -1.812632
    146          1           0      -15.343843   -5.751447   -1.200825
    147          1           0      -16.230264   -2.720461    2.605486
    148          1           0      -16.376191   -4.458407    2.125817
    149          1           0      -18.428895   -2.857041    2.643497
    150          1           0      -18.452513   -4.475965    1.991134
    151          1           0      -18.489576   -3.213610    0.841247
    152          1           0      -16.851085    2.167184    3.067175
    153          1           0      -17.586655    1.984286    1.437391
    154          1           0      -16.754389    3.510750    1.977017
    155          1           0      -11.612048    4.452509    2.310397
    156          1           0      -12.561833    6.400573   -2.458597
    157          1           0      -10.983345    6.431657   -1.606494
    158          1           0      -12.370120    7.489752   -1.176126
 ---------------------------------------------------------------------

 SCF Done:  E(RwB97XD) =  -4070.59179735     A.U. after   19 cycles

 Excitation energies and oscillator strengths:

 Excited State   1:      Singlet-A      1.6180 eV  766.27 nm  f=0.5160  <S**2>=0.000
     309 -> 315        0.16416
     311 -> 313        0.62927
     312 -> 314        0.26985
     309 <- 315        0.10700
 This state for optimization and/or second-order correction.
 Total Energy, E(TD-HF/TD-DFT) =  -4070.53233598
 Copying the excited state density for this state as the 1-particle RhoCI density.

 Excited State   2:      Singlet-A      1.6251 eV  762.94 nm  f=0.2750  <S**2>=0.000
     310 -> 316       -0.16806
     311 -> 313       -0.26978
     312 -> 314        0.62874
     310 <- 316       -0.10805

 Excited State   3:      Singlet-A      2.1453 eV  577.95 nm  f=0.1113  <S**2>=0.000
     309 -> 313        0.63984
     311 -> 315       -0.28459

 Excited State   4:      Singlet-A      2.2001 eV  563.54 nm  f=0.1020  <S**2>=0.000
     310 -> 314        0.63105
     312 -> 316        0.30779

 Excited State   5:      Singlet-A      3.4497 eV  359.41 nm  f=0.0000  <S**2>=0.000
     312 -> 313        0.70701

 The electronic state is 1-A.
 Alpha  occ. eigenvalues --  -46.97146 -46.94229 -19.30341 -19.30227 -19.25007
 Alpha  occ. eigenvalues --  -19.24846 -19.24714 -19.24150 -19.23935 -19.22282
 Alpha  occ. eigenvalues --  -14.47586 -14.47260 -14.46726 -14.45988 -14.44463
 Alpha  occ. eigenvalues --  -14.43881 -14.43873 -14.43762 -10.43518 -10.42562
 Alpha  occ. eigenvalues --  -10.39562 -10.39509 -10.38814 -10.37380 -10.36287
 Alpha  occ. eigenvalues --  -10.35993 -10.35867 -10.35578 -10.35501 -10.35333
 Alpha  occ. eigenvalues --  -10.35079 -10.34988 -10.34581 -10.34525 -10.34224
 Alpha  occ. eigenvalues --  -10.33986 -10.33850 -10.33843 -10.33771 -10.33506
 Alpha  occ. eigenvalues --  -10.33497 -10.33340 -10.33097 -10.33092 -10.33057
 Alpha  occ. eigenvalues --  -10.32875 -10.32812 -10.32740 -10.32568 -10.32481
 Alpha  occ. eigenvalues --  -10.32475 -10.32426 -10.32342 -10.32326 -10.32262
 Alpha  occ. eigenvalues --  -10.32208 -10.32180 -10.31903 -10.31825 -10.31672
 Alpha  occ. eigenvalues --  -10.31578 -10.31556 -10.31538 -10.31438 -10.31111
 Alpha  occ. eigenvalues --  -10.30962 -10.30889 -10.30795 -10.30735 -10.30717
 Alpha  occ. eigenvalues --  -10.30703 -10.30372 -10.30244 -10.30151 -10.30124
 Alpha  occ. eigenvalues --  -10.29936 -10.29765 -10.29633 -10.29550 -10.29517
 Alpha  occ. eigenvalues --  -10.29441 -10.29346 -10.29336 -10.29139 -10.29104
 Alpha  occ. eigenvalues --  -10.28326  -3.22790  -3.20350  -1.96383  -1.95881
 Alpha  occ. eigenvalues --   -1.95742  -1.93946  -1.93452  -1.93354  -1.20139
 Alpha  occ. eigenvalues --   -1.17292  -1.15186  -1.12314  -1.11699  -1.11258
 Alpha  occ. eigenvalues --   -1.11210  -1.09623  -1.07160  -1.07135  -1.05734
 Alpha  occ. eigenvalues --   -1.05537  -1.05425  -1.04860  -1.04545  -1.04142
 Alpha  occ. eigenvalues --   -0.94622  -0.93819  -0.91273  -0.90941  -0.90856
 Alpha  occ. eigenvalues --   -0.90437  -0.90108  -0.89943  -0.89910  -0.89104
 Alpha  occ. eigenvalues --   -0.88980  -0.88784  -0.88180  -0.87737  -0.86767
 Alpha  occ. eigenvalues --   -0.86585  -0.86025  -0.85454  -0.84620  -0.84413
 Alpha  occ. eigenvalues --   -0.84381  -0.83734  -0.82917  -0.82879  -0.82512
 Alpha  occ. eigenvalues --   -0.82295  -0.80599  -0.80156  -0.79545  -0.79131
 Alpha  occ. eigenvalues --   -0.78791  -0.78644  -0.78400  -0.77724  -0.77349
 Alpha  occ. eigenvalues --   -0.76753  -0.75143  -0.74485  -0.74217  -0.73399
 Alpha  occ. eigenvalues --   -0.71348  -0.71187  -0.71106  -0.70472  -0.69914
 Alpha  occ. eigenvalues --   -0.69652  -0.68832  -0.68669  -0.68279  -0.67639
 Alpha  occ. eigenvalues --   -0.67606  -0.66997  -0.66638  -0.66580  -0.66205
 Alpha  occ. eigenvalues --   -0.66000  -0.65311  -0.63768  -0.62100  -0.62078
 Alpha  occ. eigenvalues --   -0.62015  -0.61512  -0.60976  -0.60857  -0.60840
 Alpha  occ. eigenvalues --   -0.60268  -0.60065  -0.59718  -0.59172  -0.59042
 Alpha  occ. eigenvalues --   -0.58443  -0.58017  -0.57756  -0.57525  -0.57445
 Alpha  occ. eigenvalues --   -0.57262  -0.57071  -0.56721  -0.56502  -0.56013
 Alpha  occ. eigenvalues --   -0.55485  -0.55482  -0.55305  -0.55277  -0.55082
 Alpha  occ. eigenvalues --   -0.54827  -0.54760  -0.54549  -0.54395  -0.54195
 Alpha  occ. eigenvalues --   -0.54056  -0.53667  -0.53660  -0.53515  -0.53425
 Alpha  occ. eigenvalues --   -0.53272  -0.53270  -0.53171  -0.52811  -0.52299
 Alpha  occ. eigenvalues --   -0.52086  -0.51974  -0.51954  -0.51774  -0.51528
 Alpha  occ. eigenvalues --   -0.51510  -0.51399  -0.51222  -0.51019  -0.51011
 Alpha  occ. eigenvalues --   -0.50552  -0.50492  -0.50308  -0.50194  -0.50098
 Alpha  occ. eigenvalues --   -0.49865  -0.49691  -0.49449  -0.49242  -0.48929
 Alpha  occ. eigenvalues --   -0.48858  -0.48732  -0.48696  -0.48607  -0.48479
 Alpha  occ. eigenvalues --   -0.48257  -0.48238  -0.48153  -0.48005  -0.47710
 Alpha  occ. eigenvalues --   -0.47668  -0.47387  -0.47090  -0.47081  -0.47026
 Alpha  occ. eigenvalues --   -0.46838  -0.46786  -0.46622  -0.46515  -0.46286
 Alpha  occ. eigenvalues --   -0.46241  -0.46059  -0.45978  -0.45619  -0.45512
 Alpha  occ. eigenvalues --   -0.45288  -0.45227  -0.45164  -0.44916  -0.44806
 Alpha  occ. eigenvalues --   -0.44678  -0.44558  -0.44533  -0.44331  -0.43754
 Alpha  occ. eigenvalues --   -0.43684  -0.43470  -0.43408  -0.43329  -0.43277
 Alpha  occ. eigenvalues --   -0.43047  -0.42887  -0.42630  -0.42345  -0.42082
 Alpha  occ. eigenvalues --   -0.42048  -0.41526  -0.41114  -0.41003  -0.40572
 Alpha  occ. eigenvalues --   -0.40563  -0.39923  -0.39908  -0.39651  -0.39567
 Alpha  occ. eigenvalues --   -0.39231  -0.38922  -0.38912  -0.38617  -0.38554
 Alpha  occ. eigenvalues --   -0.38318  -0.37808  -0.36900  -0.36383  -0.36242
 Alpha  occ. eigenvalues --   -0.36118  -0.35739  -0.35028  -0.33698  -0.33365
 Alpha  occ. eigenvalues --   -0.33242  -0.33089  -0.32967  -0.32593  -0.32151
 Alpha  occ. eigenvalues --   -0.31886  -0.31729  -0.31310  -0.26412  -0.25869
 Alpha  occ. eigenvalues --   -0.23350  -0.22549
 Alpha virt. eigenvalues --   -0.07740  -0.06774  -0.00326   0.00574   0.02345
 Alpha virt. eigenvalues --    0.02519   0.04424   0.04568   0.04577   0.05947
 Alpha virt. eigenvalues --    0.06772   0.07295   0.08021   0.08106   0.08218

 Mulliken charges:
               1
     1  Mg   0.983945
     2  C    0.016800
     3  C   -0.089939
     4  C   -0.082520
     5  C   -0.106064
     6  N   -0.316830
     7  C    0.009767
     8  C   -0.040707
     9  C   -0.128864
    10  C    0.104204
    11  C   -0.004713
    12  C    0.028107
    13  C   -0.147705
    14  H    0.025850
    15  N   -0.453105
    16  C    0.111614
    17  C   -0.155589
    18  C   -0.103397
    19  C    0.123679
    20  C    0.045618
    21  C    0.084668
    22  O   -0.233086
    23  C   -0.023228
    24  N   -0.364459
    25  C    0.051532
    26  C   -0.053134
    27  C   -0.060138
    28  C    0.046880
    29  C    0.044666
    30  C   -0.025379
    31  C   -0.035001
    32  N   -0.448276
    33  C    0.163680
    34  C   -0.168859
    35  C   -0.084325
    36  C    0.117465
    37  C    0.076993
    38  C    0.137654
    39  O   -0.141959
    40  C   -0.139031
    41  C    0.283465
    42  O   -0.249111
    43  O   -0.383379
    44  C    0.146993
    45  H   -0.013142
    46  H    0.021569
    47  H   -0.009665
    48  H    0.043066
    49  H    0.043980
    50  H    0.031115
    51  H    0.051252
    52  H    0.038045
    53  H    0.037900
    54  H    0.037011
    55  H    0.053922
    56  H    0.051450
    57  H    0.057658
    58  H    0.063550
    59  H    0.032670
    60  H    0.059280
    61  H    0.038599
    62  H    0.062532
    63  H    0.024349
    64  H    0.023889
    65  H    0.039156
    66  H    0.044438
    67  H    0.032100
    68  H    0.026685
    69  H    0.023469
    70  H    0.027001
    71  H    0.051710
    72  H    0.040142
    73  H    0.057501
    74  H    0.036668
    75  H    0.074690
    76  H    0.075926
    77  H    0.054440
    78  H    0.040423
    79  H    0.061837
    80  Mg   0.930604
    81  C   -0.012498
    82  C   -0.078652
    83  C   -0.029749
    84  C   -0.055320
    85  N   -0.359396
    86  C   -0.011306
    87  C   -0.090474
    88  C   -0.100372
    89  C    0.079406
    90  C    0.033020
    91  C    0.011750
    92  C   -0.107079
    93  H    0.041965
    94  N   -0.446460
    95  C    0.131629
    96  C   -0.166309
    97  C   -0.071262
    98  C    0.121621
    99  C    0.092348
   100  C   -0.000449
   101  O   -0.245678
   102  C    0.011381
   103  N   -0.354219
   104  C    0.049248
   105  C   -0.068676
   106  C   -0.054142
   107  C    0.053313
   108  C    0.028778
   109  C   -0.008402
   110  C   -0.059094
   111  N   -0.368142
   112  C    0.038885
   113  C   -0.158779
   114  C   -0.038453
   115  C    0.117472
   116  C    0.062081
   117  C    0.094486
   118  O   -0.225824
   119  C   -0.017555
   120  C    0.221540
   121  O   -0.212682
   122  O   -0.366490
   123  C    0.140069
   124  H    0.006157
   125  H   -0.031035
   126  H   -0.001401
   127  H    0.037886
   128  H    0.035696
   129  H    0.032178
   130  H    0.046034
   131  H    0.040103
   132  H    0.042677
   133  H    0.036105
   134  H    0.065878
   135  H    0.053139
   136  H    0.070775
   137  H    0.040189
   138  H    0.017188
   139  H    0.050987
   140  H    0.064371
   141  H    0.052390
   142  H    0.048048
   143  H    0.037620
   144  H    0.035123
   145  H    0.041372
   146  H    0.037101
   147  H    0.041978
   148  H    0.039604
   149  H    0.042320
   150  H    0.030763
   151  H    0.032949
   152  H    0.064821
   153  H    0.051523
   154  H    0.065696
   155  H    0.062064
   156  H    0.046673
   157  H    0.053303
   158  H    0.057592
 Sum of Mulliken charges =  -0.00000

 Dipole moment (field-independent basis, Debye):
    X=             -2.9694    Y=              0.6608    Z=             -3.6885  Tot=              4.7811
 Quadrupole moment (field-independent basis, Debye-Ang):
   XX=           -426.5167   YY=           -534.3776   ZZ=           -483.5470
   XY=            103.3687   XZ=             25.7715   YZ=            -43.7824

 Normal termination of Gaussian 16 at Sat Sep 18 18:58:07 2021.
