 Gaussian 16, Revision A.03,
 Gaussian 16:  ES64L-G16RevA.03 25-Dec-2016

 --------------------------------
 #p wB97XD/Def2SVP td=(nstates=5)
 --------------------------------

 --------------------------------
 TDDFT excited states in gaussian
 --------------------------------
 Symbolic Z-matrix:
 Charge =  0 Multiplicity = 1

                         Standard orientation:
 ---------------------------------------------------------------------
 Center     Atomic      Atomic             Coordinates (Angstroms)
 Number     Number       Type             X           Y           Z
 ---------------------------------------------------------------------
      1         12           0      -13.389415   -0.793594   -0.002811
      2          6           0      -11.731294    2.025243    1.653145
      3          6           0      -14.653134    1.557505   -2.272454
      4          6           0      -15.177279   -3.180358   -1.319808
      5          6           0      -11.893958   -2.933798    2.220939
      6          7           0      -13.383108    1.513172   -0.152468
      7          6           0      -12.537788    2.472023    0.548203
      8          6           0      -12.716290    3.927970    0.066983
      9          6           0      -13.853697    3.686436   -1.085608
     10          6           0      -14.018697    2.158608   -1.204269
     11          6           0      -15.160904    4.405749   -0.815221
     12          6           0      -11.350830    4.528010   -0.385781
     13          6           0      -11.436288    5.817419   -1.145786
     14          1           0      -10.480191    6.944144   -0.823235
     15          7           0      -14.775498   -0.837730   -1.586513
     16          6           0      -15.163924    0.223550   -2.411980
     17          6           0      -16.096928   -0.259471   -3.428287
     18          6           0      -16.269715   -1.681443   -3.173189
     19          6           0      -15.396206   -1.995865   -1.982716
     20          6           0      -16.683653    0.610270   -4.599950
     21          6           0      -17.130819   -2.700782   -3.827739
     22          8           0      -17.160594   -3.888157   -3.532778
     23          6           0      -17.946909   -2.335049   -4.997614
     24          7           0      -13.450062   -2.731761    0.317893
     25          6           0      -14.356050   -3.523533   -0.258808
     26          6           0      -14.256915   -4.991438    0.218420
     27          6           0      -12.949309   -4.959742    0.982098
     28          6           0      -12.757541   -3.419497    1.265817
     29          6           0      -15.439205   -5.426854    1.076402
     30          6           0      -11.673192   -5.554929    0.445719
     31          6           0      -11.160977   -4.895560   -0.816973
     32          7           0      -12.166730   -0.550872    1.665686
     33          6           0      -11.552030   -1.566889    2.419548
     34          6           0      -10.718331   -0.959845    3.427665
     35          6           0      -10.745502    0.411139    3.064040
     36          6           0      -11.643997    0.627300    2.001861
     37          6           0       -9.856802   -1.628423    4.458838
     38          6           0      -10.108990    1.711815    3.438482
     39          8           0       -9.184337    1.970217    4.238347
     40          6           0      -10.768075    2.764537    2.550051
     41          6           0      -11.387963    3.865006    3.413777
     42          8           0      -12.336888    3.810868    4.250729
     43          8           0      -10.820540    5.041420    3.022061
     44          6           0      -11.345254    6.258767    3.681302
     45          1           0      -14.876008    2.250317   -3.085377
     46          1           0      -15.813171   -3.981085   -1.703001
     47          1           0      -11.405012   -3.551343    2.977415
     48          1           0      -13.012711    4.484521    0.956027
     49          1           0      -13.434348    3.957527   -2.054524
     50          1           0      -15.366420    5.074739   -1.651364
     51          1           0      -15.003632    4.996214    0.086698
     52          1           0      -15.998646    3.810413   -0.452732
     53          1           0      -10.829062    3.713886   -0.890028
     54          1           0      -10.744623    4.713056    0.501080
     55          1           0      -12.374344    6.368376   -1.082018
     56          1           0      -11.199603    5.630637   -2.192861
     57          1           0      -16.305627    0.139195   -5.507762
     58          1           0      -16.349964    1.647633   -4.579990
     59          1           0      -17.768074    0.538606   -4.515346
     60          1           0      -18.466506   -1.382415   -4.892572
     61          1           0      -18.674715   -3.143178   -5.061572
     62          1           0      -17.209933   -2.157503   -5.780250
     63          1           0      -14.234375   -5.614852   -0.675491
     64          1           0      -13.018427   -5.485890    1.934612
     65          1           0      -15.712094   -6.443598    0.796168
     66          1           0      -16.301968   -4.780920    0.917111
     67          1           0      -15.131651   -5.528125    2.117820
     68          1           0      -11.823264   -6.630144    0.344490
     69          1           0      -10.840390   -5.367518    1.123321
     70          1           0      -10.863393   -5.626633   -1.567794
     71          1           0      -10.257572   -4.308745   -0.649309
     72          1           0      -11.885084   -4.247976   -1.311505
     73          1           0       -8.841274   -1.238424    4.394762
     74          1           0       -9.749512   -2.712948    4.477193
     75          1           0      -10.269235   -1.363620    5.432653
     76          1           0       -9.984948    3.259914    1.975397
     77          1           0      -12.052558    6.759185    3.020262
     78          1           0      -10.398201    6.763802    3.871437
     79          1           0      -11.755660    6.053093    4.670752
     80         12           0       13.505741   -0.585758    0.115535
     81          6           0       11.290325    1.991700   -0.717107
     82          6           0       16.096433    1.643236    0.092946
     83          6           0       15.577414   -3.125265    0.563049
     84          6           0       10.736734   -2.837311   -0.083299
     85          7           0       13.649398    1.581844   -0.323376
     86          6           0       12.636192    2.480088   -0.574906
     87          6           0       13.152286    3.904023   -0.479972
     88          6           0       14.720629    3.715368   -0.504244
     89          6           0       14.802466    2.196782   -0.127482
     90          6           0       15.350547    4.010718   -1.859490
     91          6           0       12.474418    4.641283    0.731976
     92          6           0       13.097695    6.031914    1.035935
     93          1           0       13.683673    6.786013   -0.139611
     94          7           0       15.483008   -0.712851    0.312411
     95          6           0       16.424926    0.298556    0.172152
     96          6           0       17.800131   -0.215280    0.298530
     97          6           0       17.619167   -1.621392    0.476813
     98          6           0       16.179443   -1.864989    0.445003
     99          6           0       18.998675    0.657628    0.282714
    100          6           0       18.714096   -2.642879    0.646110
    101          8           0       18.463653   -3.864030    0.844538
    102          6           0       20.163344   -2.238720    0.666392
    103          7           0       13.178779   -2.699870    0.280558
    104          6           0       14.236196   -3.490502    0.465763
    105          6           0       13.799445   -5.020416    0.413456
    106          6           0       12.192944   -4.930132    0.156651
    107          6           0       12.017463   -3.412064    0.098347
    108          6           0       14.613705   -5.736375   -0.740788
    109          6           0       11.304810   -5.526122    1.331028
    110          6           0       11.029807   -7.055824    1.262980
    111          7           0       11.483248   -0.525311   -0.360284
    112          6           0       10.434792   -1.480591   -0.293848
    113          6           0        9.101388   -0.796880   -0.593572
    114          6           0        9.389121    0.542214   -0.837583
    115          6           0       10.850079    0.666958   -0.601134
    116          6           0        7.735020   -1.407497   -0.584017
    117          6           0        8.851474    1.849618   -1.133072
    118          8           0        7.702337    2.241286   -1.359951
    119          6           0       10.046908    2.897897   -0.887734
    120          6           0       10.184528    3.901417   -2.009712
    121          8           0       10.829756    3.713083   -3.005447
    122          8           0        9.662918    5.160121   -1.634496
    123          6           0       10.110370    6.331090   -2.403484
    124          1           0       16.814349    2.461334    0.000790
    125          1           0       16.267936   -3.961002    0.695293
    126          1           0        9.870169   -3.477421   -0.262113
    127          1           0       12.823946    4.430178   -1.375426
    128          1           0       15.272465    4.260793    0.262003
    129          1           0       16.099366    4.780314   -1.672769
    130          1           0       14.556334    4.268936   -2.559576
    131          1           0       15.987283    3.200760   -2.214548
    132          1           0       12.435274    3.841821    1.471204
    133          1           0       11.434957    4.779550    0.436379
    134          1           0       13.860984    5.800394    1.778881
    135          1           0       12.321204    6.659847    1.472579
    136          1           0       19.513822    0.328370   -0.619516
    137          1           0       19.598930    0.581356    1.188951
    138          1           0       18.877428    1.733221    0.148021
    139          1           0       20.339294   -1.599335    1.530364
    140          1           0       20.205709   -1.755137   -0.310340
    141          1           0       20.893195   -3.047474    0.642565
    142          1           0       14.043037   -5.318762    1.433883
    143          1           0       11.826681   -5.185657   -0.838571
    144          1           0       15.285298   -5.080611   -1.294632
    145          1           0       13.924101   -6.165474   -1.468210
    146          1           0       15.259427   -6.454512   -0.236258
    147          1           0       10.419517   -4.922193    1.528033
    148          1           0       11.891559   -5.388639    2.238703
    149          1           0       11.367446   -7.475356    2.209997
    150          1           0       11.522339   -7.456062    0.376701
    151          1           0        9.966049   -7.276745    1.171980
    152          1           0        7.242871   -1.031908    0.313366
    153          1           0        7.807771   -2.495740   -0.583530
    154          1           0        7.055601   -1.147238   -1.395387
    155          1           0        9.824987    3.387830    0.059883
    156          1           0        9.526845    6.297636   -3.323143
    157          1           0       11.196333    6.339311   -2.499020
    158          1           0        9.869267    7.201953   -1.794508
 ---------------------------------------------------------------------

 SCF Done:  E(RwB97XD) =  -4070.63383218     A.U. after   19 cycles

 Excitation energies and oscillator strengths:

 Excited State   1:      Singlet-A      1.6106 eV  769.82 nm  f=0.4311  <S**2>=0.000
     309 -> 316       -0.17022
     311 -> 313        0.68560
     309 <- 316       -0.11367
 This state for optimization and/or second-order correction.
 Total Energy, E(TD-HF/TD-DFT) =  -4070.57464521
 Copying the excited state density for this state as the 1-particle RhoCI density.

 Excited State   2:      Singlet-A      1.6549 eV  749.18 nm  f=0.3546  <S**2>=0.000
     310 -> 315       -0.20518
     312 -> 314        0.67710
     310 <- 315       -0.12127

 Excited State   3:      Singlet-A      2.1160 eV  585.94 nm  f=0.1317  <S**2>=0.000
     309 -> 313        0.64981
     311 -> 316        0.25745

 Excited State   4:      Singlet-A      2.2347 eV  554.82 nm  f=0.0334  <S**2>=0.000
     310 -> 314        0.58748
     312 -> 315        0.38611

 Excited State   5:      Singlet-A      3.4336 eV  361.09 nm  f=0.0000  <S**2>=0.000
     312 -> 313        0.70704

 The electronic state is 1-A.
 Alpha  occ. eigenvalues --  -46.94380 -46.94049 -19.30915 -19.29181 -19.25189
 Alpha  occ. eigenvalues --  -19.24542 -19.24226 -19.23798 -19.23424 -19.23422
 Alpha  occ. eigenvalues --  -14.47083 -14.46715 -14.46703 -14.46090 -14.44551
 Alpha  occ. eigenvalues --  -14.44540 -14.44469 -14.43365 -10.43757 -10.43244
 Alpha  occ. eigenvalues --  -10.39540 -10.39204 -10.38683 -10.38577 -10.35951
 Alpha  occ. eigenvalues --  -10.35578 -10.35512 -10.35456 -10.35453 -10.35094
 Alpha  occ. eigenvalues --  -10.34905 -10.34740 -10.34725 -10.34685 -10.34626
 Alpha  occ. eigenvalues --  -10.34538 -10.34353 -10.34333 -10.34330 -10.34136
 Alpha  occ. eigenvalues --  -10.33555 -10.33455 -10.33372 -10.33203 -10.33154
 Alpha  occ. eigenvalues --  -10.32966 -10.32930 -10.32835 -10.32815 -10.32577
 Alpha  occ. eigenvalues --  -10.32555 -10.32543 -10.32532 -10.32387 -10.32315
 Alpha  occ. eigenvalues --  -10.32256 -10.32210 -10.31768 -10.31718 -10.31663
 Alpha  occ. eigenvalues --  -10.31554 -10.31537 -10.31503 -10.31364 -10.31075
 Alpha  occ. eigenvalues --  -10.30950 -10.30949 -10.30936 -10.30715 -10.30601
 Alpha  occ. eigenvalues --  -10.30341 -10.30276 -10.30084 -10.30038 -10.30015
 Alpha  occ. eigenvalues --  -10.29739 -10.29732 -10.29684 -10.29587 -10.29495
 Alpha  occ. eigenvalues --  -10.29436 -10.29398 -10.29161 -10.29161 -10.28636
 Alpha  occ. eigenvalues --  -10.28299  -3.20479  -3.20204  -1.94080  -1.93803
 Alpha  occ. eigenvalues --   -1.93592  -1.93482  -1.93341  -1.93183  -1.18114
 Alpha  occ. eigenvalues --   -1.17586  -1.12596  -1.11336  -1.09992  -1.09948
 Alpha  occ. eigenvalues --   -1.09926  -1.07885  -1.06995  -1.06291  -1.05442
 Alpha  occ. eigenvalues --   -1.04789  -1.04745  -1.04295  -1.03367  -1.02551
 Alpha  occ. eigenvalues --   -0.94186  -0.93543  -0.91494  -0.90817  -0.90762
 Alpha  occ. eigenvalues --   -0.90492  -0.90397  -0.89713  -0.89451  -0.89204
 Alpha  occ. eigenvalues --   -0.88937  -0.88607  -0.88202  -0.87734  -0.86615
 Alpha  occ. eigenvalues --   -0.86117  -0.85869  -0.84811  -0.84798  -0.84224
 Alpha  occ. eigenvalues --   -0.84085  -0.83779  -0.83305  -0.82653  -0.81981
 Alpha  occ. eigenvalues --   -0.81924  -0.80905  -0.80468  -0.79309  -0.79127
 Alpha  occ. eigenvalues --   -0.78858  -0.78645  -0.77826  -0.77663  -0.77391
 Alpha  occ. eigenvalues --   -0.76446  -0.74675  -0.74031  -0.73859  -0.73402
 Alpha  occ. eigenvalues --   -0.72153  -0.71344  -0.71308  -0.70477  -0.70252
 Alpha  occ. eigenvalues --   -0.69562  -0.69107  -0.69050  -0.67373  -0.67077
 Alpha  occ. eigenvalues --   -0.66980  -0.66600  -0.66212  -0.65877  -0.65745
 Alpha  occ. eigenvalues --   -0.65728  -0.63852  -0.63237  -0.62625  -0.62190
 Alpha  occ. eigenvalues --   -0.61431  -0.61089  -0.61018  -0.60665  -0.60230
 Alpha  occ. eigenvalues --   -0.59699  -0.59609  -0.59485  -0.59328  -0.58726
 Alpha  occ. eigenvalues --   -0.58242  -0.58095  -0.57805  -0.57783  -0.57401
 Alpha  occ. eigenvalues --   -0.57163  -0.56652  -0.56491  -0.56169  -0.56095
 Alpha  occ. eigenvalues --   -0.55848  -0.55568  -0.55377  -0.55163  -0.54982
 Alpha  occ. eigenvalues --   -0.54642  -0.54409  -0.54339  -0.54110  -0.54029
 Alpha  occ. eigenvalues --   -0.53796  -0.53611  -0.53317  -0.53056  -0.53018
 Alpha  occ. eigenvalues --   -0.52755  -0.52741  -0.52643  -0.52358  -0.52233
 Alpha  occ. eigenvalues --   -0.52045  -0.52003  -0.51633  -0.51470  -0.51420
 Alpha  occ. eigenvalues --   -0.51339  -0.51198  -0.50883  -0.50743  -0.50689
 Alpha  occ. eigenvalues --   -0.50662  -0.50484  -0.50393  -0.50360  -0.50019
 Alpha  occ. eigenvalues --   -0.49984  -0.49970  -0.49604  -0.49481  -0.49323
 Alpha  occ. eigenvalues --   -0.48856  -0.48744  -0.48637  -0.48375  -0.48067
 Alpha  occ. eigenvalues --   -0.48030  -0.47977  -0.47867  -0.47635  -0.47524
 Alpha  occ. eigenvalues --   -0.47475  -0.47323  -0.47097  -0.47058  -0.46766
 Alpha  occ. eigenvalues --   -0.46734  -0.46585  -0.46416  -0.46207  -0.46067
 Alpha  occ. eigenvalues --   -0.46048  -0.45877  -0.45795  -0.45380  -0.45322
 Alpha  occ. eigenvalues --   -0.45097  -0.45032  -0.44964  -0.44800  -0.44535
 Alpha  occ. eigenvalues --   -0.44439  -0.44400  -0.44189  -0.44063  -0.44063
 Alpha  occ. eigenvalues --   -0.43788  -0.43663  -0.43456  -0.43261  -0.43166
 Alpha  occ. eigenvalues --   -0.42788  -0.42767  -0.42339  -0.42218  -0.42048
 Alpha  occ. eigenvalues --   -0.41810  -0.41089  -0.41079  -0.40940  -0.40920
 Alpha  occ. eigenvalues --   -0.40735  -0.40429  -0.40068  -0.39859  -0.39248
 Alpha  occ. eigenvalues --   -0.39080  -0.38790  -0.38725  -0.38416  -0.38217
 Alpha  occ. eigenvalues --   -0.38040  -0.37771  -0.36449  -0.36240  -0.36104
 Alpha  occ. eigenvalues --   -0.35999  -0.35374  -0.35238  -0.33665  -0.33440
 Alpha  occ. eigenvalues --   -0.33203  -0.33029  -0.32555  -0.32527  -0.32418
 Alpha  occ. eigenvalues --   -0.32226  -0.32196  -0.31230  -0.26119  -0.25876
 Alpha  occ. eigenvalues --   -0.23221  -0.22184
 Alpha virt. eigenvalues --   -0.07591  -0.06201  -0.00204   0.00317   0.01873
 Alpha virt. eigenvalues --    0.02433   0.04292   0.04361   0.06322   0.06352
 Alpha virt. eigenvalues --    0.06741   0.06749   0.07733   0.07759   0.08520

 Mulliken charges:
               1
     1  Mg   0.975107
     2  C   -0.025874
     3  C   -0.091573
     4  C   -0.091489
     5  C   -0.077759
     6  N   -0.366146
     7  C   -0.005636
     8  C   -0.064924
     9  C   -0.111901
    10  C    0.088867
    11  C    0.051927
    12  C   -0.005905
    13  C   -0.128181
    14  H    0.029317
    15  N   -0.467433
    16  C    0.163101
    17  C   -0.170422
    18  C   -0.057420
    19  C    0.152395
    20  C    0.067179
    21  C    0.021999
    22  O   -0.243574
    23  C    0.001943
    24  N   -0.422522
    25  C    0.103883
    26  C   -0.087999
    27  C   -0.066257
    28  C    0.109904
    29  C    0.043000
    30  C    0.010263
    31  C   -0.067819
    32  N   -0.449717
    33  C    0.078983
    34  C   -0.151484
    35  C   -0.101725
    36  C    0.167275
    37  C    0.064801
    38  C    0.158713
    39  O   -0.236265
    40  C   -0.063495
    41  C    0.279057
    42  O   -0.286923
    43  O   -0.366242
    44  C    0.125350
    45  H   -0.007268
    46  H    0.021499
    47  H    0.001271
    48  H    0.051978
    49  H    0.035187
    50  H    0.045563
    51  H    0.021845
    52  H    0.048016
    53  H    0.035005
    54  H    0.058218
    55  H    0.052372
    56  H    0.055342
    57  H    0.061440
    58  H    0.044231
    59  H    0.066937
    60  H    0.027119
    61  H    0.066463
    62  H    0.059769
    63  H    0.041391
    64  H    0.013774
    65  H    0.035563
    66  H    0.048240
    67  H    0.036475
    68  H    0.035062
    69  H    0.029082
    70  H    0.029067
    71  H    0.035104
    72  H    0.040830
    73  H    0.061650
    74  H    0.026413
    75  H    0.055390
    76  H    0.079799
    77  H    0.065824
    78  H    0.060916
    79  H    0.076054
    80  Mg   0.984861
    81  C   -0.030006
    82  C   -0.097715
    83  C   -0.088018
    84  C   -0.091535
    85  N   -0.320787
    86  C   -0.001338
    87  C   -0.052444
    88  C   -0.133729
    89  C    0.011203
    90  C    0.044529
    91  C   -0.023256
    92  C   -0.099822
    93  H    0.046526
    94  N   -0.499681
    95  C    0.214682
    96  C   -0.158549
    97  C   -0.076670
    98  C    0.175201
    99  C    0.073497
   100  C    0.037555
   101  O   -0.272553
   102  C    0.020942
   103  N   -0.348961
   104  C    0.045721
   105  C   -0.087861
   106  C   -0.049370
   107  C    0.040595
   108  C    0.013482
   109  C   -0.039924
   110  C   -0.032212
   111  N   -0.451865
   112  C    0.124863
   113  C   -0.194067
   114  C   -0.008953
   115  C    0.139351
   116  C    0.070667
   117  C    0.151150
   118  O   -0.214848
   119  C   -0.144360
   120  C    0.289284
   121  O   -0.219397
   122  O   -0.405811
   123  C    0.143402
   124  H   -0.011194
   125  H    0.021149
   126  H    0.001231
   127  H    0.028641
   128  H    0.029438
   129  H    0.028532
   130  H    0.059039
   131  H    0.036113
   132  H    0.041365
   133  H    0.036950
   134  H    0.058445
   135  H    0.059706
   136  H    0.054072
   137  H    0.057859
   138  H    0.036114
   139  H    0.065570
   140  H    0.039107
   141  H    0.055118
   142  H    0.050646
   143  H    0.044403
   144  H    0.052626
   145  H    0.038210
   146  H    0.049568
   147  H    0.034932
   148  H    0.019259
   149  H    0.041779
   150  H    0.039340
   151  H    0.036853
   152  H    0.060906
   153  H    0.027093
   154  H    0.060450
   155  H    0.091997
   156  H    0.068445
   157  H    0.050084
   158  H    0.052370
 Sum of Mulliken charges =  -0.00000

 Dipole moment (field-independent basis, Debye):
    X=              1.9137    Y=              3.0620    Z=             -2.8989  Tot=              4.6306
 Quadrupole moment (field-independent basis, Debye-Ang):
   XX=           -381.4620   YY=           -460.0806   ZZ=           -526.9327
   XY=             19.5490   XZ=             80.3564   YZ=            -18.1894

 Normal termination of Gaussian 16 at Sun Sep 19 01:45:44 2021.
