 Gaussian 16, Revision A.03,
 Gaussian 16:  ES64L-G16RevA.03 25-Dec-2016

 --------------------------------
 #p wB97XD/Def2SVP td=(nstates=5)
 --------------------------------

 --------------------------------
 TDDFT excited states in gaussian
 --------------------------------
 Symbolic Z-matrix:
 Charge =  0 Multiplicity = 1

                         Standard orientation:
 ---------------------------------------------------------------------
 Center     Atomic      Atomic             Coordinates (Angstroms)
 Number     Number       Type             X           Y           Z
 ---------------------------------------------------------------------
      1         12           0       30.553433    0.211175   -0.187407
      2          6           0       27.479695   -1.248099   -0.074916
      3          6           0       28.949691    3.213415   -0.853599
      4          6           0       33.546530    1.708450    0.081175
      5          6           0       32.005498   -2.706921    1.139993
      6          7           0       28.417153    0.937930   -0.176926
      7          6           0       27.360052    0.101847   -0.147287
      8          6           0       26.062372    0.823548   -0.170816
      9          6           0       26.578973    2.254516   -0.817311
     10          6           0       28.106122    2.161174   -0.615748
     11          6           0       26.118580    2.453144   -2.291617
     12          6           0       25.537404    0.982193    1.247282
     13          6           0       26.462806    1.677745    2.349813
     14          1           0       25.860716    2.639881    3.366269
     15          7           0       31.171005    2.171074   -0.357385
     16          6           0       30.375233    3.266765   -0.777488
     17          6           0       31.261019    4.355181   -1.024236
     18          6           0       32.570554    3.998880   -0.726722
     19          6           0       32.522713    2.576053   -0.350086
     20          6           0       30.667037    5.657184   -1.521992
     21          6           0       33.787524    4.892749   -0.712344
     22          8           0       33.583286    6.093796   -1.018925
     23          6           0       35.070628    4.554990   -0.194080
     24          7           0       32.452457   -0.375109    0.725407
     25          6           0       33.553749    0.424559    0.636009
     26          6           0       34.799378   -0.266363    1.240772
     27          6           0       34.263113   -1.698862    1.575963
     28          6           0       32.796789   -1.578493    1.196749
     29          6           0       36.003239   -0.252692    0.323120
     30          6           0       34.513955   -2.069317    3.133968
     31          6           0       34.989982   -3.507991    3.365476
     32          7           0       29.932432   -1.693404    0.442233
     33          6           0       30.616965   -2.823818    0.755635
     34          6           0       29.676610   -3.910020    0.702979
     35          6           0       28.386329   -3.392706    0.335479
     36          6           0       28.608161   -2.030566    0.217946
     37          6           0       29.923321   -5.287353    1.216162
     38          6           0       26.993790   -3.633664    0.133447
     39          8           0       26.462844   -4.750635    0.176218
     40          6           0       26.378605   -2.280023   -0.169985
     41          6           0       25.737665   -2.341647   -1.506096
     42          8           0       24.880147   -3.177239   -1.714463
     43          8           0       26.129270   -1.364190   -2.369115
     44          6           0       25.486036   -1.400741   -3.683965
     45          1           0       28.483294    4.079342   -1.327800
     46          1           0       34.536201    2.145396   -0.066278
     47          1           0       32.409988   -3.693812    1.375638
     48          1           0       25.240212    0.386677   -0.737735
     49          1           0       26.076907    3.098679   -0.342848
     50          1           0       25.528787    3.365018   -2.377612
     51          1           0       25.467398    1.612803   -2.533685
     52          1           0       26.926945    2.466186   -3.023849
     53          1           0       25.187389    0.000717    1.567777
     54          1           0       24.579849    1.475365    1.080465
     55          1           0       27.289824    2.274666    1.965104
     56          1           0       26.797273    0.816256    2.927067
     57          1           0       30.345692    6.188623   -0.626021
     58          1           0       29.783700    5.435744   -2.119673
     59          1           0       31.322525    6.292581   -2.118321
     60          1           0       35.592006    5.428634    0.198360
     61          1           0       35.673666    3.955220   -0.877004
     62          1           0       34.859780    3.987921    0.711589
     63          1           0       34.977941    0.305263    2.152189
     64          1           0       34.690201   -2.417539    0.876801
     65          1           0       35.860875    0.329456   -0.586949
     66          1           0       36.521244   -1.173192    0.055305
     67          1           0       36.695243    0.399677    0.856505
     68          1           0       33.634764   -1.940653    3.765378
     69          1           0       35.218617   -1.386685    3.608574
     70          1           0       36.043260   -3.473471    3.642561
     71          1           0       34.953717   -4.035277    2.411952
     72          1           0       34.424874   -4.023892    4.141905
     73          1           0       30.622147   -5.913571    0.662860
     74          1           0       28.939619   -5.757038    1.251515
     75          1           0       30.338838   -5.281424    2.223896
     76          1           0       25.612262   -2.119750    0.588952
     77          1           0       24.408712   -1.336757   -3.528389
     78          1           0       25.771711   -2.265531   -4.283034
     79          1           0       25.873852   -0.607768   -4.323245
     80         12           0      -30.637162    0.337322    0.371774
     81          6           0      -28.368361   -2.020421   -1.030248
     82          6           0      -31.452704    1.322192   -2.820014
     83          6           0      -32.642450    2.506563    1.852345
     84          6           0      -29.328091   -0.432780    3.629472
     85          7           0      -29.920988   -0.243332   -1.764763
     86          6           0      -29.069503   -1.303925   -2.014618
     87          6           0      -29.001317   -1.448408   -3.573637
     88          6           0      -29.988961   -0.314012   -4.177536
     89          6           0      -30.465772    0.295023   -2.855032
     90          6           0      -29.362922    0.658131   -5.199052
     91          6           0      -29.201216   -2.901806   -4.172358
     92          6           0      -28.065688   -3.424907   -5.003135
     93          1           0      -27.121289   -2.543024   -5.776565
     94          7           0      -32.029155    1.697721   -0.418262
     95          6           0      -32.191713    1.947441   -1.744538
     96          6           0      -33.335673    2.816939   -1.843938
     97          6           0      -33.627505    3.249262   -0.532240
     98          6           0      -32.741495    2.508610    0.423668
     99          6           0      -33.869778    3.231113   -3.225479
    100          6           0      -34.554540    4.356070   -0.130049
    101          8           0      -34.646947    4.734068    1.061936
    102          6           0      -35.340263    5.061746   -1.172212
    103          7           0      -30.857101    0.964205    2.492340
    104          6           0      -31.788729    1.794637    2.808706
    105          6           0      -32.018361    2.074591    4.388600
    106          6           0      -30.931373    1.136720    4.935415
    107          6           0      -30.346020    0.529092    3.684203
    108          6           0      -31.803442    3.603102    4.689600
    109          6           0      -31.391412    0.038209    5.957138
    110          6           0      -32.207666   -1.143525    5.381848
    111          7           0      -29.121683   -0.822415    1.106167
    112          6           0      -28.713132   -0.995583    2.449564
    113          6           0      -27.681567   -2.041537    2.473640
    114          6           0      -27.524055   -2.474237    1.135051
    115          6           0      -28.457724   -1.729024    0.338413
    116          6           0      -26.961929   -2.572381    3.749545
    117          6           0      -26.827278   -3.368905    0.373076
    118          8           0      -25.943461   -4.156889    0.641667
    119          6           0      -27.351050   -3.198819   -1.080337
    120          6           0      -26.220776   -2.965357   -1.949303
    121          8           0      -25.737312   -1.854552   -2.195369
    122          8           0      -25.616718   -4.185476   -2.275296
    123          6           0      -24.333409   -4.054914   -3.008888
    124          1           0      -31.609988    1.888919   -3.740504
    125          1           0      -33.186875    3.335767    2.309118
    126          1           0      -28.898297   -0.707214    4.595040
    127          1           0      -27.933835   -1.269108   -3.695143
    128          1           0      -30.774183   -0.803585   -4.751878
    129          1           0      -29.927000    0.651839   -6.132602
    130          1           0      -28.307950    0.514052   -5.431624
    131          1           0      -29.453603    1.632362   -4.718681
    132          1           0      -30.117275   -2.939380   -4.762197
    133          1           0      -29.271173   -3.560038   -3.306334
    134          1           0      -28.517811   -3.884277   -5.882868
    135          1           0      -27.494206   -4.117461   -4.386185
    136          1           0      -33.510224    2.574951   -4.018449
    137          1           0      -33.571541    4.256203   -3.441576
    138          1           0      -34.952345    3.152593   -3.130855
    139          1           0      -35.937261    4.306032   -1.682728
    140          1           0      -34.690518    5.514460   -1.922182
    141          1           0      -35.919170    5.873360   -0.733316
    142          1           0      -33.008744    1.750591    4.709344
    143          1           0      -30.093679    1.728243    5.305542
    144          1           0      -31.085325    3.985860    3.964459
    145          1           0      -31.350235    3.692852    5.677474
    146          1           0      -32.675740    4.256857    4.668032
    147          1           0      -31.849878    0.510788    6.825228
    148          1           0      -30.493398   -0.371618    6.418369
    149          1           0      -32.852264   -0.926930    4.530636
    150          1           0      -32.749503   -1.611649    6.204438
    151          1           0      -31.461088   -1.881121    5.087854
    152          1           0      -26.961426   -3.660137    3.820201
    153          1           0      -27.355081   -2.149943    4.673563
    154          1           0      -25.885408   -2.456750    3.621228
    155          1           0      -27.791264   -4.177667   -1.267659
    156          1           0      -23.559391   -3.649532   -2.357726
    157          1           0      -24.367342   -3.376524   -3.860604
    158          1           0      -24.154147   -5.019328   -3.484457
 ---------------------------------------------------------------------

 SCF Done:  E(RwB97XD) =  -4070.60911399     A.U. after   19 cycles

 Excitation energies and oscillator strengths:

 Excited State   1:      Singlet-A      1.6885 eV  734.30 nm  f=0.3896  <S**2>=0.000
     309 -> 315       -0.18195
     311 -> 313        0.68309
     309 <- 315       -0.11274
 This state for optimization and/or second-order correction.
 Total Energy, E(TD-HF/TD-DFT) =  -4070.54706394
 Copying the excited state density for this state as the 1-particle RhoCI density.

 Excited State   2:      Singlet-A      1.7177 eV  721.81 nm  f=0.3755  <S**2>=0.000
     310 -> 316        0.19150
     312 -> 314        0.67995
     310 <- 316        0.11531

 Excited State   3:      Singlet-A      2.1591 eV  574.24 nm  f=0.1069  <S**2>=0.000
     310 -> 314        0.63944
     312 -> 316       -0.28262

 Excited State   4:      Singlet-A      2.1633 eV  573.13 nm  f=0.1255  <S**2>=0.000
     309 -> 313        0.64777
     311 -> 315        0.25633

 Excited State   5:      Singlet-A      3.2087 eV  386.40 nm  f=0.0008  <S**2>=0.000
     305 -> 313       -0.33654
     308 -> 313        0.59946

 The electronic state is 1-A.
 Alpha  occ. eigenvalues --  -46.96137 -46.95460 -19.31578 -19.29426 -19.24405
 Alpha  occ. eigenvalues --  -19.24161 -19.23870 -19.23299 -19.23226 -19.22484
 Alpha  occ. eigenvalues --  -14.47258 -14.46661 -14.46641 -14.46442 -14.44437
 Alpha  occ. eigenvalues --  -14.44372 -14.44227 -14.43164 -10.43283 -10.42390
 Alpha  occ. eigenvalues --  -10.39082 -10.38808 -10.38426 -10.37193 -10.36471
 Alpha  occ. eigenvalues --  -10.35979 -10.35800 -10.35731 -10.35579 -10.35326
 Alpha  occ. eigenvalues --  -10.35224 -10.35093 -10.35045 -10.34491 -10.34479
 Alpha  occ. eigenvalues --  -10.34469 -10.34172 -10.34141 -10.33789 -10.33595
 Alpha  occ. eigenvalues --  -10.33156 -10.33020 -10.32876 -10.32704 -10.32584
 Alpha  occ. eigenvalues --  -10.32498 -10.32447 -10.32428 -10.32428 -10.32408
 Alpha  occ. eigenvalues --  -10.32173 -10.32155 -10.32116 -10.32099 -10.32082
 Alpha  occ. eigenvalues --  -10.32054 -10.31960 -10.31895 -10.31800 -10.31666
 Alpha  occ. eigenvalues --  -10.31517 -10.31458 -10.31431 -10.31423 -10.31360
 Alpha  occ. eigenvalues --  -10.31256 -10.31179 -10.31177 -10.31144 -10.31141
 Alpha  occ. eigenvalues --  -10.30922 -10.30771 -10.30501 -10.30417 -10.30335
 Alpha  occ. eigenvalues --  -10.30257 -10.30206 -10.30204 -10.29864 -10.29787
 Alpha  occ. eigenvalues --  -10.29666 -10.29512 -10.29414 -10.28804 -10.28544
 Alpha  occ. eigenvalues --  -10.27819  -3.21942  -3.21365  -1.95543  -1.95097
 Alpha  occ. eigenvalues --   -1.94926  -1.94861  -1.94505  -1.94315  -1.19565
 Alpha  occ. eigenvalues --   -1.16435  -1.11390  -1.11224  -1.10724  -1.10625
 Alpha  occ. eigenvalues --   -1.10190  -1.08436  -1.08117  -1.06971  -1.06534
 Alpha  occ. eigenvalues --   -1.05763  -1.05059  -1.04731  -1.03662  -1.03590
 Alpha  occ. eigenvalues --   -0.96038  -0.94205  -0.91586  -0.91229  -0.90902
 Alpha  occ. eigenvalues --   -0.90623  -0.90262  -0.89700  -0.89656  -0.89221
 Alpha  occ. eigenvalues --   -0.88692  -0.88332  -0.87772  -0.87393  -0.87009
 Alpha  occ. eigenvalues --   -0.86209  -0.85999  -0.85281  -0.85212  -0.84692
 Alpha  occ. eigenvalues --   -0.84426  -0.84182  -0.83382  -0.82845  -0.82584
 Alpha  occ. eigenvalues --   -0.82016  -0.80560  -0.80320  -0.79962  -0.79455
 Alpha  occ. eigenvalues --   -0.78963  -0.78330  -0.78048  -0.77602  -0.76929
 Alpha  occ. eigenvalues --   -0.76921  -0.74482  -0.74469  -0.74107  -0.73525
 Alpha  occ. eigenvalues --   -0.72342  -0.72069  -0.71066  -0.71011  -0.70780
 Alpha  occ. eigenvalues --   -0.69796  -0.69157  -0.68922  -0.68472  -0.67336
 Alpha  occ. eigenvalues --   -0.67235  -0.67196  -0.66875  -0.66573  -0.66351
 Alpha  occ. eigenvalues --   -0.66198  -0.65795  -0.63368  -0.62259  -0.62213
 Alpha  occ. eigenvalues --   -0.61698  -0.61472  -0.61324  -0.60721  -0.60593
 Alpha  occ. eigenvalues --   -0.60367  -0.60081  -0.60020  -0.59858  -0.59502
 Alpha  occ. eigenvalues --   -0.58735  -0.58569  -0.58203  -0.57974  -0.57764
 Alpha  occ. eigenvalues --   -0.57188  -0.57083  -0.56894  -0.56457  -0.56205
 Alpha  occ. eigenvalues --   -0.55689  -0.55466  -0.55435  -0.55208  -0.55015
 Alpha  occ. eigenvalues --   -0.54921  -0.54778  -0.54477  -0.54450  -0.53959
 Alpha  occ. eigenvalues --   -0.53800  -0.53706  -0.53451  -0.53330  -0.53212
 Alpha  occ. eigenvalues --   -0.53008  -0.52805  -0.52702  -0.52437  -0.52314
 Alpha  occ. eigenvalues --   -0.51729  -0.51568  -0.51460  -0.51422  -0.51175
 Alpha  occ. eigenvalues --   -0.51117  -0.51038  -0.50939  -0.50770  -0.50689
 Alpha  occ. eigenvalues --   -0.50576  -0.50502  -0.50406  -0.50056  -0.49951
 Alpha  occ. eigenvalues --   -0.49864  -0.49538  -0.49411  -0.49213  -0.49024
 Alpha  occ. eigenvalues --   -0.48648  -0.48634  -0.48526  -0.48426  -0.48405
 Alpha  occ. eigenvalues --   -0.48370  -0.48080  -0.47997  -0.47718  -0.47663
 Alpha  occ. eigenvalues --   -0.47547  -0.47410  -0.47131  -0.46818  -0.46812
 Alpha  occ. eigenvalues --   -0.46576  -0.46509  -0.46473  -0.46466  -0.46102
 Alpha  occ. eigenvalues --   -0.45716  -0.45686  -0.45644  -0.45498  -0.45383
 Alpha  occ. eigenvalues --   -0.45119  -0.44737  -0.44657  -0.44363  -0.44317
 Alpha  occ. eigenvalues --   -0.44251  -0.44222  -0.44178  -0.43825  -0.43769
 Alpha  occ. eigenvalues --   -0.43730  -0.43721  -0.43536  -0.43366  -0.43294
 Alpha  occ. eigenvalues --   -0.43168  -0.43065  -0.43008  -0.42924  -0.42475
 Alpha  occ. eigenvalues --   -0.42339  -0.41975  -0.41669  -0.41419  -0.41087
 Alpha  occ. eigenvalues --   -0.40997  -0.40649  -0.39786  -0.39693  -0.39460
 Alpha  occ. eigenvalues --   -0.38981  -0.38873  -0.38635  -0.38420  -0.38015
 Alpha  occ. eigenvalues --   -0.37880  -0.37440  -0.36707  -0.35967  -0.35893
 Alpha  occ. eigenvalues --   -0.35535  -0.35296  -0.35285  -0.33983  -0.33524
 Alpha  occ. eigenvalues --   -0.33178  -0.32809  -0.32502  -0.32384  -0.32300
 Alpha  occ. eigenvalues --   -0.31919  -0.31642  -0.31125  -0.26212  -0.25724
 Alpha  occ. eigenvalues --   -0.23466  -0.23052
 Alpha virt. eigenvalues --   -0.07486  -0.06871   0.00061   0.00145   0.02214
 Alpha virt. eigenvalues --    0.02227   0.04133   0.04447   0.04474   0.05705
 Alpha virt. eigenvalues --    0.07245   0.07371   0.08034   0.08129   0.08590

 Mulliken charges:
               1
     1  Mg   0.931649
     2  C   -0.000951
     3  C   -0.065694
     4  C   -0.091604
     5  C   -0.077496
     6  N   -0.307277
     7  C    0.004139
     8  C   -0.074573
     9  C   -0.126307
    10  C    0.080273
    11  C    0.020514
    12  C    0.007972
    13  C   -0.131148
    14  H    0.036929
    15  N   -0.514538
    16  C    0.148890
    17  C   -0.151809
    18  C   -0.055429
    19  C    0.178001
    20  C    0.087298
    21  C    0.034408
    22  O   -0.271024
    23  C    0.017085
    24  N   -0.324854
    25  C    0.043696
    26  C   -0.057458
    27  C   -0.088549
    28  C    0.105960
    29  C    0.017448
    30  C   -0.009873
    31  C   -0.055788
    32  N   -0.439804
    33  C    0.094549
    34  C   -0.179665
    35  C    0.011866
    36  C    0.117833
    37  C    0.048036
    38  C    0.070952
    39  O   -0.201876
    40  C   -0.081254
    41  C    0.257166
    42  O   -0.227833
    43  O   -0.352668
    44  C    0.138906
    45  H   -0.003838
    46  H   -0.037275
    47  H   -0.005221
    48  H    0.022160
    49  H    0.037576
    50  H    0.038113
    51  H    0.026471
    52  H    0.039065
    53  H    0.025055
    54  H    0.032737
    55  H    0.078035
    56  H    0.066408
    57  H    0.053650
    58  H    0.029906
    59  H    0.063947
    60  H    0.061093
    61  H    0.077260
    62  H    0.047621
    63  H    0.049742
    64  H    0.040758
    65  H    0.036119
    66  H    0.051912
    67  H    0.027109
    68  H    0.036498
    69  H    0.027977
    70  H    0.034943
    71  H    0.031360
    72  H    0.047286
    73  H    0.038323
    74  H    0.058187
    75  H    0.037801
    76  H    0.089640
    77  H    0.063439
    78  H    0.059056
    79  H    0.050992
    80  Mg   0.949245
    81  C    0.012582
    82  C   -0.090578
    83  C   -0.048240
    84  C   -0.087849
    85  N   -0.314456
    86  C   -0.013112
    87  C   -0.055981
    88  C   -0.105105
    89  C    0.077707
    90  C    0.018436
    91  C    0.000076
    92  C   -0.139649
    93  H    0.031639
    94  N   -0.486325
    95  C    0.140171
    96  C   -0.180369
    97  C   -0.072203
    98  C    0.161145
    99  C    0.072866
   100  C    0.036449
   101  O   -0.261897
   102  C    0.006568
   103  N   -0.272122
   104  C    0.015747
   105  C   -0.110010
   106  C    0.029258
   107  C   -0.040034
   108  C   -0.003614
   109  C   -0.032811
   110  C   -0.036106
   111  N   -0.476854
   112  C    0.148546
   113  C   -0.176058
   114  C    0.006782
   115  C    0.138845
   116  C    0.087145
   117  C    0.031665
   118  O   -0.201443
   119  C   -0.063100
   120  C    0.266948
   121  O   -0.263220
   122  O   -0.379038
   123  C    0.150047
   124  H    0.007868
   125  H    0.029017
   126  H   -0.009073
   127  H    0.057230
   128  H    0.044906
   129  H    0.035045
   130  H    0.051812
   131  H    0.033477
   132  H    0.031603
   133  H    0.036288
   134  H    0.048466
   135  H    0.062281
   136  H    0.047854
   137  H    0.064191
   138  H    0.046314
   139  H    0.050899
   140  H    0.050377
   141  H    0.058514
   142  H    0.052379
   143  H    0.036477
   144  H    0.045563
   145  H    0.037052
   146  H    0.064047
   147  H    0.030890
   148  H    0.025081
   149  H    0.049785
   150  H    0.041212
   151  H    0.038647
   152  H    0.043753
   153  H    0.031542
   154  H    0.051165
   155  H    0.073536
   156  H    0.064660
   157  H    0.041707
   158  H    0.053742
 Sum of Mulliken charges =  -0.00000

 Dipole moment (field-independent basis, Debye):
    X=             -0.1553    Y=              3.4186    Z=             -2.7849  Tot=              4.4121
 Quadrupole moment (field-independent basis, Debye-Ang):
   XX=            -13.2237   YY=           -569.2103   ZZ=           -453.5693
   XY=             -6.3642   XZ=             46.0992   YZ=             -3.1046

 Normal termination of Gaussian 16 at Sun Sep 19 18:48:20 2021.
