 Gaussian 16, Revision A.03,
 Gaussian 16:  ES64L-G16RevA.03 25-Dec-2016

 --------------------------------
 #p wB97XD/Def2SVP td=(nstates=5)
 --------------------------------

 --------------------------------
 TDDFT excited states in gaussian
 --------------------------------
 Symbolic Z-matrix:
 Charge =  0 Multiplicity = 1

                         Standard orientation:
 ---------------------------------------------------------------------
 Center     Atomic      Atomic             Coordinates (Angstroms)
 Number     Number       Type             X           Y           Z
 ---------------------------------------------------------------------
      1         12           0      -23.417147    0.508359    0.231405
      2          6           0      -22.475730   -2.334552   -1.545987
      3          6           0      -22.177356    2.474584   -2.304680
      4          6           0      -24.137886    3.157017    2.198001
      5          6           0      -24.300344   -1.625132    2.958653
      6          7           0      -22.356463    0.081487   -1.619061
      7          6           0      -22.099301   -1.134003   -2.173928
      8          6           0      -21.502145   -0.992856   -3.580046
      9          6           0      -21.304470    0.583970   -3.684351
     10          6           0      -22.023669    1.079032   -2.425165
     11          6           0      -19.832510    0.978556   -3.682793
     12          6           0      -22.432536   -1.427244   -4.768039
     13          6           0      -21.764804   -1.912770   -6.028324
     14          1           0      -20.340446   -1.652387   -6.238403
     15          7           0      -23.271948    2.496718   -0.059566
     16          6           0      -22.712852    3.117281   -1.194595
     17          6           0      -22.968558    4.526352   -1.049082
     18          6           0      -23.578346    4.771177    0.207303
     19          6           0      -23.688948    3.441306    0.855764
     20          6           0      -22.425831    5.569142   -2.002722
     21          6           0      -24.073118    6.013194    0.821369
     22          8           0      -24.393396    6.097808    1.987828
     23          6           0      -24.056483    7.361495    0.013708
     24          7           0      -24.298786    0.780754    2.274746
     25          6           0      -24.453827    1.950207    2.819767
     26          6           0      -24.984925    1.832496    4.280117
     27          6           0      -25.115106    0.338935    4.517389
     28          6           0      -24.492953   -0.265959    3.207636
     29          6           0      -24.049529    2.657936    5.283561
     30          6           0      -26.563101   -0.103596    4.816331
     31          6           0      -26.971718   -0.254915    6.329284
     32          7           0      -23.654877   -1.473258    0.575637
     33          6           0      -24.018619   -2.212208    1.728733
     34          6           0      -23.993258   -3.602367    1.475496
     35          6           0      -23.297358   -3.669976    0.194352
     36          6           0      -23.172339   -2.331390   -0.275755
     37          6           0      -24.227284   -4.699779    2.497526
     38          6           0      -22.743545   -4.625125   -0.692879
     39          8           0      -22.710591   -5.849049   -0.668501
     40          6           0      -22.226003   -3.720686   -1.994838
     41          6           0      -20.794938   -4.120488   -2.204068
     42          8           0      -19.905156   -4.005792   -1.354607
     43          8           0      -20.585066   -4.780351   -3.451222
     44          6           0      -19.181419   -5.220157   -3.726192
     45          1           0      -21.762492    3.035601   -3.145540
     46          1           0      -24.166121    4.048015    2.828126
     47          1           0      -24.604341   -2.324082    3.740191
     48          1           0      -20.549742   -1.523020   -3.558786
     49          1           0      -21.728353    1.005669   -4.595627
     50          1           0      -19.192874    0.117603   -3.875133
     51          1           0      -19.540977    1.517427   -2.780869
     52          1           0      -19.539834    1.589831   -4.536513
     53          1           0      -23.083706   -0.584461   -4.997340
     54          1           0      -23.124798   -2.165605   -4.362853
     55          1           0      -22.234018   -1.383427   -6.857329
     56          1           0      -21.907766   -2.990017   -6.113566
     57          1           0      -21.671352    6.212965   -1.550794
     58          1           0      -23.269048    6.145032   -2.386376
     59          1           0      -21.903914    5.190585   -2.881436
     60          1           0      -23.036977    7.740005    0.091882
     61          1           0      -24.648950    8.115853    0.531601
     62          1           0      -24.286822    7.188957   -1.036907
     63          1           0      -25.952383    2.332105    4.226580
     64          1           0      -24.423767   -0.011090    5.282415
     65          1           0      -23.672579    2.011348    6.075863
     66          1           0      -24.581988    3.428760    5.841063
     67          1           0      -23.228569    3.011938    4.658656
     68          1           0      -26.685322   -1.073404    4.332723
     69          1           0      -27.215446    0.604594    4.305219
     70          1           0      -26.683838   -1.256997    6.649134
     71          1           0      -27.998006   -0.034811    6.623824
     72          1           0      -26.254940    0.422002    6.792937
     73          1           0      -25.311666   -4.807146    2.499694
     74          1           0      -23.891617   -4.398658    3.489169
     75          1           0      -23.620596   -5.599982    2.391139
     76          1           0      -22.868121   -3.938045   -2.849283
     77          1           0      -18.846355   -5.966232   -3.006533
     78          1           0      -18.398624   -4.462285   -3.767065
     79          1           0      -19.344394   -5.711364   -4.685490
     80         12           0       23.463086    0.496251   -0.727633
     81          6           0       22.422928   -2.827745    0.011462
     82          6           0       20.277961    1.240048   -1.744735
     83          6           0       24.215483    3.900945   -0.429275
     84          6           0       26.519586   -0.177011    0.870176
     85          7           0       21.477324   -0.722638   -0.576193
     86          6           0       21.345134   -2.056305   -0.488973
     87          6           0       20.033433   -2.474069   -1.128096
     88          6           0       19.284901   -1.152832   -1.644785
     89          6           0       20.531499   -0.155919   -1.419561
     90          6           0       18.901235   -1.346462   -3.129065
     91          6           0       19.182801   -3.267735   -0.149522
     92          6           0       19.206023   -2.808933    1.327892
     93          1           0       17.934214   -2.093432    1.859720
     94          7           0       22.407804    2.360611   -1.133083
     95          6           0       21.088040    2.384486   -1.528484
     96          6           0       20.807504    3.746187   -1.860214
     97          6           0       21.885423    4.600470   -1.410853
     98          6           0       22.944552    3.645622   -0.996985
     99          6           0       19.453300    4.202085   -2.352145
    100          6           0       21.875304    6.121781   -1.253030
    101          8           0       20.861815    6.751156   -1.488055
    102          6           0       23.011298    6.877821   -0.817939
    103          7           0       25.077810    1.706891    0.191050
    104          6           0       25.200038    3.016735    0.034301
    105          6           0       26.456175    3.585977    0.673524
    106          6           0       26.994104    2.282539    1.406525
    107          6           0       26.219515    1.190268    0.761817
    108          6           0       27.502037    4.198281   -0.380764
    109          6           0       26.829448    2.423010    2.989676
    110          6           0       28.037561    2.546146    3.874444
    111          7           0       24.390777   -1.132885   -0.003260
    112          6           0       25.696239   -1.285249    0.506689
    113          6           0       25.988147   -2.706222    0.772513
    114          6           0       24.739867   -3.290789    0.559354
    115          6           0       23.736575   -2.321118    0.208736
    116          6           0       27.356044   -3.403466    1.089797
    117          6           0       24.058166   -4.587872    0.616248
    118          8           0       24.443305   -5.739013    0.879776
    119          6           0       22.553287   -4.361593    0.253831
    120          6           0       21.921132   -4.780168    1.536252
    121          8           0       22.143852   -4.291241    2.614092
    122          8           0       21.168795   -5.859619    1.342621
    123          6           0       20.361636   -6.411673    2.486151
    124          1           0       19.378181    1.408956   -2.339732
    125          1           0       24.609076    4.915708   -0.343201
    126          1           0       27.442087   -0.254791    1.450227
    127          1           0       20.438266   -3.120869   -1.906500
    128          1           0       18.417101   -0.898152   -1.035793
    129          1           0       17.818179   -1.259012   -3.212977
    130          1           0       19.156564   -2.323980   -3.538981
    131          1           0       19.368433   -0.521160   -3.665708
    132          1           0       19.494716   -4.312135   -0.160216
    133          1           0       18.129308   -3.210270   -0.424840
    134          1           0       19.919101   -2.033362    1.607028
    135          1           0       19.392059   -3.723441    1.891184
    136          1           0       18.734532    3.382702   -2.379294
    137          1           0       19.604276    4.713156   -3.303613
    138          1           0       19.127739    5.009750   -1.697498
    139          1           0       23.346342    6.675580    0.199610
    140          1           0       22.775035    7.940701   -0.864860
    141          1           0       23.788950    6.561136   -1.513815
    142          1           0       26.262969    4.301699    1.472194
    143          1           0       28.066962    2.376640    1.237575
    144          1           0       27.076101    4.152420   -1.383476
    145          1           0       28.383916    3.557540   -0.366528
    146          1           0       27.865487    5.204298   -0.165556
    147          1           0       26.391140    1.523478    3.422068
    148          1           0       26.189731    3.267508    3.242275
    149          1           0       28.310027    1.620323    4.381178
    150          1           0       27.658613    3.274017    4.592628
    151          1           0       28.874549    3.089132    3.435136
    152          1           0       27.605139   -3.183717    2.127591
    153          1           0       28.077970   -3.036718    0.359941
    154          1           0       27.211936   -4.482222    1.032419
    155          1           0       22.357623   -4.989964   -0.615833
    156          1           0       20.935054   -7.087582    3.120941
    157          1           0       19.489021   -6.957379    2.124896
    158          1           0       20.025724   -5.532399    3.035794
 ---------------------------------------------------------------------

 SCF Done:  E(RwB97XD) =  -4070.59981531     A.U. after   19 cycles

 Excitation energies and oscillator strengths:

 Excited State   1:      Singlet-A      1.6285 eV  761.34 nm  f=0.3478  <S**2>=0.000
     309 -> 315        0.20689
     312 -> 314        0.67852
     309 <- 315        0.12523
 This state for optimization and/or second-order correction.
 Total Energy, E(TD-HF/TD-DFT) =  -4070.53996882
 Copying the excited state density for this state as the 1-particle RhoCI density.

 Excited State   2:      Singlet-A      1.6920 eV  732.79 nm  f=0.3750  <S**2>=0.000
     310 -> 316       -0.17798
     311 -> 313        0.68409
     310 <- 316       -0.11254

 Excited State   3:      Singlet-A      2.1415 eV  578.96 nm  f=0.0704  <S**2>=0.000
     309 -> 314        0.61695
     312 -> 315       -0.33159

 Excited State   4:      Singlet-A      2.1734 eV  570.47 nm  f=0.1432  <S**2>=0.000
     310 -> 313        0.64712
     311 -> 316        0.26329

 Excited State   5:      Singlet-A      3.1859 eV  389.16 nm  f=0.0154  <S**2>=0.000
     308 -> 314        0.65680
     308 -> 318        0.10728
     312 -> 315        0.20214

 The electronic state is 1-A.
 Alpha  occ. eigenvalues --  -46.96550 -46.94341 -19.30292 -19.29358 -19.24375
 Alpha  occ. eigenvalues --  -19.24362 -19.23910 -19.23792 -19.23208 -19.23093
 Alpha  occ. eigenvalues --  -14.47285 -14.47016 -14.46565 -14.46246 -14.44856
 Alpha  occ. eigenvalues --  -14.44754 -14.44157 -14.43912 -10.42908 -10.42568
 Alpha  occ. eigenvalues --  -10.39515 -10.39003 -10.38304 -10.38269 -10.36223
 Alpha  occ. eigenvalues --  -10.36117 -10.35883 -10.35708 -10.35401 -10.35342
 Alpha  occ. eigenvalues --  -10.35017 -10.35013 -10.34918 -10.34870 -10.34838
 Alpha  occ. eigenvalues --  -10.34733 -10.34720 -10.34672 -10.33972 -10.33970
 Alpha  occ. eigenvalues --  -10.33916 -10.33005 -10.32950 -10.32813 -10.32812
 Alpha  occ. eigenvalues --  -10.32788 -10.32440 -10.32399 -10.32383 -10.32226
 Alpha  occ. eigenvalues --  -10.32221 -10.32205 -10.32200 -10.32059 -10.32057
 Alpha  occ. eigenvalues --  -10.32000 -10.31901 -10.31870 -10.31840 -10.31784
 Alpha  occ. eigenvalues --  -10.31728 -10.31667 -10.31522 -10.31505 -10.31472
 Alpha  occ. eigenvalues --  -10.31148 -10.30993 -10.30867 -10.30808 -10.30783
 Alpha  occ. eigenvalues --  -10.30684 -10.30545 -10.30463 -10.30341 -10.30284
 Alpha  occ. eigenvalues --  -10.30281 -10.30081 -10.29885 -10.29827 -10.29741
 Alpha  occ. eigenvalues --  -10.29682 -10.29607 -10.29507 -10.29320 -10.28991
 Alpha  occ. eigenvalues --  -10.28497  -3.22343  -3.20449  -1.95888  -1.95491
 Alpha  occ. eigenvalues --   -1.95276  -1.94058  -1.93572  -1.93439  -1.19233
 Alpha  occ. eigenvalues --   -1.15568  -1.13419  -1.12432  -1.11041  -1.10803
 Alpha  occ. eigenvalues --   -1.09900  -1.08002  -1.07205  -1.06600  -1.05948
 Alpha  occ. eigenvalues --   -1.05677  -1.05398  -1.04544  -1.04432  -1.03664
 Alpha  occ. eigenvalues --   -0.94034  -0.93924  -0.91220  -0.90842  -0.90835
 Alpha  occ. eigenvalues --   -0.90680  -0.90354  -0.90167  -0.89790  -0.89406
 Alpha  occ. eigenvalues --   -0.89026  -0.88191  -0.88074  -0.87338  -0.86602
 Alpha  occ. eigenvalues --   -0.86242  -0.85922  -0.84883  -0.84784  -0.84530
 Alpha  occ. eigenvalues --   -0.84144  -0.83449  -0.83056  -0.82335  -0.82213
 Alpha  occ. eigenvalues --   -0.81982  -0.80800  -0.79842  -0.79294  -0.79181
 Alpha  occ. eigenvalues --   -0.78769  -0.78340  -0.78212  -0.77796  -0.76999
 Alpha  occ. eigenvalues --   -0.76918  -0.75115  -0.74852  -0.73720  -0.73609
 Alpha  occ. eigenvalues --   -0.71567  -0.70908  -0.70855  -0.70450  -0.70096
 Alpha  occ. eigenvalues --   -0.69951  -0.69313  -0.68693  -0.67722  -0.67495
 Alpha  occ. eigenvalues --   -0.67184  -0.67159  -0.66966  -0.66777  -0.66617
 Alpha  occ. eigenvalues --   -0.66032  -0.64418  -0.63384  -0.62431  -0.62251
 Alpha  occ. eigenvalues --   -0.61603  -0.61332  -0.61258  -0.61008  -0.60639
 Alpha  occ. eigenvalues --   -0.60542  -0.59818  -0.59743  -0.59313  -0.59256
 Alpha  occ. eigenvalues --   -0.58285  -0.58222  -0.57821  -0.57003  -0.56973
 Alpha  occ. eigenvalues --   -0.56875  -0.56566  -0.56479  -0.55955  -0.55818
 Alpha  occ. eigenvalues --   -0.55395  -0.55381  -0.55153  -0.55017  -0.54890
 Alpha  occ. eigenvalues --   -0.54582  -0.54459  -0.54440  -0.54280  -0.54227
 Alpha  occ. eigenvalues --   -0.53968  -0.53954  -0.53683  -0.53489  -0.53457
 Alpha  occ. eigenvalues --   -0.52902  -0.52604  -0.52510  -0.52140  -0.52073
 Alpha  occ. eigenvalues --   -0.51773  -0.51737  -0.51646  -0.51620  -0.51491
 Alpha  occ. eigenvalues --   -0.51389  -0.51209  -0.51168  -0.51008  -0.50928
 Alpha  occ. eigenvalues --   -0.50580  -0.50481  -0.50305  -0.50184  -0.50058
 Alpha  occ. eigenvalues --   -0.49715  -0.49601  -0.49423  -0.49234  -0.49203
 Alpha  occ. eigenvalues --   -0.49069  -0.48912  -0.48844  -0.48840  -0.48616
 Alpha  occ. eigenvalues --   -0.48537  -0.48205  -0.47752  -0.47742  -0.47549
 Alpha  occ. eigenvalues --   -0.47239  -0.47091  -0.47038  -0.47034  -0.46940
 Alpha  occ. eigenvalues --   -0.46800  -0.46657  -0.46501  -0.46267  -0.46229
 Alpha  occ. eigenvalues --   -0.46084  -0.45920  -0.45816  -0.45604  -0.45499
 Alpha  occ. eigenvalues --   -0.45285  -0.45130  -0.44949  -0.44859  -0.44822
 Alpha  occ. eigenvalues --   -0.44569  -0.44507  -0.44343  -0.43971  -0.43928
 Alpha  occ. eigenvalues --   -0.43762  -0.43460  -0.43457  -0.43353  -0.43256
 Alpha  occ. eigenvalues --   -0.43187  -0.42776  -0.42689  -0.42178  -0.41997
 Alpha  occ. eigenvalues --   -0.41965  -0.41780  -0.41726  -0.41327  -0.40549
 Alpha  occ. eigenvalues --   -0.40546  -0.39903  -0.39808  -0.39386  -0.39249
 Alpha  occ. eigenvalues --   -0.39141  -0.38968  -0.38845  -0.38336  -0.38107
 Alpha  occ. eigenvalues --   -0.37774  -0.37683  -0.36457  -0.36192  -0.36086
 Alpha  occ. eigenvalues --   -0.35914  -0.35615  -0.35552  -0.33852  -0.33594
 Alpha  occ. eigenvalues --   -0.33163  -0.32758  -0.32752  -0.32609  -0.32385
 Alpha  occ. eigenvalues --   -0.31750  -0.31596  -0.31121  -0.26201  -0.26145
 Alpha  occ. eigenvalues --   -0.23389  -0.23121
 Alpha virt. eigenvalues --   -0.07418  -0.07122  -0.00664   0.00251   0.02239
 Alpha virt. eigenvalues --    0.02345   0.04139   0.04487   0.04575   0.06839
 Alpha virt. eigenvalues --    0.06894   0.07178   0.07595   0.07886   0.08587

 Mulliken charges:
               1
     1  Mg   0.981221
     2  C   -0.071244
     3  C   -0.108026
     4  C   -0.077340
     5  C   -0.077033
     6  N   -0.334047
     7  C    0.003410
     8  C   -0.040038
     9  C   -0.140242
    10  C    0.072952
    11  C    0.018694
    12  C    0.018200
    13  C   -0.105780
    14  H    0.036517
    15  N   -0.531845
    16  C    0.234342
    17  C   -0.151091
    18  C   -0.045597
    19  C    0.152554
    20  C    0.052049
    21  C    0.017231
    22  O   -0.224846
    23  C   -0.005391
    24  N   -0.321115
    25  C    0.055896
    26  C   -0.094085
    27  C   -0.043718
    28  C    0.027431
    29  C    0.014749
    30  C   -0.005383
    31  C   -0.042796
    32  N   -0.449328
    33  C    0.125173
    34  C   -0.138897
    35  C   -0.084671
    36  C    0.187829
    37  C    0.059679
    38  C    0.113543
    39  O   -0.211603
    40  C   -0.083741
    41  C    0.288663
    42  O   -0.260472
    43  O   -0.404780
    44  C    0.141026
    45  H    0.004109
    46  H    0.032119
    47  H    0.000484
    48  H    0.043792
    49  H    0.038825
    50  H    0.033324
    51  H    0.049273
    52  H    0.023053
    53  H    0.024371
    54  H    0.025376
    55  H    0.048822
    56  H    0.067384
    57  H    0.063484
    58  H    0.049918
    59  H    0.030823
    60  H    0.053354
    61  H    0.056028
    62  H    0.038246
    63  H    0.048297
    64  H    0.027376
    65  H    0.030058
    66  H    0.045674
    67  H    0.051205
    68  H    0.026146
    69  H    0.026670
    70  H    0.037033
    71  H    0.054576
    72  H    0.027407
    73  H    0.054129
    74  H    0.037450
    75  H    0.064149
    76  H    0.072230
    77  H    0.058589
    78  H    0.054422
    79  H    0.053755
    80  Mg   0.942063
    81  C   -0.038068
    82  C   -0.073375
    83  C   -0.078522
    84  C   -0.055682
    85  N   -0.319827
    86  C   -0.052929
    87  C   -0.003213
    88  C   -0.147386
    89  C    0.056603
    90  C    0.022590
    91  C   -0.011495
    92  C   -0.138159
    93  H    0.013820
    94  N   -0.462274
    95  C    0.168024
    96  C   -0.175001
    97  C   -0.086738
    98  C    0.201996
    99  C    0.084790
   100  C    0.035810
   101  O   -0.236023
   102  C    0.005413
   103  N   -0.322795
   104  C    0.047440
   105  C   -0.151661
   106  C   -0.062515
   107  C    0.046690
   108  C    0.017245
   109  C   -0.028925
   110  C   -0.050493
   111  N   -0.501386
   112  C    0.150932
   113  C   -0.184781
   114  C   -0.035082
   115  C    0.186971
   116  C    0.087888
   117  C    0.097791
   118  O   -0.231062
   119  C   -0.050425
   120  C    0.238031
   121  O   -0.235877
   122  O   -0.346755
   123  C    0.130761
   124  H    0.013628
   125  H   -0.019955
   126  H    0.003342
   127  H    0.035242
   128  H    0.061579
   129  H    0.033383
   130  H    0.044492
   131  H    0.040366
   132  H    0.041160
   133  H    0.041312
   134  H    0.087253
   135  H    0.047534
   136  H    0.029810
   137  H    0.048525
   138  H    0.062047
   139  H    0.066367
   140  H    0.056684
   141  H    0.054670
   142  H    0.040386
   143  H    0.018082
   144  H    0.043559
   145  H    0.031202
   146  H    0.046333
   147  H    0.037500
   148  H    0.032154
   149  H    0.053226
   150  H    0.028094
   151  H    0.026641
   152  H    0.054296
   153  H    0.056616
   154  H    0.063039
   155  H    0.067951
   156  H    0.072792
   157  H    0.059182
   158  H    0.067098
 Sum of Mulliken charges =  -0.00000

 Dipole moment (field-independent basis, Debye):
    X=              1.4382    Y=              5.8731    Z=             -4.0676  Tot=              7.2875
 Quadrupole moment (field-independent basis, Debye-Ang):
   XX=           -403.1915   YY=           -554.6289   ZZ=           -475.6240
   XY=            -55.5170   XZ=             15.1036   YZ=             -3.0921

 Normal termination of Gaussian 16 at Mon Sep 20 08:29:30 2021.
