 Gaussian 16, Revision A.03,
 Gaussian 16:  ES64L-G16RevA.03 25-Dec-2016

 --------------------------------
 #p wB97XD/Def2SVP td=(nstates=5)
 --------------------------------

 --------------------------------
 TDDFT excited states in gaussian
 --------------------------------
 Symbolic Z-matrix:
 Charge =  0 Multiplicity = 1

                         Standard orientation:
 ---------------------------------------------------------------------
 Center     Atomic      Atomic             Coordinates (Angstroms)
 Number     Number       Type             X           Y           Z
 ---------------------------------------------------------------------
      1         12           0       16.330857    0.594317   -0.116916
      2          6           0       15.258728   -2.289546    1.599701
      3          6           0       13.827917    2.349924    1.360863
      4          6           0       17.329997    3.303082   -1.878806
      5          6           0       18.561407   -1.377786   -1.904092
      6          7           0       14.692121    0.081947    1.215880
      7          6           0       14.514212   -1.132500    1.884185
      8          6           0       13.443281   -0.976778    2.921697
      9          6           0       12.723217    0.314633    2.466134
     10          6           0       13.835322    0.974788    1.610911
     11          6           0       11.427985    0.154404    1.609110
     12          6           0       13.937593   -0.911899    4.415819
     13          6           0       13.177856   -1.790533    5.357948
     14          1           0       12.766267   -1.163363    6.703027
     15          7           0       15.737374    2.524009   -0.145518
     16          6           0       14.715937    3.111072    0.619708
     17          6           0       14.658652    4.495621    0.367329
     18          6           0       15.709835    4.836226   -0.608032
     19          6           0       16.307561    3.565023   -0.901823
     20          6           0       13.611978    5.439193    0.883536
     21          6           0       16.112321    6.197040   -1.325723
     22          8           0       17.045054    6.241805   -2.092343
     23          6           0       15.401203    7.500190   -0.990044
     24          7           0       17.674267    0.887713   -1.752346
     25          6           0       17.882452    2.112189   -2.301723
     26          6           0       18.935144    2.005650   -3.506236
     27          6           0       19.553428    0.552707   -3.309272
     28          6           0       18.532665   -0.043606   -2.249057
     29          6           0       18.365606    2.202466   -4.938370
     30          6           0       21.035714    0.546905   -2.791155
     31          6           0       21.902603   -0.269774   -3.654424
     32          7           0       16.795336   -1.420608   -0.200134
     33          6           0       17.810448   -2.065655   -0.905004
     34          6           0       17.843665   -3.457959   -0.548574
     35          6           0       16.850363   -3.590655    0.400171
     36          6           0       16.272026   -2.377770    0.605124
     37          6           0       18.896823   -4.441219   -1.122692
     38          6           0       16.159014   -4.534934    1.258599
     39          8           0       16.279636   -5.739777    1.291442
     40          6           0       15.049912   -3.706880    2.078769
     41          6           0       13.718167   -4.263113    1.777234
     42          8           0       13.223130   -4.342171    0.622337
     43          8           0       13.160421   -4.699030    2.943302
     44          6           0       12.004545   -5.617039    2.763777
     45          1           0       12.976503    2.838152    1.839515
     46          1           0       17.701710    4.120026   -2.500539
     47          1           0       19.215657   -1.994586   -2.522930
     48          1           0       12.659865   -1.733703    2.867927
     49          1           0       12.418502    0.957509    3.292122
     50          1           0       10.832479   -0.722274    1.867217
     51          1           0       11.741978    0.121293    0.565519
     52          1           0       10.760470    1.015590    1.593854
     53          1           0       13.877284    0.142283    4.685638
     54          1           0       15.002116   -1.133941    4.496074
     55          1           0       13.875837   -2.619566    5.475746
     56          1           0       12.226079   -2.071865    4.907498
     57          1           0       13.938977    6.126718    1.663898
     58          1           0       12.828908    4.866181    1.378446
     59          1           0       13.092950    6.077693    0.169177
     60          1           0       15.962014    8.279531   -1.504554
     61          1           0       15.273059    7.622993    0.085807
     62          1           0       14.344692    7.419044   -1.247255
     63          1           0       19.660048    2.816913   -3.437443
     64          1           0       19.472454    0.015993   -4.255688
     65          1           0       17.284600    2.320910   -5.019490
     66          1           0       18.605413    1.378553   -5.610963
     67          1           0       18.838675    3.098681   -5.340631
     68          1           0       21.055843    0.080943   -1.805272
     69          1           0       21.506840    1.528807   -2.751336
     70          1           0       22.447434    0.394710   -4.325553
     71          1           0       21.466221   -1.094062   -4.217425
     72          1           0       22.601836   -0.831123   -3.034600
     73          1           0       19.716833   -3.867148   -1.554774
     74          1           0       18.436668   -5.185189   -1.774585
     75          1           0       19.300759   -4.938679   -0.241735
     76          1           0       15.232886   -3.744875    3.152930
     77          1           0       11.697260   -6.029995    3.724439
     78          1           0       12.407077   -6.469059    2.215504
     79          1           0       11.245428   -5.061034    2.212884
     80         12           0      -16.121167    0.466622    0.306835
     81          6           0      -15.454828   -2.685724   -0.828317
     82          6           0      -12.733801    0.627917    1.384961
     83          6           0      -16.622500    3.712496    1.080709
     84          6           0      -19.044087    0.498717   -1.588592
     85          7           0      -14.136456   -0.816123   -0.075680
     86          6           0      -14.228245   -2.148219   -0.347364
     87          6           0      -12.864393   -2.777592   -0.278484
     88          6           0      -11.955714   -1.676103    0.421923
     89          6           0      -12.969397   -0.507199    0.632400
     90          6           0      -10.992964   -2.163554    1.442230
     91          6           0      -12.226284   -3.442998   -1.588230
     92          6           0      -12.573886   -2.854361   -2.923388
     93          1           0      -11.420839   -2.572629   -3.876490
     94          7           0      -14.928259    1.864229    1.328166
     95          6           0      -13.624755    1.750355    1.700545
     96          6           0      -13.138469    2.940693    2.333194
     97          6           0      -14.329082    3.835737    2.358527
     98          6           0      -15.373154    3.144829    1.570619
     99          6           0      -11.815322    3.207052    2.873852
    100          6           0      -14.489736    5.191153    3.031871
    101          8           0      -13.558491    5.740762    3.503478
    102          6           0      -15.745738    6.015456    3.093547
    103          7           0      -17.527392    1.905311   -0.285284
    104          6           0      -17.598226    3.097540    0.326207
    105          6           0      -18.759359    4.010342   -0.333757
    106          6           0      -19.706261    2.830605   -0.873250
    107          6           0      -18.688615    1.718516   -0.963997
    108          6           0      -19.469689    4.977121    0.617798
    109          6           0      -20.475620    3.218640   -2.148850
    110          6           0      -21.980776    2.952217   -2.268686
    111          7           0      -17.024286   -0.783133   -1.049926
    112          6           0      -18.232397   -0.689675   -1.729639
    113          6           0      -18.559256   -1.900322   -2.377004
    114          6           0      -17.538878   -2.770571   -2.030510
    115          6           0      -16.603653   -2.047962   -1.208012
    116          6           0      -19.781177   -2.209242   -3.185683
    117          6           0      -17.006067   -4.068298   -2.074077
    118          8           0      -17.468099   -5.041859   -2.665670
    119          6           0      -15.574756   -4.049426   -1.465923
    120          6           0      -15.603192   -5.209761   -0.481990
    121          8           0      -14.756712   -6.128233   -0.456392
    122          8           0      -16.614404   -4.963738    0.416624
    123          6           0      -16.775203   -5.758670    1.658681
    124          1           0      -11.659309    0.659297    1.576827
    125          1           0      -16.689447    4.799849    1.154167
    126          1           0      -19.996782    0.494433   -2.121593
    127          1           0      -12.928584   -3.667246    0.349080
    128          1           0      -11.329023   -1.262565   -0.367705
    129          1           0      -11.019363   -1.593692    2.370950
    130          1           0       -9.986381   -2.275966    1.039390
    131          1           0      -11.284394   -3.164342    1.761106
    132          1           0      -12.483928   -4.492554   -1.730667
    133          1           0      -11.144599   -3.305984   -1.572044
    134          1           0      -13.292481   -2.036179   -2.888851
    135          1           0      -13.064889   -3.642598   -3.495039
    136          1           0      -11.388273    2.269952    3.229659
    137          1           0      -11.804165    3.931373    3.687434
    138          1           0      -11.214328    3.594132    2.050215
    139          1           0      -16.420211    5.159166    3.116447
    140          1           0      -15.904918    6.614998    2.197815
    141          1           0      -15.868437    6.673265    3.954130
    142          1           0      -18.297734    4.494774   -1.194716
    143          1           0      -20.462243    2.420248   -0.204229
    144          1           0      -20.456230    4.557008    0.815502
    145          1           0      -19.392892    5.998935    0.247323
    146          1           0      -18.986243    5.052686    1.591341
    147          1           0      -19.983908    2.704036   -2.974812
    148          1           0      -20.261275    4.266390   -2.360039
    149          1           0      -22.629934    3.763034   -2.599594
    150          1           0      -22.402124    2.483056   -1.378647
    151          1           0      -22.000929    2.100800   -2.948220
    152          1           0      -20.136016   -3.236724   -3.101694
    153          1           0      -19.561835   -2.001332   -4.233204
    154          1           0      -20.652774   -1.623545   -2.890576
    155          1           0      -14.943523   -4.226335   -2.335903
    156          1           0      -17.074619   -5.148612    2.510723
    157          1           0      -15.820875   -6.237035    1.879558
    158          1           0      -17.480181   -6.587972    1.701129
 ---------------------------------------------------------------------

 SCF Done:  E(RwB97XD) =  -4070.57852093     A.U. after   19 cycles

 Excitation energies and oscillator strengths:

 Excited State   1:      Singlet-A      1.5772 eV  786.11 nm  f=0.3824  <S**2>=0.000
     309 -> 315        0.17491
     311 -> 313        0.68650
     309 <- 315        0.11855
 This state for optimization and/or second-order correction.
 Total Energy, E(TD-HF/TD-DFT) =  -4070.52056046
 Copying the excited state density for this state as the 1-particle RhoCI density.

 Excited State   2:      Singlet-A      1.6895 eV  733.86 nm  f=0.3969  <S**2>=0.000
     310 -> 316       -0.18341
     312 -> 314        0.68250
     310 <- 316       -0.11555

 Excited State   3:      Singlet-A      2.0922 eV  592.61 nm  f=0.1447  <S**2>=0.000
     309 -> 313        0.64986
     311 -> 315       -0.25885

 Excited State   4:      Singlet-A      2.1431 eV  578.52 nm  f=0.1541  <S**2>=0.000
     310 -> 314        0.65156
     312 -> 316        0.25246

 Excited State   5:      Singlet-A      3.0092 eV  412.01 nm  f=0.0074  <S**2>=0.000
     307 -> 313       -0.21688
     308 -> 313        0.63615
     308 -> 317        0.12458

 The electronic state is 1-A.
 Alpha  occ. eigenvalues --  -46.96347 -46.93524 -19.31516 -19.30854 -19.25365
 Alpha  occ. eigenvalues --  -19.24915 -19.24455 -19.24050 -19.23650 -19.22230
 Alpha  occ. eigenvalues --  -14.47216 -14.46692 -14.46652 -14.46071 -14.44652
 Alpha  occ. eigenvalues --  -14.44330 -14.43949 -14.43131 -10.44435 -10.43259
 Alpha  occ. eigenvalues --  -10.40338 -10.39019 -10.38393 -10.37512 -10.36606
 Alpha  occ. eigenvalues --  -10.36189 -10.35890 -10.35703 -10.35054 -10.35050
 Alpha  occ. eigenvalues --  -10.34964 -10.34903 -10.34737 -10.34715 -10.34670
 Alpha  occ. eigenvalues --  -10.34631 -10.34401 -10.34191 -10.33987 -10.33489
 Alpha  occ. eigenvalues --  -10.33131 -10.33086 -10.33060 -10.32997 -10.32617
 Alpha  occ. eigenvalues --  -10.32595 -10.32550 -10.32407 -10.32404 -10.32162
 Alpha  occ. eigenvalues --  -10.32132 -10.32037 -10.32016 -10.31956 -10.31915
 Alpha  occ. eigenvalues --  -10.31828 -10.31809 -10.31797 -10.31679 -10.31653
 Alpha  occ. eigenvalues --  -10.31634 -10.31602 -10.31458 -10.31320 -10.31175
 Alpha  occ. eigenvalues --  -10.31008 -10.30794 -10.30792 -10.30745 -10.30731
 Alpha  occ. eigenvalues --  -10.30609 -10.30401 -10.30331 -10.30248 -10.30103
 Alpha  occ. eigenvalues --  -10.29957 -10.29955 -10.29933 -10.29833 -10.29665
 Alpha  occ. eigenvalues --  -10.29588 -10.29165 -10.29048 -10.28986 -10.28422
 Alpha  occ. eigenvalues --  -10.28320  -3.22281  -3.19658  -1.95822  -1.95437
 Alpha  occ. eigenvalues --   -1.95221  -1.93259  -1.92776  -1.92659  -1.17928
 Alpha  occ. eigenvalues --   -1.17913  -1.13938  -1.13625  -1.12526  -1.11696
 Alpha  occ. eigenvalues --   -1.09528  -1.08495  -1.07254  -1.06931  -1.06474
 Alpha  occ. eigenvalues --   -1.05329  -1.04977  -1.04550  -1.04204  -1.03489
 Alpha  occ. eigenvalues --   -0.95787  -0.94523  -0.91760  -0.91052  -0.90671
 Alpha  occ. eigenvalues --   -0.90534  -0.90357  -0.89956  -0.89918  -0.89230
 Alpha  occ. eigenvalues --   -0.88943  -0.88362  -0.87834  -0.87747  -0.86498
 Alpha  occ. eigenvalues --   -0.86196  -0.85953  -0.85684  -0.85049  -0.84793
 Alpha  occ. eigenvalues --   -0.84141  -0.84032  -0.83123  -0.82982  -0.82614
 Alpha  occ. eigenvalues --   -0.82597  -0.80509  -0.80211  -0.79794  -0.79223
 Alpha  occ. eigenvalues --   -0.78961  -0.78696  -0.78669  -0.77629  -0.77480
 Alpha  occ. eigenvalues --   -0.76809  -0.75635  -0.74846  -0.73789  -0.72896
 Alpha  occ. eigenvalues --   -0.72012  -0.71427  -0.70583  -0.70396  -0.70008
 Alpha  occ. eigenvalues --   -0.69502  -0.68609  -0.68507  -0.68246  -0.67552
 Alpha  occ. eigenvalues --   -0.67441  -0.67082  -0.66738  -0.66566  -0.66426
 Alpha  occ. eigenvalues --   -0.66032  -0.65648  -0.63915  -0.62330  -0.62320
 Alpha  occ. eigenvalues --   -0.62077  -0.61501  -0.61234  -0.60902  -0.60132
 Alpha  occ. eigenvalues --   -0.60094  -0.59672  -0.59619  -0.59572  -0.59258
 Alpha  occ. eigenvalues --   -0.58549  -0.58166  -0.57844  -0.57625  -0.57401
 Alpha  occ. eigenvalues --   -0.57306  -0.57111  -0.56871  -0.56442  -0.56000
 Alpha  occ. eigenvalues --   -0.55701  -0.55516  -0.55368  -0.55326  -0.55133
 Alpha  occ. eigenvalues --   -0.54553  -0.54484  -0.54470  -0.54090  -0.53808
 Alpha  occ. eigenvalues --   -0.53802  -0.53774  -0.53729  -0.53495  -0.53371
 Alpha  occ. eigenvalues --   -0.53086  -0.52952  -0.52792  -0.52688  -0.52591
 Alpha  occ. eigenvalues --   -0.52426  -0.52037  -0.51958  -0.51726  -0.51672
 Alpha  occ. eigenvalues --   -0.51495  -0.51342  -0.51331  -0.51165  -0.51090
 Alpha  occ. eigenvalues --   -0.50989  -0.50629  -0.50181  -0.49873  -0.49861
 Alpha  occ. eigenvalues --   -0.49564  -0.49527  -0.49331  -0.49199  -0.49150
 Alpha  occ. eigenvalues --   -0.49083  -0.48863  -0.48738  -0.48554  -0.48419
 Alpha  occ. eigenvalues --   -0.48368  -0.48106  -0.48046  -0.47759  -0.47658
 Alpha  occ. eigenvalues --   -0.47617  -0.47512  -0.47306  -0.47300  -0.47009
 Alpha  occ. eigenvalues --   -0.46972  -0.46859  -0.46675  -0.46569  -0.46385
 Alpha  occ. eigenvalues --   -0.46268  -0.46166  -0.45980  -0.45349  -0.45335
 Alpha  occ. eigenvalues --   -0.45241  -0.45028  -0.44847  -0.44770  -0.44704
 Alpha  occ. eigenvalues --   -0.44592  -0.44555  -0.44415  -0.44283  -0.44085
 Alpha  occ. eigenvalues --   -0.43981  -0.43857  -0.43771  -0.43691  -0.43457
 Alpha  occ. eigenvalues --   -0.43246  -0.43121  -0.42864  -0.42496  -0.42332
 Alpha  occ. eigenvalues --   -0.42223  -0.41948  -0.41028  -0.40986  -0.40716
 Alpha  occ. eigenvalues --   -0.40671  -0.40258  -0.39990  -0.39882  -0.39740
 Alpha  occ. eigenvalues --   -0.39478  -0.39018  -0.38749  -0.38388  -0.38194
 Alpha  occ. eigenvalues --   -0.37902  -0.37580  -0.36841  -0.36218  -0.36085
 Alpha  occ. eigenvalues --   -0.35895  -0.35361  -0.35360  -0.33842  -0.33727
 Alpha  occ. eigenvalues --   -0.33466  -0.33109  -0.32815  -0.32621  -0.32144
 Alpha  occ. eigenvalues --   -0.31733  -0.31575  -0.30443  -0.26428  -0.25866
 Alpha  occ. eigenvalues --   -0.23565  -0.23323
 Alpha virt. eigenvalues --   -0.08081  -0.07353  -0.00064   0.00657   0.02294
 Alpha virt. eigenvalues --    0.02799   0.04035   0.04789   0.04888   0.06490
 Alpha virt. eigenvalues --    0.06614   0.06712   0.07316   0.08064   0.08461

 Mulliken charges:
               1
     1  Mg   0.978565
     2  C   -0.032851
     3  C   -0.099737
     4  C   -0.063614
     5  C   -0.089511
     6  N   -0.321978
     7  C    0.015270
     8  C   -0.082489
     9  C   -0.128389
    10  C    0.030513
    11  C    0.020671
    12  C    0.044928
    13  C   -0.121178
    14  H    0.030797
    15  N   -0.523029
    16  C    0.241999
    17  C   -0.149314
    18  C   -0.081341
    19  C    0.154500
    20  C    0.041946
    21  C    0.076323
    22  O   -0.213794
    23  C   -0.007847
    24  N   -0.359215
    25  C    0.071783
    26  C   -0.108351
    27  C   -0.079739
    28  C    0.063470
    29  C    0.008317
    30  C    0.027467
    31  C   -0.074070
    32  N   -0.443855
    33  C    0.130175
    34  C   -0.214756
    35  C    0.007916
    36  C    0.121536
    37  C    0.094264
    38  C    0.108375
    39  O   -0.190850
    40  C   -0.041927
    41  C    0.275556
    42  O   -0.281922
    43  O   -0.372055
    44  C    0.141498
    45  H   -0.011131
    46  H    0.021696
    47  H   -0.003617
    48  H    0.026700
    49  H    0.025668
    50  H    0.045040
    51  H    0.043258
    52  H    0.033174
    53  H    0.030104
    54  H    0.030078
    55  H    0.065262
    56  H    0.054100
    57  H    0.051097
    58  H    0.023074
    59  H    0.045379
    60  H    0.070864
    61  H    0.046687
    62  H    0.048771
    63  H    0.037833
    64  H    0.037781
    65  H    0.044180
    66  H    0.029739
    67  H    0.037009
    68  H    0.035358
    69  H    0.037534
    70  H    0.038897
    71  H    0.028204
    72  H    0.026657
    73  H    0.030815
    74  H    0.066465
    75  H    0.049375
    76  H    0.057600
    77  H    0.060429
    78  H    0.064189
    79  H    0.067676
    80  Mg   0.958636
    81  C    0.008276
    82  C   -0.083419
    83  C   -0.083780
    84  C   -0.096625
    85  N   -0.330769
    86  C   -0.005379
    87  C   -0.018914
    88  C   -0.091822
    89  C    0.035633
    90  C    0.041629
    91  C   -0.010788
    92  C   -0.168730
    93  H    0.030049
    94  N   -0.448388
    95  C    0.171629
    96  C   -0.181746
    97  C   -0.096677
    98  C    0.137194
    99  C    0.086354
   100  C    0.013449
   101  O   -0.209889
   102  C   -0.015000
   103  N   -0.361568
   104  C    0.084093
   105  C   -0.139063
   106  C   -0.084208
   107  C    0.074652
   108  C    0.050079
   109  C   -0.015375
   110  C   -0.044748
   111  N   -0.442148
   112  C    0.139341
   113  C   -0.188061
   114  C    0.058700
   115  C    0.110007
   116  C    0.078528
   117  C    0.062401
   118  O   -0.216350
   119  C   -0.121407
   120  C    0.312967
   121  O   -0.256607
   122  O   -0.379230
   123  C    0.145001
   124  H    0.008355
   125  H    0.003731
   126  H   -0.014136
   127  H    0.042133
   128  H    0.049736
   129  H    0.035420
   130  H    0.041405
   131  H    0.026956
   132  H    0.059243
   133  H    0.045105
   134  H    0.064475
   135  H    0.055894
   136  H    0.031586
   137  H    0.063117
   138  H    0.053716
   139  H    0.032409
   140  H    0.070926
   141  H    0.057966
   142  H    0.056102
   143  H    0.040633
   144  H    0.038923
   145  H    0.039567
   146  H    0.032327
   147  H    0.030283
   148  H    0.027716
   149  H    0.056436
   150  H    0.025829
   151  H    0.030906
   152  H    0.060999
   153  H    0.060929
   154  H    0.031936
   155  H    0.065613
   156  H    0.053556
   157  H    0.053926
   158  H    0.058358
 Sum of Mulliken charges =  -0.00000

 Dipole moment (field-independent basis, Debye):
    X=             -5.2111    Y=              5.4890    Z=              3.2596  Tot=              8.2407
 Quadrupole moment (field-independent basis, Debye-Ang):
   XX=           -401.1407   YY=           -554.5951   ZZ=           -508.0896
   XY=             -2.9144   XZ=            -13.6182   YZ=            -31.3175

 Normal termination of Gaussian 16 at Sat Sep 18 16:43:05 2021.
