 Gaussian 16, Revision A.03,
 Gaussian 16:  ES64L-G16RevA.03 25-Dec-2016

 --------------------------------
 #p wB97XD/Def2SVP td=(nstates=5)
 --------------------------------

 --------------------------------
 TDDFT excited states in gaussian
 --------------------------------
 Symbolic Z-matrix:
 Charge =  0 Multiplicity = 1

                         Standard orientation:
 ---------------------------------------------------------------------
 Center     Atomic      Atomic             Coordinates (Angstroms)
 Number     Number       Type             X           Y           Z
 ---------------------------------------------------------------------
      1         12           0       -8.885348   -1.002833    0.512287
      2          6           0      -10.192868    2.022441   -0.575134
      3          6           0       -7.529007    0.528990    3.193327
      4          6           0       -7.528618   -3.942641    1.361811
      5          6           0      -10.195268   -2.470860   -2.384433
      6          7           0       -8.932878    1.077536    1.187035
      7          6           0       -9.573022    2.102090    0.676390
      8          6           0       -9.334960    3.349942    1.645752
      9          6           0       -7.990859    2.932549    2.203993
     10          6           0       -8.150172    1.379498    2.248479
     11          6           0       -6.850301    3.476349    1.316795
     12          6           0      -10.594108    3.575858    2.588495
     13          6           0      -10.689677    4.977012    3.200055
     14          1           0       -9.504389    5.917203    3.064711
     15          7           0       -7.859680   -1.651816    2.131045
     16          6           0       -7.453306   -0.850098    3.195114
     17          6           0       -6.932261   -1.753160    4.264763
     18          6           0       -6.862714   -3.099802    3.705979
     19          6           0       -7.363532   -2.877790    2.323474
     20          6           0       -6.510542   -1.251477    5.625533
     21          6           0       -6.429739   -4.493029    4.358451
     22          8           0       -6.497207   -5.576822    3.768768
     23          6           0       -5.931764   -4.442530    5.787815
     24          7           0       -8.767852   -2.852637   -0.407646
     25          6           0       -8.148517   -3.905858    0.118560
     26          6           0       -8.139007   -5.140445   -0.834863
     27          6           0       -9.187607   -4.692720   -1.863219
     28          6           0       -9.467431   -3.262459   -1.523608
     29          6           0       -6.748868   -5.483168   -1.439632
     30          6           0      -10.459486   -5.621937   -2.103451
     31          6           0      -11.753397   -5.188095   -1.496976
     32          7           0       -9.792976   -0.367714   -1.260265
     33          6           0      -10.320119   -1.059011   -2.298600
     34          6           0      -10.936670   -0.226570   -3.269087
     35          6           0      -10.921133    1.048827   -2.621614
     36          6           0      -10.232245    0.853780   -1.446321
     37          6           0      -11.511493   -0.463720   -4.641513
     38          6           0      -11.301974    2.428642   -2.680584
     39          8           0      -11.894615    3.071340   -3.520227
     40          6           0      -10.998128    3.105815   -1.306182
     41          6           0      -10.260057    4.353248   -1.525916
     42          8           0       -9.161058    4.378902   -2.058757
     43          8           0      -11.009061    5.522007   -1.234753
     44          6           0      -10.356227    6.802352   -1.549930
     45          1           0       -7.051579    1.072202    4.010156
     46          1           0       -7.037604   -4.874920    1.645863
     47          1           0      -10.545757   -2.953554   -3.298724
     48          1           0       -9.286480    4.266887    1.059964
     49          1           0       -7.824432    3.223973    3.240742
     50          1           0       -6.373896    4.201432    1.977499
     51          1           0       -7.211156    3.964277    0.410404
     52          1           0       -6.156865    2.646566    1.181819
     53          1           0      -10.573826    2.866785    3.416567
     54          1           0      -11.457142    3.469510    1.930840
     55          1           0      -10.915889    4.838709    4.256868
     56          1           0      -11.566085    5.451839    2.759658
     57          1           0       -7.121021   -0.406265    5.945434
     58          1           0       -5.466288   -0.965965    5.748273
     59          1           0       -6.717603   -2.032184    6.357312
     60          1           0       -5.159762   -3.673945    5.758978
     61          1           0       -5.446406   -5.355208    6.132356
     62          1           0       -6.763615   -4.236596    6.461600
     63          1           0       -8.465671   -6.043232   -0.318985
     64          1           0       -8.638512   -4.564095   -2.795269
     65          1           0       -6.945928   -5.709972   -2.487687
     66          1           0       -6.193599   -6.295398   -0.973093
     67          1           0       -6.104626   -4.614673   -1.302369
     68          1           0      -10.194631   -6.643152   -1.829214
     69          1           0      -10.701435   -5.618783   -3.166010
     70          1           0      -12.418871   -4.912010   -2.315256
     71          1           0      -11.737559   -4.242301   -0.953980
     72          1           0      -12.269088   -5.961765   -0.928012
     73          1           0      -11.353564   -1.485766   -4.987671
     74          1           0      -11.138488    0.305324   -5.318553
     75          1           0      -12.597833   -0.429017   -4.726521
     76          1           0      -11.911210    3.338166   -0.758740
     77          1           0      -10.864076    7.686033   -1.164323
     78          1           0      -10.347476    6.810667   -2.640203
     79          1           0       -9.329498    6.694273   -1.202273
     80         12           0        9.321070   -0.336767   -0.158782
     81          6           0        7.379874    2.602233   -0.075536
     82          6           0       11.968998    1.432318    1.019992
     83          6           0       11.170176   -3.160973   -0.370003
     84          6           0        6.700521   -1.944339   -1.773395
     85          7           0        9.667526    1.757901    0.306683
     86          6           0        8.699653    2.763499    0.378519
     87          6           0        9.296644    3.983704    1.012770
     88          6           0       10.815253    3.719947    0.878485
     89          6           0       10.824218    2.177287    0.723213
     90          6           0       11.556790    4.373112   -0.330352
     91          6           0        8.851071    4.276128    2.494967
     92          6           0        8.450526    5.693847    2.752729
     93          1           0        9.001595    6.341837    4.036637
     94          7           0       11.218842   -0.791665    0.359177
     95          6           0       12.172467    0.065461    0.933180
     96          6           0       13.353975   -0.647258    1.216066
     97          6           0       13.158419   -2.052484    0.816786
     98          6           0       11.833078   -2.054564    0.266320
     99          6           0       14.643999   -0.051422    1.698912
    100          6           0       14.121098   -3.318205    0.826228
    101          8           0       13.726667   -4.400339    0.461389
    102          6           0       15.531714   -3.225703    1.390298
    103          7           0        9.012300   -2.248304   -1.062193
    104          6           0        9.953858   -3.226019   -1.017020
    105          6           0        9.430625   -4.532889   -1.784274
    106          6           0        7.877735   -4.238177   -1.968096
    107          6           0        7.838189   -2.698501   -1.581530
    108          6           0       10.121181   -4.860306   -3.137067
    109          6           0        6.942734   -5.113874   -1.060033
    110          6           0        5.907841   -5.794031   -1.853806
    111          7           0        7.445242    0.202809   -0.846323
    112          6           0        6.440115   -0.594697   -1.391377
    113          6           0        5.251526    0.188227   -1.593720
    114          6           0        5.584472    1.441464   -1.121580
    115          6           0        6.864346    1.414426   -0.664676
    116          6           0        3.934077   -0.421170   -2.140089
    117          6           0        5.103520    2.798825   -0.940521
    118          8           0        4.060953    3.278610   -1.327995
    119          6           0        6.293679    3.636620   -0.254898
    120          6           0        6.659296    4.758633   -1.138795
    121          8           0        7.045769    4.631250   -2.330228
    122          8           0        6.465978    5.923900   -0.456447
    123          6           0        6.421909    7.136714   -1.315608
    124          1           0       12.785578    2.073158    1.358965
    125          1           0       11.699990   -4.107968   -0.490908
    126          1           0        5.914483   -2.442239   -2.344085
    127          1           0        9.148879    4.899458    0.439075
    128          1           0       11.390809    4.038261    1.747857
    129          1           0       11.159927    5.347375   -0.618661
    130          1           0       11.496735    3.665278   -1.157477
    131          1           0       12.636838    4.473079   -0.225692
    132          1           0        9.694767    3.961193    3.108751
    133          1           0        8.045912    3.611816    2.810184
    134          1           0        7.364157    5.603788    2.759150
    135          1           0        8.838533    6.332748    1.959516
    136          1           0       14.896745   -0.252098    2.740274
    137          1           0       14.565980    1.034746    1.673824
    138          1           0       15.558453   -0.286449    1.154928
    139          1           0       15.906791   -4.248263    1.407289
    140          1           0       15.551836   -2.684587    2.336737
    141          1           0       16.113712   -2.510027    0.808882
    142          1           0        9.653747   -5.422510   -1.195074
    143          1           0        7.627521   -4.370198   -3.021796
    144          1           0       10.852741   -4.136175   -3.497116
    145          1           0        9.415906   -4.974684   -3.960613
    146          1           0       10.624969   -5.818220   -3.005132
    147          1           0        6.416795   -4.455144   -0.367969
    148          1           0        7.453783   -5.903987   -0.510280
    149          1           0        6.222079   -6.824483   -2.021783
    150          1           0        5.577587   -5.346455   -2.790533
    151          1           0        4.964629   -5.774715   -1.307729
    152          1           0        3.982681   -1.506474   -2.048314
    153          1           0        3.694718   -0.034067   -3.131580
    154          1           0        3.175855   -0.086675   -1.433033
    155          1           0        6.004987    4.016101    0.725610
    156          1           0        6.131404    8.006566   -0.726718
    157          1           0        5.582348    6.970273   -1.990892
    158          1           0        7.385663    7.197192   -1.821973
 ---------------------------------------------------------------------

 SCF Done:  E(RwB97XD) =  -4070.63832376     A.U. after   19 cycles

 Excitation energies and oscillator strengths:

 Excited State   1:      Singlet-A      1.6874 eV  734.77 nm  f=0.6905  <S**2>=0.000
     309 -> 315       -0.14425
     310 -> 316        0.11138
     311 -> 313        0.53801
     312 -> 314        0.42128
 This state for optimization and/or second-order correction.
 Total Energy, E(TD-HF/TD-DFT) =  -4070.57631378
 Copying the excited state density for this state as the 1-particle RhoCI density.

 Excited State   2:      Singlet-A      1.6920 eV  732.77 nm  f=0.1023  <S**2>=0.000
     309 -> 315        0.11330
     310 -> 316        0.14348
     311 -> 313       -0.42001
     312 -> 314        0.53915

 Excited State   3:      Singlet-A      2.1431 eV  578.53 nm  f=0.1238  <S**2>=0.000
     309 -> 313        0.64897
     311 -> 315        0.25148

 Excited State   4:      Singlet-A      2.1644 eV  572.84 nm  f=0.1672  <S**2>=0.000
     310 -> 314        0.64966
     312 -> 316       -0.25925

 Excited State   5:      Singlet-A      3.5053 eV  353.71 nm  f=0.0000  <S**2>=0.000
     312 -> 313        0.70679

 The electronic state is 1-A.
 Alpha  occ. eigenvalues --  -46.94005 -46.93561 -19.30880 -19.29016 -19.25486
 Alpha  occ. eigenvalues --  -19.24951 -19.24479 -19.24268 -19.24077 -19.22799
 Alpha  occ. eigenvalues --  -14.46691 -14.46494 -14.46109 -14.45922 -14.44639
 Alpha  occ. eigenvalues --  -14.43984 -14.43167 -14.43080 -10.43285 -10.42588
 Alpha  occ. eigenvalues --  -10.41205 -10.40375 -10.39047 -10.37963 -10.35910
 Alpha  occ. eigenvalues --  -10.35291 -10.35147 -10.35091 -10.35025 -10.34749
 Alpha  occ. eigenvalues --  -10.34703 -10.34667 -10.34659 -10.34541 -10.34472
 Alpha  occ. eigenvalues --  -10.34436 -10.34335 -10.34022 -10.33691 -10.33165
 Alpha  occ. eigenvalues --  -10.33131 -10.33096 -10.32658 -10.32640 -10.32509
 Alpha  occ. eigenvalues --  -10.32199 -10.32168 -10.32156 -10.32052 -10.31930
 Alpha  occ. eigenvalues --  -10.31917 -10.31895 -10.31865 -10.31854 -10.31839
 Alpha  occ. eigenvalues --  -10.31710 -10.31684 -10.31528 -10.31492 -10.31491
 Alpha  occ. eigenvalues --  -10.31454 -10.31230 -10.31215 -10.31178 -10.31043
 Alpha  occ. eigenvalues --  -10.31004 -10.30871 -10.30685 -10.30647 -10.30459
 Alpha  occ. eigenvalues --  -10.30366 -10.30148 -10.29970 -10.29966 -10.29869
 Alpha  occ. eigenvalues --  -10.29745 -10.29622 -10.29529 -10.29507 -10.29479
 Alpha  occ. eigenvalues --  -10.29357 -10.29191 -10.28447 -10.28353 -10.28214
 Alpha  occ. eigenvalues --  -10.28057  -3.20171  -3.19696  -1.93781  -1.93297
 Alpha  occ. eigenvalues --   -1.93266  -1.93196  -1.92813  -1.92696  -1.17939
 Alpha  occ. eigenvalues --   -1.16501  -1.13974  -1.12680  -1.12554  -1.11660
 Alpha  occ. eigenvalues --   -1.08806  -1.08520  -1.07468  -1.06970  -1.06625
 Alpha  occ. eigenvalues --   -1.06067  -1.05365  -1.05125  -1.04586  -1.03524
 Alpha  occ. eigenvalues --   -0.94559  -0.93973  -0.91100  -0.90992  -0.90568
 Alpha  occ. eigenvalues --   -0.90322  -0.90106  -0.89952  -0.89167  -0.88978
 Alpha  occ. eigenvalues --   -0.88937  -0.88398  -0.88059  -0.87778  -0.86237
 Alpha  occ. eigenvalues --   -0.86095  -0.85714  -0.85419  -0.84829  -0.84593
 Alpha  occ. eigenvalues --   -0.84423  -0.84070  -0.83157  -0.82778  -0.82648
 Alpha  occ. eigenvalues --   -0.81923  -0.80486  -0.80246  -0.79257  -0.79046
 Alpha  occ. eigenvalues --   -0.78701  -0.78453  -0.77662  -0.77630  -0.76888
 Alpha  occ. eigenvalues --   -0.76841  -0.74877  -0.74695  -0.73043  -0.72930
 Alpha  occ. eigenvalues --   -0.71035  -0.70621  -0.70620  -0.70039  -0.69779
 Alpha  occ. eigenvalues --   -0.69548  -0.68563  -0.68547  -0.67479  -0.67115
 Alpha  occ. eigenvalues --   -0.66911  -0.66602  -0.66478  -0.66070  -0.66065
 Alpha  occ. eigenvalues --   -0.65847  -0.63945  -0.63128  -0.62590  -0.62357
 Alpha  occ. eigenvalues --   -0.62114  -0.61430  -0.61270  -0.61009  -0.60164
 Alpha  occ. eigenvalues --   -0.59892  -0.59843  -0.59704  -0.59606  -0.59457
 Alpha  occ. eigenvalues --   -0.58202  -0.57736  -0.57658  -0.57542  -0.57431
 Alpha  occ. eigenvalues --   -0.57250  -0.56898  -0.56573  -0.55771  -0.55731
 Alpha  occ. eigenvalues --   -0.55554  -0.55449  -0.55412  -0.55243  -0.54833
 Alpha  occ. eigenvalues --   -0.54585  -0.54529  -0.54483  -0.54149  -0.53967
 Alpha  occ. eigenvalues --   -0.53843  -0.53762  -0.53612  -0.53533  -0.53018
 Alpha  occ. eigenvalues --   -0.52984  -0.52818  -0.52627  -0.52588  -0.52462
 Alpha  occ. eigenvalues --   -0.52115  -0.52076  -0.51761  -0.51681  -0.51367
 Alpha  occ. eigenvalues --   -0.51361  -0.51318  -0.51129  -0.50988  -0.50883
 Alpha  occ. eigenvalues --   -0.50680  -0.50656  -0.50371  -0.50314  -0.49907
 Alpha  occ. eigenvalues --   -0.49642  -0.49595  -0.49190  -0.49183  -0.48774
 Alpha  occ. eigenvalues --   -0.48681  -0.48583  -0.48401  -0.48241  -0.48083
 Alpha  occ. eigenvalues --   -0.48061  -0.47820  -0.47794  -0.47702  -0.47600
 Alpha  occ. eigenvalues --   -0.47338  -0.47337  -0.47003  -0.46726  -0.46707
 Alpha  occ. eigenvalues --   -0.46599  -0.46471  -0.46418  -0.46304  -0.46151
 Alpha  occ. eigenvalues --   -0.45833  -0.45781  -0.45370  -0.45337  -0.45271
 Alpha  occ. eigenvalues --   -0.45169  -0.45042  -0.44877  -0.44818  -0.44802
 Alpha  occ. eigenvalues --   -0.44590  -0.44321  -0.44321  -0.43905  -0.43891
 Alpha  occ. eigenvalues --   -0.43805  -0.43609  -0.43201  -0.43156  -0.42901
 Alpha  occ. eigenvalues --   -0.42835  -0.42755  -0.42362  -0.42325  -0.41987
 Alpha  occ. eigenvalues --   -0.41976  -0.41779  -0.41066  -0.40982  -0.40759
 Alpha  occ. eigenvalues --   -0.40292  -0.40084  -0.39927  -0.39865  -0.39778
 Alpha  occ. eigenvalues --   -0.39350  -0.38781  -0.38526  -0.38423  -0.38017
 Alpha  occ. eigenvalues --   -0.37942  -0.37490  -0.36326  -0.36254  -0.36112
 Alpha  occ. eigenvalues --   -0.35761  -0.35393  -0.35322  -0.34114  -0.33763
 Alpha  occ. eigenvalues --   -0.33502  -0.33282  -0.32843  -0.32607  -0.32178
 Alpha  occ. eigenvalues --   -0.32042  -0.31768  -0.31580  -0.25903  -0.25711
 Alpha  occ. eigenvalues --   -0.23359  -0.23103
 Alpha virt. eigenvalues --   -0.07389  -0.07064   0.00620   0.00776   0.02102
 Alpha virt. eigenvalues --    0.02764   0.04687   0.04854   0.06444   0.06680
 Alpha virt. eigenvalues --    0.06711   0.07104   0.08003   0.08164   0.08636

 Mulliken charges:
               1
     1  Mg   0.986124
     2  C   -0.033802
     3  C   -0.089167
     4  C   -0.081703
     5  C   -0.113179
     6  N   -0.312423
     7  C   -0.022049
     8  C   -0.084726
     9  C   -0.106269
    10  C    0.035654
    11  C    0.056989
    12  C    0.017348
    13  C   -0.109415
    14  H    0.037707
    15  N   -0.477123
    16  C    0.190196
    17  C   -0.158441
    18  C   -0.109063
    19  C    0.127386
    20  C    0.049184
    21  C    0.101582
    22  O   -0.227907
    23  C   -0.029396
    24  N   -0.378951
    25  C    0.081253
    26  C   -0.097530
    27  C   -0.032462
    28  C    0.052933
    29  C    0.021170
    30  C   -0.006330
    31  C   -0.048327
    32  N   -0.374873
    33  C    0.116213
    34  C   -0.174702
    35  C   -0.023335
    36  C    0.102431
    37  C    0.084913
    38  C    0.096641
    39  O   -0.204651
    40  C   -0.019932
    41  C    0.245663
    42  O   -0.251250
    43  O   -0.402901
    44  C    0.147204
    45  H    0.004797
    46  H    0.017640
    47  H   -0.007346
    48  H    0.021370
    49  H    0.004110
    50  H    0.035777
    51  H    0.071106
    52  H    0.037726
    53  H    0.035219
    54  H    0.041163
    55  H    0.045335
    56  H    0.052947
    57  H    0.040657
    58  H    0.066005
    59  H    0.030701
    60  H    0.059313
    61  H    0.055904
    62  H    0.081191
    63  H    0.036920
    64  H    0.030793
    65  H    0.038323
    66  H    0.045031
    67  H    0.041553
    68  H    0.033659
    69  H    0.027980
    70  H    0.017990
    71  H    0.047848
    72  H    0.040623
    73  H    0.015280
    74  H    0.066175
    75  H    0.045873
    76  H    0.068112
    77  H    0.063667
    78  H    0.057379
    79  H    0.048498
    80  Mg   0.978504
    81  C   -0.033032
    82  C   -0.099753
    83  C   -0.063503
    84  C   -0.089480
    85  N   -0.322079
    86  C    0.015215
    87  C   -0.082507
    88  C   -0.128321
    89  C    0.030533
    90  C    0.020647
    91  C    0.045040
    92  C   -0.121152
    93  H    0.030540
    94  N   -0.522935
    95  C    0.241829
    96  C   -0.149390
    97  C   -0.081240
    98  C    0.154307
    99  C    0.041950
   100  C    0.076126
   101  O   -0.213772
   102  C   -0.007550
   103  N   -0.359319
   104  C    0.071727
   105  C   -0.108340
   106  C   -0.079708
   107  C    0.063466
   108  C    0.008292
   109  C    0.027482
   110  C   -0.074124
   111  N   -0.444050
   112  C    0.130117
   113  C   -0.214786
   114  C    0.007966
   115  C    0.121650
   116  C    0.094476
   117  C    0.108175
   118  O   -0.190401
   119  C   -0.041902
   120  C    0.275709
   121  O   -0.281675
   122  O   -0.372241
   123  C    0.141423
   124  H   -0.011200
   125  H    0.021674
   126  H   -0.003342
   127  H    0.026774
   128  H    0.025554
   129  H    0.045099
   130  H    0.043370
   131  H    0.033164
   132  H    0.030023
   133  H    0.029782
   134  H    0.065102
   135  H    0.054312
   136  H    0.050978
   137  H    0.023052
   138  H    0.045373
   139  H    0.070837
   140  H    0.046536
   141  H    0.048695
   142  H    0.037782
   143  H    0.037961
   144  H    0.044220
   145  H    0.029871
   146  H    0.037006
   147  H    0.035150
   148  H    0.037451
   149  H    0.038942
   150  H    0.028430
   151  H    0.026646
   152  H    0.030774
   153  H    0.067082
   154  H    0.049264
   155  H    0.057198
   156  H    0.060296
   157  H    0.064518
   158  H    0.067713
 Sum of Mulliken charges =  -0.00000

 Dipole moment (field-independent basis, Debye):
    X=              5.0331    Y=             -0.5640    Z=              8.0365  Tot=              9.4992
 Quadrupole moment (field-independent basis, Debye-Ang):
   XX=           -465.8970   YY=           -484.8556   ZZ=           -497.6706
   XY=             44.6313   XZ=            -20.3583   YZ=             38.3311

 Normal termination of Gaussian 16 at Mon Sep 20 18:53:15 2021.
