 Gaussian 16, Revision A.03,
 Gaussian 16:  ES64L-G16RevA.03 25-Dec-2016

 --------------------------------
 #p wB97XD/Def2SVP td=(nstates=5)
 --------------------------------

 --------------------------------
 TDDFT excited states in gaussian
 --------------------------------
 Symbolic Z-matrix:
 Charge =  0 Multiplicity = 1

                         Standard orientation:
 ---------------------------------------------------------------------
 Center     Atomic      Atomic             Coordinates (Angstroms)
 Number     Number       Type             X           Y           Z
 ---------------------------------------------------------------------
      1         12           0       19.895711    0.364312    0.251349
      2          6           0       17.466742   -1.576699   -1.186757
      3          6           0       20.508929    1.811542   -2.703115
      4          6           0       22.414718    2.021271    1.758746
      5          6           0       19.537965   -1.605633    3.286247
      6          7           0       19.223320   -0.082317   -1.812700
      7          6           0       18.159059   -0.818307   -2.155085
      8          6           0       17.837795   -0.657950   -3.728860
      9          6           0       18.875434    0.465673   -4.102705
     10          6           0       19.647774    0.755132   -2.799825
     11          6           0       19.743063    0.124328   -5.329756
     12          6           0       16.362759   -0.269871   -4.032135
     13          6           0       16.014600    0.261919   -5.460736
     14          1           0       15.294627   -0.726744   -6.454453
     15          7           0       21.316687    1.707043   -0.406574
     16          6           0       21.348578    2.253800   -1.604076
     17          6           0       22.418053    3.239897   -1.636011
     18          6           0       23.091130    3.268111   -0.377662
     19          6           0       22.271482    2.308877    0.394872
     20          6           0       22.877883    4.003316   -2.867026
     21          6           0       24.338747    4.023702    0.067997
     22          8           0       24.940791    3.705328    1.089374
     23          6           0       24.822437    5.159775   -0.763577
     24          7           0       20.869167    0.186683    2.237596
     25          6           0       21.837970    1.015228    2.608745
     26          6           0       22.183669    0.869164    4.099939
     27          6           0       21.110061   -0.119811    4.546484
     28          6           0       20.497824   -0.557435    3.268445
     29          6           0       23.618311    0.465957    4.471810
     30          6           0       20.233130    0.385408    5.664114
     31          6           0       20.308325   -0.407594    7.017451
     32          7           0       18.750987   -1.180583    0.945935
     33          6           0       18.636952   -1.837617    2.216875
     34          6           0       17.535152   -2.774659    2.223638
     35          6           0       17.071025   -2.651333    0.884468
     36          6           0       17.832256   -1.708232    0.182567
     37          6           0       16.900320   -3.546027    3.326491
     38          6           0       15.942234   -3.063335    0.088854
     39          8           0       14.887080   -3.667913    0.331732
     40          6           0       16.163831   -2.532286   -1.305327
     41          6           0       16.537920   -3.716418   -2.223899
     42          8           0       17.308182   -4.655850   -1.972520
     43          8           0       15.867693   -3.551595   -3.399558
     44          6           0       16.038993   -4.602598   -4.452172
     45          1           0       20.721148    2.441917   -3.569180
     46          1           0       23.324118    2.355807    2.262271
     47          1           0       19.397764   -2.058088    4.269587
     48          1           0       18.123806   -1.621328   -4.149437
     49          1           0       18.310902    1.374169   -4.312443
     50          1           0       19.799215    1.027013   -5.937147
     51          1           0       19.284071   -0.643032   -5.953218
     52          1           0       20.739054   -0.197237   -5.025050
     53          1           0       16.171069    0.609560   -3.417374
     54          1           0       15.708736   -1.122778   -3.851095
     55          1           0       16.962836    0.448394   -5.965943
     56          1           0       15.363636    1.129694   -5.360112
     57          1           0       22.277391    3.748599   -3.740284
     58          1           0       23.918301    3.759321   -3.080353
     59          1           0       22.823489    5.081243   -2.720038
     60          1           0       23.941176    5.776959   -0.940631
     61          1           0       25.291044    5.025558   -1.738036
     62          1           0       25.582721    5.756945   -0.261286
     63          1           0       22.005110    1.833725    4.573936
     64          1           0       21.624854   -0.984983    4.963918
     65          1           0       23.839031    1.066529    5.353902
     66          1           0       24.290760    0.616016    3.627308
     67          1           0       23.755031   -0.601331    4.645605
     68          1           0       19.223162    0.210638    5.294640
     69          1           0       20.408116    1.430231    5.919054
     70          1           0       20.995010   -1.248725    6.918591
     71          1           0       19.312070   -0.805496    7.212888
     72          1           0       20.530580    0.192351    7.900046
     73          1           0       17.299485   -3.223671    4.287824
     74          1           0       17.260523   -4.566665    3.202707
     75          1           0       15.832102   -3.350446    3.222345
     76          1           0       15.204144   -2.092577   -1.577572
     77          1           0       17.068310   -4.911167   -4.636535
     78          1           0       15.573616   -4.362631   -5.407604
     79          1           0       15.559459   -5.494049   -4.048227
     80         12           0      -19.747576   -0.587592   -0.347861
     81          6           0      -19.704148    2.949916    0.250776
     82          6           0      -16.325734   -0.519151    0.674975
     83          6           0      -19.755358   -3.907246    0.170497
     84          6           0      -23.157268   -0.436717   -0.565906
     85          7           0      -18.267029    1.028870    0.396122
     86          6           0      -18.459907    2.372910    0.529677
     87          6           0      -17.161133    3.103783    1.019109
     88          6           0      -16.052896    1.981403    0.731244
     89          6           0      -16.935554    0.744760    0.674404
     90          6           0      -15.300246    2.154259   -0.568101
     91          6           0      -17.277857    3.667606    2.425561
     92          6           0      -16.733399    5.098814    2.670979
     93          1           0      -15.303624    5.328934    3.349689
     94          7           0      -18.189077   -2.090796    0.249974
     95          6           0      -16.832814   -1.822064    0.529048
     96          6           0      -16.140140   -3.094711    0.765007
     97          6           0      -17.154578   -4.112437    0.567771
     98          6           0      -18.414625   -3.418786    0.408849
     99          6           0      -14.724643   -3.282871    1.162984
    100          6           0      -16.896129   -5.597905    0.535145
    101          8           0      -15.746643   -5.977050    0.522535
    102          6           0      -17.978088   -6.652624    0.503762
    103          7           0      -21.241970   -1.873186   -0.110522
    104          6           0      -20.963638   -3.236441   -0.067446
    105          6           0      -22.303596   -3.975785   -0.054104
    106          6           0      -23.344910   -2.885728   -0.501743
    107          6           0      -22.515647   -1.648027   -0.431796
    108          6           0      -22.406290   -5.343965   -0.823087
    109          6           0      -24.700242   -2.805344    0.265640
    110          6           0      -25.961982   -2.893029   -0.529528
    111          7           0      -21.162110    0.895310   -0.320655
    112          6           0      -22.532905    0.830676   -0.499935
    113          6           0      -23.101591    2.180730   -0.677721
    114          6           0      -21.987500    3.032907   -0.314759
    115          6           0      -20.888925    2.193041   -0.107852
    116          6           0      -24.499602    2.608426   -1.039371
    117          6           0      -21.595031    4.464088   -0.154449
    118          8           0      -22.255143    5.462860   -0.198715
    119          6           0      -20.147621    4.413827    0.323943
    120          6           0      -19.330017    5.264126   -0.601931
    121          8           0      -19.206037    4.918124   -1.757157
    122          8           0      -18.671208    6.382228   -0.007911
    123          6           0      -17.692724    7.114176   -0.868206
    124          1           0      -15.264349   -0.535491    0.931818
    125          1           0      -19.927995   -4.978461    0.287061
    126          1           0      -24.215800   -0.429569   -0.832965
    127          1           0      -16.864530    3.901449    0.338644
    128          1           0      -15.387548    1.850726    1.584587
    129          1           0      -15.919209    1.767038   -1.377121
    130          1           0      -14.346365    1.639119   -0.455626
    131          1           0      -15.054245    3.162227   -0.903762
    132          1           0      -16.683059    3.011937    3.060749
    133          1           0      -18.299646    3.501136    2.766538
    134          1           0      -17.501051    5.545774    3.303130
    135          1           0      -16.685394    5.704155    1.765712
    136          1           0      -14.180656   -3.512503    0.247269
    137          1           0      -14.640374   -4.188323    1.764024
    138          1           0      -14.194936   -2.496403    1.701887
    139          1           0      -17.629895   -7.681039    0.597793
    140          1           0      -18.453923   -6.549997   -0.471584
    141          1           0      -18.815780   -6.579236    1.196304
    142          1           0      -22.369842   -4.280854    0.990638
    143          1           0      -23.491681   -2.981638   -1.577135
    144          1           0      -21.610578   -5.429393   -1.563604
    145          1           0      -23.397315   -5.461836   -1.260976
    146          1           0      -22.331568   -6.174934   -0.121995
    147          1           0      -24.722861   -1.878672    0.839016
    148          1           0      -24.668875   -3.565362    1.046226
    149          1           0      -26.423968   -1.906990   -0.573755
    150          1           0      -26.660938   -3.565160   -0.031916
    151          1           0      -25.885598   -3.234414   -1.561639
    152          1           0      -24.507059    3.620374   -1.443829
    153          1           0      -25.088061    2.540625   -0.123944
    154          1           0      -24.917027    1.851264   -1.703369
    155          1           0      -20.142663    4.700447    1.375681
    156          1           0      -18.236348    7.775444   -1.543179
    157          1           0      -17.140434    6.422563   -1.504052
    158          1           0      -16.978747    7.667013   -0.258010
 ---------------------------------------------------------------------

 SCF Done:  E(RwB97XD) =  -4070.61023296     A.U. after   19 cycles

 Excitation energies and oscillator strengths:

 Excited State   1:      Singlet-A      1.6114 eV  769.44 nm  f=0.4005  <S**2>=0.000
     309 -> 316        0.17518
     312 -> 313        0.68611
     309 <- 316        0.11589
 This state for optimization and/or second-order correction.
 Total Energy, E(TD-HF/TD-DFT) =  -4070.55101645
 Copying the excited state density for this state as the 1-particle RhoCI density.

 Excited State   2:      Singlet-A      1.6636 eV  745.27 nm  f=0.4007  <S**2>=0.000
     310 -> 315        0.18167
     311 -> 314        0.68152
     310 <- 315        0.11250

 Excited State   3:      Singlet-A      2.1827 eV  568.03 nm  f=0.1248  <S**2>=0.000
     309 -> 313        0.63922
     312 -> 316       -0.28436

 Excited State   4:      Singlet-A      2.2222 eV  557.94 nm  f=0.1094  <S**2>=0.000
     310 -> 314        0.63694
     311 -> 315       -0.28922

 Excited State   5:      Singlet-A      3.1508 eV  393.50 nm  f=0.0019  <S**2>=0.000
     306 -> 313       -0.12095
     308 -> 313        0.66877
     312 -> 316        0.10239

 The electronic state is 1-A.
 Alpha  occ. eigenvalues --  -46.95649 -46.95531 -19.30829 -19.30503 -19.25669
 Alpha  occ. eigenvalues --  -19.24781 -19.24575 -19.24387 -19.22953 -19.22735
 Alpha  occ. eigenvalues --  -14.47389 -14.46660 -14.46265 -14.46253 -14.44682
 Alpha  occ. eigenvalues --  -14.43933 -14.43874 -14.43731 -10.44105 -10.43404
 Alpha  occ. eigenvalues --  -10.40076 -10.39431 -10.38431 -10.37347 -10.36030
 Alpha  occ. eigenvalues --  -10.35915 -10.35719 -10.35409 -10.35320 -10.34997
 Alpha  occ. eigenvalues --  -10.34691 -10.34483 -10.34468 -10.34431 -10.34345
 Alpha  occ. eigenvalues --  -10.34290 -10.34271 -10.34023 -10.33976 -10.33493
 Alpha  occ. eigenvalues --  -10.33338 -10.33217 -10.33103 -10.32891 -10.32839
 Alpha  occ. eigenvalues --  -10.32786 -10.32774 -10.32731 -10.32684 -10.32429
 Alpha  occ. eigenvalues --  -10.32181 -10.32151 -10.32122 -10.32079 -10.32051
 Alpha  occ. eigenvalues --  -10.31816 -10.31801 -10.31661 -10.31616 -10.31573
 Alpha  occ. eigenvalues --  -10.31282 -10.31047 -10.31029 -10.30969 -10.30842
 Alpha  occ. eigenvalues --  -10.30719 -10.30710 -10.30605 -10.30588 -10.30480
 Alpha  occ. eigenvalues --  -10.30405 -10.30379 -10.30351 -10.30278 -10.30240
 Alpha  occ. eigenvalues --  -10.30184 -10.30112 -10.30035 -10.29892 -10.29724
 Alpha  occ. eigenvalues --  -10.29613 -10.29537 -10.29528 -10.29505 -10.29259
 Alpha  occ. eigenvalues --  -10.28427  -3.21683  -3.21498  -1.95215  -1.95079
 Alpha  occ. eigenvalues --   -1.94805  -1.94653  -1.94613  -1.94482  -1.17717
 Alpha  occ. eigenvalues --   -1.17520  -1.13983  -1.12613  -1.12382  -1.10181
 Alpha  occ. eigenvalues --   -1.10091  -1.08716  -1.07729  -1.06566  -1.06405
 Alpha  occ. eigenvalues --   -1.05902  -1.05579  -1.04980  -1.04789  -1.03523
 Alpha  occ. eigenvalues --   -0.94743  -0.93234  -0.91774  -0.91252  -0.90749
 Alpha  occ. eigenvalues --   -0.90582  -0.90334  -0.90097  -0.89519  -0.89496
 Alpha  occ. eigenvalues --   -0.89079  -0.88945  -0.88160  -0.87573  -0.86388
 Alpha  occ. eigenvalues --   -0.86103  -0.85840  -0.85217  -0.84394  -0.84283
 Alpha  occ. eigenvalues --   -0.84056  -0.83723  -0.83028  -0.82483  -0.82162
 Alpha  occ. eigenvalues --   -0.81999  -0.80491  -0.80073  -0.79470  -0.79422
 Alpha  occ. eigenvalues --   -0.78732  -0.78662  -0.78245  -0.78008  -0.77281
 Alpha  occ. eigenvalues --   -0.77152  -0.74632  -0.74626  -0.73739  -0.73658
 Alpha  occ. eigenvalues --   -0.71431  -0.71359  -0.71058  -0.70884  -0.69905
 Alpha  occ. eigenvalues --   -0.69693  -0.69573  -0.68671  -0.67843  -0.67769
 Alpha  occ. eigenvalues --   -0.67050  -0.66888  -0.66540  -0.66409  -0.66307
 Alpha  occ. eigenvalues --   -0.65899  -0.64614  -0.64334  -0.62728  -0.61790
 Alpha  occ. eigenvalues --   -0.61616  -0.61492  -0.61178  -0.61032  -0.60864
 Alpha  occ. eigenvalues --   -0.60613  -0.60315  -0.59976  -0.59618  -0.59362
 Alpha  occ. eigenvalues --   -0.58481  -0.58306  -0.57638  -0.57589  -0.57409
 Alpha  occ. eigenvalues --   -0.57075  -0.56460  -0.56221  -0.56055  -0.55820
 Alpha  occ. eigenvalues --   -0.55678  -0.55341  -0.55299  -0.55044  -0.54830
 Alpha  occ. eigenvalues --   -0.54735  -0.54477  -0.54155  -0.54110  -0.53755
 Alpha  occ. eigenvalues --   -0.53656  -0.53619  -0.53225  -0.53119  -0.53042
 Alpha  occ. eigenvalues --   -0.53012  -0.52825  -0.52642  -0.52447  -0.52327
 Alpha  occ. eigenvalues --   -0.51856  -0.51854  -0.51796  -0.51729  -0.51662
 Alpha  occ. eigenvalues --   -0.51593  -0.51270  -0.51225  -0.51000  -0.50990
 Alpha  occ. eigenvalues --   -0.50877  -0.50629  -0.50514  -0.50475  -0.50121
 Alpha  occ. eigenvalues --   -0.50080  -0.49752  -0.49614  -0.49589  -0.49232
 Alpha  occ. eigenvalues --   -0.48995  -0.48920  -0.48728  -0.48355  -0.48327
 Alpha  occ. eigenvalues --   -0.48317  -0.48115  -0.48068  -0.47970  -0.47887
 Alpha  occ. eigenvalues --   -0.47873  -0.47736  -0.47186  -0.46905  -0.46889
 Alpha  occ. eigenvalues --   -0.46670  -0.46582  -0.46430  -0.46322  -0.46058
 Alpha  occ. eigenvalues --   -0.45928  -0.45768  -0.45704  -0.45553  -0.45528
 Alpha  occ. eigenvalues --   -0.45388  -0.45228  -0.44836  -0.44800  -0.44709
 Alpha  occ. eigenvalues --   -0.44538  -0.44472  -0.44381  -0.44171  -0.43970
 Alpha  occ. eigenvalues --   -0.43889  -0.43819  -0.43752  -0.43534  -0.43446
 Alpha  occ. eigenvalues --   -0.43095  -0.43005  -0.42717  -0.42715  -0.42456
 Alpha  occ. eigenvalues --   -0.42343  -0.42139  -0.41182  -0.41169  -0.40984
 Alpha  occ. eigenvalues --   -0.40403  -0.40177  -0.39778  -0.39638  -0.39338
 Alpha  occ. eigenvalues --   -0.39174  -0.39146  -0.38678  -0.38596  -0.38201
 Alpha  occ. eigenvalues --   -0.37881  -0.37751  -0.36985  -0.36376  -0.36265
 Alpha  occ. eigenvalues --   -0.35987  -0.35564  -0.35442  -0.33920  -0.33620
 Alpha  occ. eigenvalues --   -0.33327  -0.33305  -0.32786  -0.32379  -0.31948
 Alpha  occ. eigenvalues --   -0.31847  -0.31811  -0.30897  -0.26210  -0.25833
 Alpha  occ. eigenvalues --   -0.22915  -0.22904
 Alpha virt. eigenvalues --   -0.07326  -0.06898   0.00157   0.00450   0.02629
 Alpha virt. eigenvalues --    0.02735   0.04249   0.04617   0.04838   0.05074
 Alpha virt. eigenvalues --    0.06525   0.06932   0.07483   0.07835   0.07993

 Mulliken charges:
               1
     1  Mg   0.970538
     2  C   -0.075025
     3  C   -0.078760
     4  C   -0.049409
     5  C   -0.066245
     6  N   -0.355549
     7  C   -0.026064
     8  C   -0.008790
     9  C   -0.153472
    10  C    0.120018
    11  C    0.024349
    12  C   -0.009686
    13  C   -0.131324
    14  H    0.015043
    15  N   -0.438354
    16  C    0.116764
    17  C   -0.187065
    18  C   -0.059125
    19  C    0.130815
    20  C    0.069735
    21  C    0.087716
    22  O   -0.227304
    23  C   -0.033407
    24  N   -0.274297
    25  C   -0.007473
    26  C   -0.114747
    27  C   -0.055422
    28  C    0.009676
    29  C    0.036082
    30  C    0.000447
    31  C   -0.068110
    32  N   -0.456975
    33  C    0.123309
    34  C   -0.170460
    35  C   -0.077054
    36  C    0.206437
    37  C    0.109163
    38  C    0.102827
    39  O   -0.239378
    40  C   -0.055758
    41  C    0.293614
    42  O   -0.266012
    43  O   -0.365193
    44  C    0.138552
    45  H   -0.019888
    46  H    0.029550
    47  H    0.004093
    48  H    0.040439
    49  H    0.037088
    50  H    0.033998
    51  H    0.041476
    52  H    0.049652
    53  H    0.031926
    54  H    0.073453
    55  H    0.048313
    56  H    0.065635
    57  H    0.031719
    58  H    0.051454
    59  H    0.041179
    60  H    0.048786
    61  H    0.063217
    62  H    0.052460
    63  H    0.038855
    64  H    0.021339
    65  H    0.046520
    66  H    0.044288
    67  H    0.029780
    68  H    0.030503
    69  H    0.036912
    70  H    0.033095
    71  H    0.033438
    72  H    0.041967
    73  H    0.019321
    74  H    0.065431
    75  H    0.081093
    76  H    0.069632
    77  H    0.058564
    78  H    0.063587
    79  H    0.056497
    80  Mg   0.981402
    81  C   -0.076392
    82  C   -0.054052
    83  C   -0.080066
    84  C   -0.124189
    85  N   -0.312906
    86  C   -0.015951
    87  C   -0.066042
    88  C   -0.119819
    89  C    0.049121
    90  C    0.041522
    91  C    0.037385
    92  C   -0.107602
    93  H    0.023539
    94  N   -0.419575
    95  C    0.112373
    96  C   -0.143821
    97  C   -0.073588
    98  C    0.168662
    99  C    0.081103
   100  C    0.035472
   101  O   -0.234814
   102  C   -0.012123
   103  N   -0.451731
   104  C    0.092151
   105  C   -0.128604
   106  C   -0.033722
   107  C    0.088872
   108  C    0.013843
   109  C    0.001000
   110  C   -0.047254
   111  N   -0.442272
   112  C    0.135339
   113  C   -0.189503
   114  C   -0.106331
   115  C    0.178223
   116  C    0.090764
   117  C    0.132701
   118  O   -0.174136
   119  C   -0.015244
   120  C    0.278334
   121  O   -0.234447
   122  O   -0.404968
   123  C    0.133359
   124  H   -0.006071
   125  H   -0.037466
   126  H   -0.011921
   127  H    0.025591
   128  H    0.028759
   129  H    0.043268
   130  H    0.042672
   131  H    0.036691
   132  H    0.037381
   133  H    0.040598
   134  H    0.055463
   135  H    0.048091
   136  H    0.055591
   137  H    0.053930
   138  H    0.036908
   139  H    0.051291
   140  H    0.050096
   141  H    0.057954
   142  H    0.051515
   143  H    0.033572
   144  H    0.044839
   145  H    0.038323
   146  H    0.031062
   147  H    0.038628
   148  H    0.025385
   149  H    0.036233
   150  H    0.036898
   151  H    0.035841
   152  H    0.071546
   153  H    0.053844
   154  H    0.034415
   155  H    0.072709
   156  H    0.063757
   157  H    0.051512
   158  H    0.065084
 Sum of Mulliken charges =  -0.00000

 Dipole moment (field-independent basis, Debye):
    X=              0.3070    Y=              3.2975    Z=             -1.9732  Tot=              3.8550
 Quadrupole moment (field-independent basis, Debye-Ang):
   XX=           -415.3827   YY=           -527.9481   ZZ=           -470.7159
   XY=            154.2045   XZ=            -29.0204   YZ=             -2.0497

 Normal termination of Gaussian 16 at Sun Sep 19 06:25:04 2021.
