 Gaussian 16, Revision A.03,
 Gaussian 16:  ES64L-G16RevA.03 25-Dec-2016

 --------------------------------
 #p wB97XD/Def2SVP td=(nstates=5)
 --------------------------------

 --------------------------------
 TDDFT excited states in gaussian
 --------------------------------
 Symbolic Z-matrix:
 Charge =  0 Multiplicity = 1

                         Standard orientation:
 ---------------------------------------------------------------------
 Center     Atomic      Atomic             Coordinates (Angstroms)
 Number     Number       Type             X           Y           Z
 ---------------------------------------------------------------------
      1         12           0      -22.002977   -0.726123   -0.083199
      2          6           0      -23.724297    2.047655    1.280311
      3          6           0      -19.898675    1.465258   -1.720709
      4          6           0      -20.560006   -3.388618   -1.603257
      5          6           0      -24.295531   -2.905363    1.428261
      6          7           0      -21.978970    1.483416   -0.222388
      7          6           0      -22.622993    2.421712    0.580655
      8          6           0      -22.081256    3.884605    0.308846
      9          6           0      -21.072416    3.640320   -0.844879
     10          6           0      -20.992227    2.105171   -1.000731
     11          6           0      -21.353402    4.325890   -2.234186
     12          6           0      -21.582427    4.703669    1.569007
     13          6           0      -22.309621    5.989252    1.823626
     14          1           0      -21.432913    7.187070    2.365017
     15          7           0      -20.485863   -0.875888   -1.441481
     16          6           0      -19.677488    0.113531   -1.963331
     17          6           0      -18.724600   -0.478640   -2.889093
     18          6           0      -18.872910   -1.894548   -2.890845
     19          6           0      -20.008610   -2.126485   -1.924354
     20          6           0      -17.613940    0.313166   -3.608222
     21          6           0      -18.078080   -2.965761   -3.630607
     22          8           0      -18.247907   -4.158196   -3.480176
     23          6           0      -16.864664   -2.662795   -4.602111
     24          7           0      -22.447559   -2.864011   -0.156074
     25          6           0      -21.710297   -3.726846   -0.842983
     26          6           0      -22.206912   -5.205016   -0.657241
     27          6           0      -23.293833   -5.056713    0.479789
     28          6           0      -23.351235   -3.506530    0.631197
     29          6           0      -22.647548   -5.845910   -2.005034
     30          6           0      -22.926755   -5.835729    1.727315
     31          6           0      -24.100387   -6.573170    2.369575
     32          7           0      -23.770133   -0.574726    1.009300
     33          6           0      -24.543119   -1.530041    1.640980
     34          6           0      -25.634503   -0.848871    2.266596
     35          6           0      -25.361146    0.540189    2.207320
     36          6           0      -24.192003    0.690021    1.410433
     37          6           0      -26.788104   -1.487755    2.942180
     38          6           0      -25.793853    1.866018    2.682335
     39          8           0      -26.793393    2.251596    3.281624
     40          6           0      -24.610943    2.940400    2.060978
     41          6           0      -25.243524    3.940744    1.259076
     42          8           0      -25.223434    3.968179    0.047625
     43          8           0      -25.764432    4.941939    2.047260
     44          6           0      -26.481555    5.975609    1.259883
     45          1           0      -19.136334    2.114295   -2.157079
     46          1           0      -20.165831   -4.276226   -2.101445
     47          1           0      -24.909011   -3.655697    1.932642
     48          1           0      -22.905117    4.379861   -0.203907
     49          1           0      -20.073926    3.970986   -0.558755
     50          1           0      -20.389896    4.672189   -2.609431
     51          1           0      -22.053848    5.145932   -2.077966
     52          1           0      -21.786912    3.663051   -2.983323
     53          1           0      -20.514694    4.861136    1.415900
     54          1           0      -21.753758    4.071381    2.440356
     55          1           0      -23.089200    5.828592    2.569463
     56          1           0      -22.758147    6.220657    0.857924
     57          1           0      -16.683864   -0.048423   -3.171126
     58          1           0      -17.667409    1.357476   -3.299638
     59          1           0      -17.556539    0.178193   -4.689024
     60          1           0      -16.123195   -2.091177   -4.042880
     61          1           0      -17.185694   -2.310753   -5.582919
     62          1           0      -16.527372   -3.646866   -4.926215
     63          1           0      -21.448569   -5.869437   -0.243527
     64          1           0      -24.235913   -5.372786    0.031378
     65          1           0      -23.640148   -6.276677   -1.870523
     66          1           0      -21.925144   -6.559762   -2.401630
     67          1           0      -22.723486   -5.073602   -2.768704
     68          1           0      -22.458522   -5.205567    2.482749
     69          1           0      -22.138557   -6.575236    1.577696
     70          1           0      -25.049846   -6.276410    1.923854
     71          1           0      -24.111497   -6.271549    3.417330
     72          1           0      -23.952882   -7.653044    2.391119
     73          1           0      -26.824090   -2.577085    2.950595
     74          1           0      -27.671841   -0.941716    2.609908
     75          1           0      -26.551892   -1.349306    3.997505
     76          1           0      -24.090029    3.412651    2.894369
     77          1           0      -27.305005    5.517451    0.711603
     78          1           0      -25.725163    6.461732    0.643776
     79          1           0      -26.948563    6.736515    1.883988
     80         12           0       22.268581   -0.657068    0.487913
     81          6           0       21.396333    2.288726   -1.393647
     82          6           0       22.817794    1.259886    3.167362
     83          6           0       23.876799   -3.268132    1.839478
     84          6           0       22.097292   -2.419427   -2.540124
     85          7           0       22.172073    1.493044    0.803368
     86          6           0       21.616699    2.491962   -0.014319
     87          6           0       21.416077    3.838622    0.779920
     88          6           0       21.943451    3.472002    2.200143
     89          6           0       22.286156    1.963330    2.078262
     90          6           0       23.103225    4.272561    2.735894
     91          6           0       19.889711    4.382355    0.718315
     92          6           0       19.731762    5.836168    0.256116
     93          1           0       19.002828    6.763042    1.298670
     94          7           0       23.099167   -1.002502    2.325492
     95          6           0       23.249112   -0.105003    3.304879
     96          6           0       23.923821   -0.684037    4.467886
     97          6           0       24.313030   -1.993254    4.019101
     98          6           0       23.777982   -2.146595    2.662158
     99          6           0       24.132283    0.041822    5.727211
    100          6           0       25.224986   -2.956611    4.841962
    101          8           0       25.482853   -4.085839    4.460007
    102          6           0       25.822966   -2.577418    6.159159
    103          7           0       22.865329   -2.504067   -0.239369
    104          6           0       23.419972   -3.482873    0.578245
    105          6           0       23.600190   -4.827483   -0.200041
    106          6           0       22.701904   -4.613850   -1.475099
    107          6           0       22.483286   -3.102552   -1.407664
    108          6           0       25.056554   -5.344458   -0.437009
    109          6           0       21.353274   -5.383662   -1.439568
    110          6           0       20.845899   -6.014628   -2.711642
    111          7           0       21.889967   -0.188935   -1.569361
    112          6           0       21.859240   -1.009559   -2.660964
    113          6           0       21.346253   -0.209062   -3.857156
    114          6           0       21.107129    1.061912   -3.393285
    115          6           0       21.518476    1.045991   -2.016402
    116          6           0       21.079339   -0.836582   -5.206385
    117          6           0       20.675476    2.410713   -3.714080
    118          8           0       20.284358    2.769860   -4.844364
    119          6           0       20.941492    3.346049   -2.389578
    120          6           0       22.018841    4.396639   -2.560237
    121          8           0       23.161518    4.082814   -2.948385
    122          8           0       21.527844    5.694890   -2.415740
    123          6           0       22.427872    6.692852   -2.981938
    124          1           0       22.913040    1.804162    4.109025
    125          1           0       24.354781   -4.087785    2.379374
    126          1           0       21.950260   -3.059911   -3.412793
    127          1           0       22.059564    4.528689    0.234535
    128          1           0       21.146723    3.785029    2.876332
    129          1           0       23.481035    5.009009    2.026538
    130          1           0       23.863207    3.492040    2.748838
    131          1           0       22.871532    4.802596    3.660226
    132          1           0       19.543140    4.234762    1.740778
    133          1           0       19.292235    3.691735    0.123789
    134          1           0       19.236605    5.801082   -0.714289
    135          1           0       20.720055    6.272389    0.105366
    136          1           0       25.136594    0.154652    6.134340
    137          1           0       23.736896   -0.626898    6.490944
    138          1           0       23.522392    0.935584    5.860645
    139          1           0       24.969743   -2.382245    6.809895
    140          1           0       26.332316   -1.625690    6.005337
    141          1           0       26.467904   -3.409441    6.439031
    142          1           0       23.112571   -5.560957    0.442143
    143          1           0       23.239443   -4.787857   -2.406935
    144          1           0       25.677417   -4.664169    0.145505
    145          1           0       25.341111   -5.417703   -1.486269
    146          1           0       25.243827   -6.291351    0.070884
    147          1           0       20.721738   -4.551015   -1.130389
    148          1           0       21.279372   -6.142119   -0.659953
    149          1           0       20.467763   -6.994500   -2.419922
    150          1           0       21.631043   -6.182907   -3.449458
    151          1           0       19.957755   -5.447226   -2.990865
    152          1           0       21.358999   -1.887292   -5.131771
    153          1           0       21.767318   -0.394344   -5.926602
    154          1           0       20.047893   -0.644541   -5.501230
    155          1           0       19.989729    3.778211   -2.080560
    156          1           0       22.065647    7.190776   -3.880293
    157          1           0       23.428475    6.318688   -3.198962
    158          1           0       22.554371    7.454733   -2.213189
 ---------------------------------------------------------------------

 SCF Done:  E(RwB97XD) =  -4070.59707862     A.U. after   19 cycles

 Excitation energies and oscillator strengths:

 Excited State   1:      Singlet-A      1.6411 eV  755.47 nm  f=0.4136  <S**2>=0.000
     309 -> 316       -0.17864
     312 -> 314        0.68586
     309 <- 316       -0.11673
 This state for optimization and/or second-order correction.
 Total Energy, E(TD-HF/TD-DFT) =  -4070.53676761
 Copying the excited state density for this state as the 1-particle RhoCI density.

 Excited State   2:      Singlet-A      1.7609 eV  704.10 nm  f=0.3730  <S**2>=0.000
     310 -> 315       -0.17859
     311 -> 313        0.68335
     310 <- 315       -0.10772

 Excited State   3:      Singlet-A      2.2096 eV  561.12 nm  f=0.1113  <S**2>=0.000
     310 -> 313        0.63740
     311 -> 315        0.28426

 Excited State   4:      Singlet-A      2.2310 eV  555.73 nm  f=0.0899  <S**2>=0.000
     309 -> 314        0.62832
     312 -> 316        0.31485

 Excited State   5:      Singlet-A      3.4492 eV  359.46 nm  f=0.0260  <S**2>=0.000
     303 -> 313       -0.29714
     308 -> 313        0.60882

 The electronic state is 1-A.
 Alpha  occ. eigenvalues --  -46.94774 -46.94588 -19.31970 -19.29495 -19.25854
 Alpha  occ. eigenvalues --  -19.25100 -19.24974 -19.24368 -19.24089 -19.23557
 Alpha  occ. eigenvalues --  -14.47216 -14.46911 -14.46348 -14.46284 -14.45027
 Alpha  occ. eigenvalues --  -14.44340 -14.43963 -14.43288 -10.44754 -10.42080
 Alpha  occ. eigenvalues --  -10.40644 -10.40466 -10.39978 -10.38887 -10.36679
 Alpha  occ. eigenvalues --  -10.36182 -10.35701 -10.35517 -10.35371 -10.35296
 Alpha  occ. eigenvalues --  -10.34992 -10.34970 -10.34769 -10.34472 -10.34390
 Alpha  occ. eigenvalues --  -10.34158 -10.34147 -10.34073 -10.33799 -10.33757
 Alpha  occ. eigenvalues --  -10.33512 -10.33217 -10.33092 -10.33090 -10.33050
 Alpha  occ. eigenvalues --  -10.32678 -10.32677 -10.32599 -10.32397 -10.32370
 Alpha  occ. eigenvalues --  -10.32211 -10.32100 -10.32025 -10.31919 -10.31867
 Alpha  occ. eigenvalues --  -10.31771 -10.31676 -10.31650 -10.31533 -10.31448
 Alpha  occ. eigenvalues --  -10.31406 -10.31323 -10.31299 -10.31179 -10.31042
 Alpha  occ. eigenvalues --  -10.31026 -10.30895 -10.30704 -10.30666 -10.30604
 Alpha  occ. eigenvalues --  -10.30581 -10.30313 -10.30140 -10.30083 -10.30024
 Alpha  occ. eigenvalues --  -10.29888 -10.29871 -10.29853 -10.29695 -10.29393
 Alpha  occ. eigenvalues --  -10.29371 -10.29271 -10.29235 -10.29093 -10.28927
 Alpha  occ. eigenvalues --  -10.28854  -3.20849  -3.20555  -1.94421  -1.94153
 Alpha  occ. eigenvalues --   -1.93958  -1.93850  -1.93670  -1.93532  -1.18564
 Alpha  occ. eigenvalues --   -1.17965  -1.13806  -1.12315  -1.11445  -1.11377
 Alpha  occ. eigenvalues --   -1.10205  -1.09566  -1.06093  -1.05958  -1.05363
 Alpha  occ. eigenvalues --   -1.04668  -1.04553  -1.03974  -1.03944  -1.02952
 Alpha  occ. eigenvalues --   -0.94670  -0.93765  -0.91027  -0.90996  -0.90638
 Alpha  occ. eigenvalues --   -0.90305  -0.90022  -0.89953  -0.89319  -0.89271
 Alpha  occ. eigenvalues --   -0.89168  -0.88833  -0.88110  -0.87483  -0.86289
 Alpha  occ. eigenvalues --   -0.86227  -0.85589  -0.85511  -0.84651  -0.84425
 Alpha  occ. eigenvalues --   -0.83864  -0.83197  -0.83008  -0.82671  -0.82227
 Alpha  occ. eigenvalues --   -0.82065  -0.80462  -0.80414  -0.79569  -0.78909
 Alpha  occ. eigenvalues --   -0.78839  -0.78365  -0.78176  -0.77666  -0.76689
 Alpha  occ. eigenvalues --   -0.76683  -0.74491  -0.74223  -0.73299  -0.72982
 Alpha  occ. eigenvalues --   -0.71105  -0.71045  -0.70750  -0.70367  -0.69871
 Alpha  occ. eigenvalues --   -0.69439  -0.69157  -0.68711  -0.67539  -0.67296
 Alpha  occ. eigenvalues --   -0.66974  -0.66933  -0.66753  -0.66614  -0.66394
 Alpha  occ. eigenvalues --   -0.66358  -0.64628  -0.63134  -0.62285  -0.62100
 Alpha  occ. eigenvalues --   -0.61784  -0.61165  -0.60922  -0.60780  -0.60535
 Alpha  occ. eigenvalues --   -0.60376  -0.59952  -0.59759  -0.59351  -0.59017
 Alpha  occ. eigenvalues --   -0.58283  -0.57956  -0.57674  -0.57441  -0.57087
 Alpha  occ. eigenvalues --   -0.56887  -0.56725  -0.56140  -0.55738  -0.55626
 Alpha  occ. eigenvalues --   -0.55478  -0.55245  -0.55177  -0.55148  -0.54960
 Alpha  occ. eigenvalues --   -0.54572  -0.54507  -0.54389  -0.54058  -0.53793
 Alpha  occ. eigenvalues --   -0.53622  -0.53579  -0.53480  -0.53325  -0.53215
 Alpha  occ. eigenvalues --   -0.53097  -0.53051  -0.52808  -0.52786  -0.52512
 Alpha  occ. eigenvalues --   -0.52215  -0.52055  -0.51594  -0.51530  -0.51462
 Alpha  occ. eigenvalues --   -0.51373  -0.51364  -0.51100  -0.50759  -0.50642
 Alpha  occ. eigenvalues --   -0.50602  -0.50572  -0.50293  -0.50111  -0.49971
 Alpha  occ. eigenvalues --   -0.49922  -0.49900  -0.49685  -0.49483  -0.49216
 Alpha  occ. eigenvalues --   -0.48959  -0.48717  -0.48701  -0.48460  -0.48341
 Alpha  occ. eigenvalues --   -0.48132  -0.47989  -0.47925  -0.47923  -0.47632
 Alpha  occ. eigenvalues --   -0.47474  -0.47354  -0.47107  -0.46760  -0.46667
 Alpha  occ. eigenvalues --   -0.46536  -0.46422  -0.46353  -0.46107  -0.45980
 Alpha  occ. eigenvalues --   -0.45970  -0.45884  -0.45750  -0.45587  -0.45486
 Alpha  occ. eigenvalues --   -0.45200  -0.45184  -0.45165  -0.44990  -0.44987
 Alpha  occ. eigenvalues --   -0.44850  -0.44631  -0.44308  -0.44200  -0.43900
 Alpha  occ. eigenvalues --   -0.43755  -0.43666  -0.43413  -0.43142  -0.43066
 Alpha  occ. eigenvalues --   -0.42718  -0.42489  -0.42472  -0.42211  -0.42125
 Alpha  occ. eigenvalues --   -0.41945  -0.41573  -0.41459  -0.41319  -0.41060
 Alpha  occ. eigenvalues --   -0.40609  -0.40238  -0.39778  -0.39660  -0.39520
 Alpha  occ. eigenvalues --   -0.39464  -0.39214  -0.38904  -0.38534  -0.38233
 Alpha  occ. eigenvalues --   -0.38068  -0.37847  -0.37118  -0.36467  -0.36173
 Alpha  occ. eigenvalues --   -0.35790  -0.35340  -0.35193  -0.33924  -0.33740
 Alpha  occ. eigenvalues --   -0.33543  -0.33503  -0.32890  -0.32640  -0.32606
 Alpha  occ. eigenvalues --   -0.32189  -0.31969  -0.30760  -0.26129  -0.26027
 Alpha  occ. eigenvalues --   -0.23162  -0.22610
 Alpha virt. eigenvalues --   -0.06846  -0.06798   0.00143   0.00562   0.01943
 Alpha virt. eigenvalues --    0.02085   0.04204   0.04255   0.04851   0.05082
 Alpha virt. eigenvalues --    0.06008   0.06914   0.06967   0.07903   0.07981

 Mulliken charges:
               1
     1  Mg   0.955560
     2  C    0.013541
     3  C   -0.100395
     4  C   -0.065515
     5  C   -0.066927
     6  N   -0.380910
     7  C   -0.011710
     8  C   -0.052078
     9  C   -0.156899
    10  C    0.113168
    11  C    0.022943
    12  C    0.049845
    13  C   -0.135485
    14  H    0.029617
    15  N   -0.509999
    16  C    0.184352
    17  C   -0.167937
    18  C   -0.051401
    19  C    0.184727
    20  C    0.065637
    21  C    0.037335
    22  O   -0.218193
    23  C   -0.018891
    24  N   -0.317880
    25  C    0.037593
    26  C   -0.121235
    27  C   -0.060538
    28  C    0.021286
    29  C    0.018092
    30  C    0.000719
    31  C   -0.057014
    32  N   -0.464104
    33  C    0.166512
    34  C   -0.208572
    35  C   -0.042183
    36  C    0.161398
    37  C    0.091185
    38  C    0.152328
    39  O   -0.199076
    40  C   -0.162646
    41  C    0.269553
    42  O   -0.250533
    43  O   -0.372334
    44  C    0.150430
    45  H   -0.008626
    46  H    0.020403
    47  H   -0.018300
    48  H    0.051715
    49  H    0.032773
    50  H    0.036888
    51  H    0.043468
    52  H    0.050803
    53  H    0.038821
    54  H    0.034425
    55  H    0.066036
    56  H    0.050640
    57  H    0.052581
    58  H    0.034078
    59  H    0.066476
    60  H    0.061552
    61  H    0.055625
    62  H    0.047358
    63  H    0.040333
    64  H    0.034401
    65  H    0.035218
    66  H    0.050595
    67  H    0.041488
    68  H    0.030936
    69  H    0.027947
    70  H    0.041070
    71  H    0.031080
    72  H    0.041229
    73  H    0.019064
    74  H    0.070180
    75  H    0.044823
    76  H    0.079871
    77  H    0.060100
    78  H    0.049487
    79  H    0.052095
    80  Mg   0.976208
    81  C   -0.099669
    82  C   -0.080733
    83  C   -0.088161
    84  C   -0.101387
    85  N   -0.370376
    86  C   -0.011534
    87  C   -0.072338
    88  C   -0.107049
    89  C    0.104605
    90  C    0.024224
    91  C    0.006512
    92  C   -0.108707
    93  H    0.027683
    94  N   -0.454544
    95  C    0.114077
    96  C   -0.149629
    97  C   -0.076275
    98  C    0.118049
    99  C    0.069619
   100  C    0.031600
   101  O   -0.238331
   102  C    0.011670
   103  N   -0.401207
   104  C    0.093468
   105  C   -0.058198
   106  C   -0.103734
   107  C    0.063874
   108  C    0.035203
   109  C   -0.016679
   110  C   -0.026183
   111  N   -0.388779
   112  C    0.149103
   113  C   -0.228844
   114  C    0.015692
   115  C    0.154301
   116  C    0.098521
   117  C    0.146819
   118  O   -0.221230
   119  C   -0.037252
   120  C    0.292730
   121  O   -0.256277
   122  O   -0.367192
   123  C    0.121099
   124  H   -0.014029
   125  H    0.016162
   126  H   -0.003786
   127  H    0.041655
   128  H    0.034165
   129  H    0.028911
   130  H    0.041598
   131  H    0.042992
   132  H    0.031975
   133  H    0.037975
   134  H    0.064303
   135  H    0.054497
   136  H    0.046770
   137  H    0.028244
   138  H    0.042598
   139  H    0.049454
   140  H    0.052104
   141  H    0.067771
   142  H    0.030980
   143  H    0.029198
   144  H    0.038593
   145  H    0.045350
   146  H    0.035520
   147  H    0.029324
   148  H    0.034954
   149  H    0.028928
   150  H    0.041866
   151  H    0.043780
   152  H    0.023028
   153  H    0.059031
   154  H    0.067050
   155  H    0.058128
   156  H    0.063444
   157  H    0.072092
   158  H    0.044629
 Sum of Mulliken charges =  -0.00000

 Dipole moment (field-independent basis, Debye):
    X=              3.2256    Y=              0.2835    Z=              1.4219  Tot=              3.5365
 Quadrupole moment (field-independent basis, Debye-Ang):
   XX=           -798.0806   YY=           -470.8262   ZZ=           -510.5175
   XY=             49.8705   XZ=            113.3822   YZ=             10.8437

 Normal termination of Gaussian 16 at Mon Sep 20 14:37:29 2021.
