 Gaussian 16, Revision A.03,
 Gaussian 16:  ES64L-G16RevA.03 25-Dec-2016

 --------------------------------
 #p wB97XD/Def2SVP td=(nstates=5)
 --------------------------------

 --------------------------------
 TDDFT excited states in gaussian
 --------------------------------
 Symbolic Z-matrix:
 Charge =  0 Multiplicity = 1

                         Standard orientation:
 ---------------------------------------------------------------------
 Center     Atomic      Atomic             Coordinates (Angstroms)
 Number     Number       Type             X           Y           Z
 ---------------------------------------------------------------------
      1         12           0      -11.215197   -0.073319   -0.033437
      2          6           0       -8.019401   -1.018848    1.238787
      3          6           0      -10.220158    3.066211    0.373055
      4          6           0      -13.696202    0.917170   -2.103472
      5          6           0      -11.468808   -3.439053   -1.176990
      6          7           0       -9.452814    0.869814    0.800919
      7          6           0       -8.279960    0.311958    1.354294
      8          6           0       -7.271046    1.387886    1.865981
      9          6           0       -8.069118    2.697054    1.606828
     10          6           0       -9.379759    2.196176    0.963942
     11          6           0       -8.188998    3.437494    2.949249
     12          6           0       -5.827962    1.421727    1.200244
     13          6           0       -4.649245    1.068623    2.099948
     14          1           0       -3.513056    2.104607    2.221108
     15          7           0      -11.934770    1.691818   -0.691239
     16          6           0      -11.349497    2.923489   -0.398490
     17          6           0      -12.148719    3.976593   -0.880013
     18          6           0      -13.263206    3.426242   -1.485683
     19          6           0      -13.032109    1.995889   -1.478441
     20          6           0      -11.915914    5.528077   -0.755181
     21          6           0      -14.392637    4.259431   -2.044678
     22          8           0      -14.483461    5.443697   -1.912698
     23          6           0      -15.586338    3.431669   -2.732846
     24          7           0      -12.375122   -1.084577   -1.499060
     25          6           0      -13.365931   -0.439592   -2.187794
     26          6           0      -13.943703   -1.472475   -3.239762
     27          6           0      -13.366583   -2.854758   -2.891842
     28          6           0      -12.312787   -2.452923   -1.790643
     29          6           0      -15.431902   -1.410477   -3.435742
     30          6           0      -12.637690   -3.420672   -4.104239
     31          6           0      -12.461226   -4.914545   -4.168932
     32          7           0      -10.126984   -1.948188    0.217275
     33          6           0      -10.374996   -3.205447   -0.279720
     34          6           0       -9.404546   -4.122031    0.197990
     35          6           0       -8.435526   -3.359383    0.891954
     36          6           0       -8.891927   -2.018166    0.753354
     37          6           0       -9.302650   -5.563394   -0.103412
     38          6           0       -7.165323   -3.308739    1.628452
     39          8           0       -6.444214   -4.248577    1.989322
     40          6           0       -6.836889   -1.793523    1.916380
     41          6           0       -6.954405   -1.545566    3.328603
     42          8           0       -8.076950   -1.463243    3.880950
     43          8           0       -5.705456   -1.490171    3.831491
     44          6           0       -5.524446   -1.050402    5.242114
     45          1           0       -9.941779    4.111118    0.527410
     46          1           0      -14.532984    1.269944   -2.710128
     47          1           0      -11.558069   -4.505064   -1.394826
     48          1           0       -7.119471    1.268297    2.938701
     49          1           0       -7.598878    3.356572    0.878068
     50          1           0       -8.884163    4.261670    2.791945
     51          1           0       -7.263335    3.849989    3.350393
     52          1           0       -8.589334    2.801702    3.739731
     53          1           0       -5.668419    2.477705    0.982065
     54          1           0       -5.825478    0.834378    0.281967
     55          1           0       -4.242940    0.121676    1.742900
     56          1           0       -5.007861    0.930546    3.120572
     57          1           0      -11.977535    5.915572   -1.772319
     58          1           0      -10.936405    5.761549   -0.338152
     59          1           0      -12.570669    6.053071   -0.059689
     60          1           0      -16.354327    4.167846   -2.968315
     61          1           0      -15.861134    2.713877   -1.959588
     62          1           0      -15.083058    2.986186   -3.590903
     63          1           0      -13.509338   -1.133691   -4.180983
     64          1           0      -14.071109   -3.608064   -2.539453
     65          1           0      -15.780718   -2.403384   -3.718267
     66          1           0      -15.597211   -0.679857   -4.227805
     67          1           0      -15.981261   -0.995775   -2.591369
     68          1           0      -11.652518   -2.978742   -4.256141
     69          1           0      -13.109808   -3.126930   -5.041725
     70          1           0      -13.053556   -5.444821   -3.423465
     71          1           0      -11.406657   -5.131517   -3.997693
     72          1           0      -12.603162   -5.276075   -5.187341
     73          1           0      -10.279472   -6.002398   -0.308839
     74          1           0       -8.861143   -6.015209    0.785196
     75          1           0       -8.692318   -5.627091   -1.004557
     76          1           0       -5.903034   -1.437737    1.481116
     77          1           0       -4.659373   -1.655039    5.518324
     78          1           0       -6.398959   -1.209157    5.872399
     79          1           0       -5.114114   -0.041496    5.296637
     80         12           0       10.864253    0.063602   -0.470718
     81          6           0        8.248013    0.908580    1.705532
     82          6           0       10.506022   -3.211099    0.530388
     83          6           0       13.349459   -0.701861   -2.502835
     84          6           0       11.186199    3.473976   -1.250712
     85          7           0        9.458133   -0.973476    0.891165
     86          6           0        8.460442   -0.456682    1.717936
     87          6           0        7.505485   -1.565249    2.311904
     88          6           0        8.361384   -2.784224    2.026874
     89          6           0        9.532960   -2.310220    1.071114
     90          6           0        9.041699   -3.323366    3.367678
     91          6           0        6.234682   -1.534224    1.351634
     92          6           0        4.804217   -1.663972    2.037954
     93          1           0        4.903111   -2.550257    3.253183
     94          7           0       11.858314   -1.643446   -0.792865
     95          6           0       11.598258   -2.856749   -0.313940
     96          6           0       12.482194   -3.862068   -0.841831
     97          6           0       13.205820   -3.211952   -1.861093
     98          6           0       12.860336   -1.747592   -1.717431
     99          6           0       12.525278   -5.290094   -0.437368
    100          6           0       14.078757   -3.778564   -2.961821
    101          8           0       14.445956   -3.113292   -3.937003
    102          6           0       14.634194   -5.200265   -2.839963
    103          7           0       12.130997    1.266295   -1.675308
    104          6           0       13.043132    0.620138   -2.475899
    105          6           0       13.666889    1.644936   -3.420933
    106          6           0       12.880472    3.010138   -3.109355
    107          6           0       11.962274    2.587601   -1.992792
    108          6           0       15.227177    1.646150   -3.250277
    109          6           0       12.180912    3.684177   -4.279268
    110          6           0       12.552805    5.190296   -4.450947
    111          7           0        9.934787    1.828831    0.120833
    112          6           0       10.190594    3.179032   -0.275593
    113          6           0        9.330678    4.069105    0.419244
    114          6           0        8.554164    3.199200    1.203157
    115          6           0        9.005758    1.876980    1.011217
    116          6           0        9.194084    5.555577    0.340610
    117          6           0        7.481696    3.124371    2.142932
    118          8           0        6.800168    3.965657    2.680056
    119          6           0        7.187388    1.620405    2.406076
    120          6           0        7.080214    1.399964    3.871298
    121          8           0        7.984081    1.427748    4.701771
    122          8           0        5.801945    1.102974    4.124711
    123          6           0        5.466163    0.762202    5.491270
    124          1           0       10.413506   -4.292203    0.652244
    125          1           0       14.172327   -1.019495   -3.148142
    126          1           0       11.209196    4.534783   -1.509064
    127          1           0        7.250324   -1.208744    3.309372
    128          1           0        7.770952   -3.549510    1.524173
    129          1           0        8.794564   -2.710758    4.234929
    130          1           0       10.122436   -3.320314    3.227223
    131          1           0        8.668047   -4.343205    3.460059
    132          1           0        6.239384   -2.327887    0.605108
    133          1           0        6.306255   -0.604059    0.787315
    134          1           0        4.131530   -2.251317    1.412850
    135          1           0        4.297069   -0.700286    2.091627
    136          1           0       12.162161   -5.864353   -1.290790
    137          1           0       11.858865   -5.486989    0.401255
    138          1           0       13.524477   -5.635150   -0.173254
    139          1           0       15.459479   -5.132545   -3.548405
    140          1           0       13.911518   -5.980760   -3.080927
    141          1           0       15.123279   -5.467527   -1.903423
    142          1           0       13.538538    1.445583   -4.484795
    143          1           0       13.589572    3.724478   -2.690829
    144          1           0       15.632395    1.642443   -4.262211
    145          1           0       15.607559    0.823360   -2.644863
    146          1           0       15.589019    2.624446   -2.931684
    147          1           0       11.094191    3.609545   -4.255147
    148          1           0       12.637523    3.223728   -5.156534
    149          1           0       13.350258    5.471397   -3.762894
    150          1           0       11.748945    5.844303   -4.113641
    151          1           0       12.871180    5.406293   -5.471000
    152          1           0        8.678588    5.669502   -0.613409
    153          1           0       10.201623    5.963828    0.416852
    154          1           0        8.533750    5.955363    1.108890
    155          1           0        6.176423    1.495994    2.015752
    156          1           0        5.801596    1.551361    6.164765
    157          1           0        5.939258   -0.128457    5.906175
    158          1           0        4.379590    0.679854    5.522969
 ---------------------------------------------------------------------

 SCF Done:  E(RwB97XD) =  -4070.63591149     A.U. after   19 cycles

 Excitation energies and oscillator strengths:

 Excited State   1:      Singlet-A      1.6726 eV  741.25 nm  f=0.2664  <S**2>=0.000
     309 -> 315        0.17312
     311 -> 313        0.67583
     312 -> 314       -0.11429
     309 <- 315        0.11056
 This state for optimization and/or second-order correction.
 Total Energy, E(TD-HF/TD-DFT) =  -4070.57444332
 Copying the excited state density for this state as the 1-particle RhoCI density.

 Excited State   2:      Singlet-A      1.6819 eV  737.16 nm  f=0.4962  <S**2>=0.000
     310 -> 316        0.16339
     311 -> 313        0.11402
     312 -> 314        0.67601
     310 <- 316        0.10372

 Excited State   3:      Singlet-A      2.2043 eV  562.45 nm  f=0.1189  <S**2>=0.000
     309 -> 313        0.63476
     311 -> 315       -0.29062

 Excited State   4:      Singlet-A      2.2344 eV  554.88 nm  f=0.1186  <S**2>=0.000
     310 -> 314        0.63458
     312 -> 316       -0.28387

 Excited State   5:      Singlet-A      3.2910 eV  376.73 nm  f=0.0023  <S**2>=0.000
     303 -> 313        0.12133
     308 -> 313        0.66425

 The electronic state is 1-A.
 Alpha  occ. eigenvalues --  -46.94872 -46.94102 -19.31711 -19.30456 -19.25000
 Alpha  occ. eigenvalues --  -19.24700 -19.24593 -19.23787 -19.23731 -19.22381
 Alpha  occ. eigenvalues --  -14.47181 -14.46834 -14.46783 -14.46214 -14.44844
 Alpha  occ. eigenvalues --  -14.44172 -14.43049 -14.43020 -10.43336 -10.42144
 Alpha  occ. eigenvalues --  -10.40261 -10.39481 -10.39419 -10.37098 -10.36586
 Alpha  occ. eigenvalues --  -10.35987 -10.35718 -10.35514 -10.35140 -10.35111
 Alpha  occ. eigenvalues --  -10.35110 -10.34738 -10.34734 -10.34602 -10.34518
 Alpha  occ. eigenvalues --  -10.34442 -10.34042 -10.33705 -10.33282 -10.32971
 Alpha  occ. eigenvalues --  -10.32913 -10.32853 -10.32639 -10.32477 -10.32418
 Alpha  occ. eigenvalues --  -10.32395 -10.32366 -10.32179 -10.32155 -10.31981
 Alpha  occ. eigenvalues --  -10.31972 -10.31813 -10.31799 -10.31655 -10.31619
 Alpha  occ. eigenvalues --  -10.31599 -10.31416 -10.31340 -10.31284 -10.31139
 Alpha  occ. eigenvalues --  -10.31115 -10.31089 -10.31062 -10.31035 -10.30992
 Alpha  occ. eigenvalues --  -10.30969 -10.30674 -10.30582 -10.30535 -10.30293
 Alpha  occ. eigenvalues --  -10.30274 -10.30232 -10.30159 -10.30132 -10.30055
 Alpha  occ. eigenvalues --  -10.29940 -10.29879 -10.29703 -10.29670 -10.29621
 Alpha  occ. eigenvalues --  -10.29581 -10.29288 -10.29235 -10.28993 -10.28861
 Alpha  occ. eigenvalues --  -10.27534  -3.20912  -3.20220  -1.94477  -1.94016
 Alpha  occ. eigenvalues --   -1.93904  -1.93827  -1.93330  -1.93225  -1.19274
 Alpha  occ. eigenvalues --   -1.18812  -1.14228  -1.12615  -1.11537  -1.10893
 Alpha  occ. eigenvalues --   -1.09561  -1.09253  -1.07071  -1.06152  -1.05888
 Alpha  occ. eigenvalues --   -1.05242  -1.04902  -1.04848  -1.04344  -1.03764
 Alpha  occ. eigenvalues --   -0.94586  -0.94165  -0.91602  -0.91524  -0.91190
 Alpha  occ. eigenvalues --   -0.90684  -0.90403  -0.90261  -0.89885  -0.89288
 Alpha  occ. eigenvalues --   -0.88930  -0.88633  -0.88572  -0.88429  -0.86715
 Alpha  occ. eigenvalues --   -0.86132  -0.85865  -0.85414  -0.85175  -0.84245
 Alpha  occ. eigenvalues --   -0.83836  -0.83756  -0.83198  -0.83106  -0.82299
 Alpha  occ. eigenvalues --   -0.82262  -0.80898  -0.79657  -0.79335  -0.79329
 Alpha  occ. eigenvalues --   -0.78659  -0.78605  -0.78160  -0.77492  -0.77095
 Alpha  occ. eigenvalues --   -0.76898  -0.75074  -0.74732  -0.73709  -0.73376
 Alpha  occ. eigenvalues --   -0.71234  -0.71154  -0.70781  -0.70528  -0.69708
 Alpha  occ. eigenvalues --   -0.69594  -0.69302  -0.69234  -0.67643  -0.67503
 Alpha  occ. eigenvalues --   -0.67349  -0.67157  -0.67003  -0.66987  -0.66566
 Alpha  occ. eigenvalues --   -0.66476  -0.64430  -0.64219  -0.62816  -0.62187
 Alpha  occ. eigenvalues --   -0.61613  -0.61528  -0.61381  -0.61136  -0.60586
 Alpha  occ. eigenvalues --   -0.60460  -0.60198  -0.59703  -0.59270  -0.59149
 Alpha  occ. eigenvalues --   -0.58652  -0.58381  -0.57993  -0.57573  -0.57292
 Alpha  occ. eigenvalues --   -0.56964  -0.56629  -0.56362  -0.56207  -0.55762
 Alpha  occ. eigenvalues --   -0.55744  -0.55481  -0.55134  -0.55100  -0.54824
 Alpha  occ. eigenvalues --   -0.54534  -0.54469  -0.54421  -0.54355  -0.54050
 Alpha  occ. eigenvalues --   -0.53654  -0.53627  -0.53383  -0.53211  -0.53151
 Alpha  occ. eigenvalues --   -0.53005  -0.52663  -0.52463  -0.52333  -0.52259
 Alpha  occ. eigenvalues --   -0.52210  -0.52078  -0.51942  -0.51930  -0.51757
 Alpha  occ. eigenvalues --   -0.51539  -0.51183  -0.51170  -0.50890  -0.50598
 Alpha  occ. eigenvalues --   -0.50474  -0.50428  -0.50387  -0.50169  -0.49957
 Alpha  occ. eigenvalues --   -0.49789  -0.49550  -0.49452  -0.49450  -0.49420
 Alpha  occ. eigenvalues --   -0.49090  -0.48890  -0.48640  -0.48450  -0.48360
 Alpha  occ. eigenvalues --   -0.48283  -0.48230  -0.48028  -0.47994  -0.47569
 Alpha  occ. eigenvalues --   -0.47246  -0.47196  -0.47054  -0.46926  -0.46872
 Alpha  occ. eigenvalues --   -0.46687  -0.46612  -0.46472  -0.46376  -0.46243
 Alpha  occ. eigenvalues --   -0.46220  -0.46064  -0.45740  -0.45646  -0.45591
 Alpha  occ. eigenvalues --   -0.45437  -0.45248  -0.44994  -0.44970  -0.44882
 Alpha  occ. eigenvalues --   -0.44717  -0.44533  -0.44509  -0.44269  -0.44229
 Alpha  occ. eigenvalues --   -0.43842  -0.43834  -0.43566  -0.43555  -0.43532
 Alpha  occ. eigenvalues --   -0.43010  -0.42689  -0.42498  -0.42292  -0.42113
 Alpha  occ. eigenvalues --   -0.42002  -0.41962  -0.41600  -0.41081  -0.40688
 Alpha  occ. eigenvalues --   -0.40371  -0.40182  -0.40129  -0.39583  -0.39570
 Alpha  occ. eigenvalues --   -0.39352  -0.39241  -0.38860  -0.38768  -0.38446
 Alpha  occ. eigenvalues --   -0.38319  -0.37922  -0.36238  -0.36212  -0.36145
 Alpha  occ. eigenvalues --   -0.35872  -0.35197  -0.34957  -0.34296  -0.34020
 Alpha  occ. eigenvalues --   -0.33562  -0.33105  -0.32983  -0.32741  -0.32667
 Alpha  occ. eigenvalues --   -0.31674  -0.31301  -0.31069  -0.26211  -0.26039
 Alpha  occ. eigenvalues --   -0.23067  -0.22865
 Alpha virt. eigenvalues --   -0.07093  -0.06912   0.00226   0.00246   0.02552
 Alpha virt. eigenvalues --    0.02650   0.04790   0.04971   0.05448   0.06473
 Alpha virt. eigenvalues --    0.06760   0.07256   0.08124   0.08126   0.08452

 Mulliken charges:
               1
     1  Mg   0.984379
     2  C   -0.043466
     3  C   -0.132075
     4  C   -0.102592
     5  C   -0.063606
     6  N   -0.377817
     7  C    0.011427
     8  C   -0.047323
     9  C   -0.123711
    10  C    0.121349
    11  C    0.014056
    12  C    0.012417
    13  C   -0.136255
    14  H    0.035418
    15  N   -0.504885
    16  C    0.212859
    17  C   -0.172241
    18  C   -0.054813
    19  C    0.150166
    20  C    0.106048
    21  C    0.008252
    22  O   -0.195140
    23  C   -0.027849
    24  N   -0.393288
    25  C    0.110672
    26  C   -0.081224
    27  C   -0.082605
    28  C    0.108068
    29  C    0.029347
    30  C   -0.045270
    31  C   -0.025347
    32  N   -0.385615
    33  C    0.093446
    34  C   -0.223172
    35  C    0.000394
    36  C    0.116363
    37  C    0.079568
    38  C    0.128854
    39  O   -0.222992
    40  C   -0.072539
    41  C    0.292548
    42  O   -0.279922
    43  O   -0.349570
    44  C    0.124692
    45  H   -0.016417
    46  H   -0.040286
    47  H   -0.013016
    48  H    0.028370
    49  H    0.045711
    50  H    0.027771
    51  H    0.043325
    52  H    0.042924
    53  H    0.041500
    54  H    0.048102
    55  H    0.068817
    56  H    0.032935
    57  H    0.061821
    58  H    0.011766
    59  H    0.062741
    60  H    0.058208
    61  H    0.066177
    62  H    0.068489
    63  H    0.046797
    64  H    0.038371
    65  H    0.041280
    66  H    0.031668
    67  H    0.038595
    68  H    0.030353
    69  H    0.021485
    70  H    0.036014
    71  H    0.029886
    72  H    0.032852
    73  H    0.030604
    74  H    0.066606
    75  H    0.060527
    76  H    0.055683
    77  H    0.061293
    78  H    0.085182
    79  H    0.056863
    80  Mg   0.983766
    81  C    0.006647
    82  C   -0.113379
    83  C   -0.076027
    84  C   -0.074397
    85  N   -0.350912
    86  C   -0.049294
    87  C   -0.050176
    88  C   -0.097906
    89  C    0.098295
    90  C    0.023253
    91  C    0.001631
    92  C   -0.115273
    93  H    0.032268
    94  N   -0.466471
    95  C    0.154055
    96  C   -0.174226
    97  C   -0.070265
    98  C    0.138079
    99  C    0.078049
   100  C    0.062944
   101  O   -0.243536
   102  C   -0.045825
   103  N   -0.390110
   104  C    0.116393
   105  C   -0.106935
   106  C   -0.048726
   107  C    0.073330
   108  C    0.009928
   109  C    0.001487
   110  C   -0.071372
   111  N   -0.414350
   112  C    0.082181
   113  C   -0.193498
   114  C   -0.038069
   115  C    0.139377
   116  C    0.088148
   117  C    0.083058
   118  O   -0.205904
   119  C   -0.073964
   120  C    0.226062
   121  O   -0.256838
   122  O   -0.333912
   123  C    0.142682
   124  H    0.000202
   125  H    0.028418
   126  H   -0.008204
   127  H    0.049592
   128  H    0.040446
   129  H    0.051885
   130  H    0.043477
   131  H    0.040515
   132  H    0.031331
   133  H    0.043134
   134  H    0.043667
   135  H    0.062170
   136  H    0.053308
   137  H    0.041171
   138  H    0.058449
   139  H    0.058613
   140  H    0.065660
   141  H    0.052985
   142  H    0.043247
   143  H    0.032319
   144  H    0.027650
   145  H    0.060891
   146  H    0.025899
   147  H    0.049314
   148  H    0.028157
   149  H    0.020846
   150  H    0.037320
   151  H    0.045736
   152  H    0.054112
   153  H    0.052850
   154  H    0.061243
   155  H    0.066981
   156  H    0.054389
   157  H    0.045438
   158  H    0.056518
 Sum of Mulliken charges =  -0.00000

 Dipole moment (field-independent basis, Debye):
    X=              0.0813    Y=             -3.6999    Z=             -3.4233  Tot=              5.0413
 Quadrupole moment (field-independent basis, Debye-Ang):
   XX=           -475.9505   YY=           -510.1255   ZZ=           -504.1730
   XY=            -18.9923   XZ=              0.7129   YZ=             -3.2369

 Normal termination of Gaussian 16 at Sun Sep 19 15:33:19 2021.
