 Gaussian 16, Revision A.03,
 Gaussian 16:  ES64L-G16RevA.03 25-Dec-2016

 --------------------------------
 #p wB97XD/Def2SVP td=(nstates=5)
 --------------------------------

 --------------------------------
 TDDFT excited states in gaussian
 --------------------------------
 Symbolic Z-matrix:
 Charge =  0 Multiplicity = 1

                         Standard orientation:
 ---------------------------------------------------------------------
 Center     Atomic      Atomic             Coordinates (Angstroms)
 Number     Number       Type             X           Y           Z
 ---------------------------------------------------------------------
      1         12           0       26.014664   -0.836110    0.143996
      2          6           0       26.781092    2.440326   -0.573752
      3          6           0       25.099582    0.189900    3.364013
      4          6           0       25.327092   -4.037969    0.962366
      5          6           0       27.266689   -1.809188   -2.856472
      6          7           0       26.211530    1.098446    1.336761
      7          6           0       26.333115    2.348317    0.716839
      8          6           0       25.896673    3.499656    1.644281
      9          6           0       25.474282    2.694078    2.927745
     10          6           0       25.537141    1.228217    2.555875
     11          6           0       26.329850    3.018820    4.145731
     12          6           0       24.776413    4.492709    1.172134
     13          6           0       25.219722    6.029960    0.892811
     14          1           0       24.445528    7.002107    1.788384
     15          7           0       25.424096   -1.801185    1.901493
     16          6           0       24.971857   -1.180340    3.077067
     17          6           0       24.318526   -2.141826    3.971318
     18          6           0       24.429295   -3.487493    3.322198
     19          6           0       25.023848   -3.169133    1.962935
     20          6           0       23.718671   -1.755532    5.305302
     21          6           0       24.038506   -4.813627    3.777990
     22          8           0       24.324561   -5.807936    3.094764
     23          6           0       23.343965   -5.062495    5.105390
     24          7           0       26.345394   -2.587862   -0.774735
     25          6           0       25.857255   -3.827009   -0.320391
     26          6           0       25.995192   -5.018960   -1.351544
     27          6           0       26.672781   -4.215423   -2.577809
     28          6           0       26.748476   -2.770504   -2.034734
     29          6           0       26.879498   -6.255875   -0.828773
     30          6           0       25.826557   -4.340478   -3.891251
     31          6           0       26.560371   -4.463881   -5.189809
     32          7           0       26.964504    0.140065   -1.383496
     33          6           0       27.383201   -0.396483   -2.604456
     34          6           0       27.781734    0.632896   -3.502545
     35          6           0       27.460625    1.821829   -2.748674
     36          6           0       27.051237    1.427505   -1.468567
     37          6           0       28.262365    0.578080   -4.891790
     38          6           0       27.571401    3.246869   -2.765509
     39          8           0       27.906948    4.088257   -3.606386
     40          6           0       27.261835    3.694182   -1.265156
     41          6           0       28.482740    4.319523   -0.691343
     42          8           0       29.280876    3.844499    0.016778
     43          8           0       28.525066    5.674284   -1.012384
     44          6           0       29.277433    6.499586   -0.090451
     45          1           0       24.732944    0.530022    4.334791
     46          1           0       25.084804   -5.096592    1.076114
     47          1           0       27.529154   -2.100111   -3.875714
     48          1           0       26.775057    4.092679    1.896683
     49          1           0       24.474995    2.969136    3.266330
     50          1           0       26.899255    2.130972    4.419391
     51          1           0       25.583249    3.235585    4.908780
     52          1           0       26.961806    3.902589    4.060664
     53          1           0       23.992495    4.494345    1.929891
     54          1           0       24.340662    4.175658    0.224560
     55          1           0       24.878581    6.181058   -0.131497
     56          1           0       26.293821    6.147894    1.034255
     57          1           0       24.555556   -1.566393    5.978713
     58          1           0       23.134812   -2.600286    5.667568
     59          1           0       23.174667   -0.811079    5.280108
     60          1           0       23.479211   -6.125046    5.308407
     61          1           0       22.289921   -4.782927    5.110489
     62          1           0       23.812048   -4.651554    5.999670
     63          1           0       25.007767   -5.324331   -1.696202
     64          1           0       27.654176   -4.581207   -2.880607
     65          1           0       27.478752   -6.624857   -1.661408
     66          1           0       26.339927   -7.158107   -0.543356
     67          1           0       27.527812   -5.993364    0.007453
     68          1           0       25.080256   -3.555570   -4.012857
     69          1           0       25.240211   -5.258579   -3.923227
     70          1           0       26.340935   -3.534996   -5.715989
     71          1           0       26.226966   -5.171658   -5.948757
     72          1           0       27.630624   -4.554033   -5.001129
     73          1           0       27.858923   -0.320885   -5.358646
     74          1           0       29.342495    0.471667   -4.792038
     75          1           0       28.082968    1.545857   -5.360496
     76          1           0       26.455702    4.427311   -1.253147
     77          1           0       30.316218    6.295253   -0.347576
     78          1           0       29.049308    6.111221    0.902009
     79          1           0       29.063915    7.559176   -0.233979
     80         12           0      -26.690842   -0.369443   -0.127577
     81          6           0      -24.960976    2.487917   -0.771127
     82          6           0      -27.928148    0.961288    2.793916
     83          6           0      -28.209552   -3.335306    0.470708
     84          6           0      -25.028615   -1.858689   -2.868181
     85          7           0      -26.285164    1.447424    1.007589
     86          6           0      -25.817144    2.558001    0.377809
     87          6           0      -26.112046    3.823719    1.108911
     88          6           0      -26.864039    3.215514    2.403368
     89          6           0      -27.052428    1.772016    2.069654
     90          6           0      -26.028191    3.407549    3.748920
     91          6           0      -27.085833    4.722543    0.212978
     92          6           0      -27.101380    6.227866    0.487516
     93          1           0      -26.494653    6.893560    1.747768
     94          7           0      -27.984972   -1.102031    1.343117
     95          6           0      -28.354512   -0.383836    2.492083
     96          6           0      -29.208672   -1.248016    3.273303
     97          6           0      -29.322839   -2.480792    2.599071
     98          6           0      -28.520683   -2.301917    1.396670
     99          6           0      -29.873344   -0.748673    4.577405
    100          6           0      -30.084186   -3.815729    3.103965
    101          8           0      -30.249499   -4.805117    2.379225
    102          6           0      -30.698982   -3.979013    4.484217
    103          7           0      -26.659233   -2.332744   -1.149553
    104          6           0      -27.358959   -3.376730   -0.644516
    105          6           0      -26.969625   -4.689595   -1.321965
    106          6           0      -26.173324   -4.150942   -2.645688
    107          6           0      -26.002148   -2.663138   -2.301082
    108          6           0      -26.221824   -5.760881   -0.403402
    109          6           0      -26.987656   -4.183811   -4.036856
    110          6           0      -26.347239   -4.789760   -5.272106
    111          7           0      -25.311899    0.145161   -1.609650
    112          6           0      -24.726934   -0.523144   -2.619106
    113          6           0      -23.868459    0.409838   -3.414203
    114          6           0      -24.007761    1.627461   -2.706774
    115          6           0      -24.793938    1.346952   -1.562574
    116          6           0      -23.086678    0.194659   -4.661629
    117          6           0      -23.565103    2.970214   -2.760755
    118          8           0      -22.821265    3.542172   -3.583886
    119          6           0      -24.159666    3.595930   -1.501594
    120          6           0      -23.082593    4.075722   -0.666194
    121          8           0      -22.132073    3.512290   -0.221024
    122          8           0      -23.404485    5.388896   -0.336331
    123          6           0      -22.543715    6.223742    0.586427
    124          1           0      -28.530351    1.383820    3.600442
    125          1           0      -28.624375   -4.313861    0.722694
    126          1           0      -24.341571   -2.294124   -3.595927
    127          1           0      -25.317041    4.495428    1.432148
    128          1           0      -27.836922    3.683754    2.552750
    129          1           0      -26.612017    3.604896    4.647679
    130          1           0      -25.237504    4.137397    3.575707
    131          1           0      -25.526677    2.457038    3.933782
    132          1           0      -28.118828    4.380403    0.278877
    133          1           0      -26.757304    4.557290   -0.813427
    134          1           0      -28.148742    6.524868    0.420224
    135          1           0      -26.639325    6.737472   -0.357149
    136          1           0      -29.681619    0.299655    4.805824
    137          1           0      -29.515419   -1.398046    5.375659
    138          1           0      -30.944418   -0.925419    4.476433
    139          1           0      -31.551179   -3.300418    4.482764
    140          1           0      -30.101934   -3.509020    5.265973
    141          1           0      -30.804833   -5.035074    4.731634
    142          1           0      -27.886684   -5.160680   -1.677785
    143          1           0      -25.242581   -4.699680   -2.790913
    144          1           0      -25.245008   -6.020220   -0.812344
    145          1           0      -26.836365   -6.653750   -0.294192
    146          1           0      -26.006521   -5.340492    0.579240
    147          1           0      -27.375951   -3.200675   -4.302484
    148          1           0      -27.899919   -4.744720   -3.835987
    149          1           0      -26.360462   -4.014453   -6.037360
    150          1           0      -26.846165   -5.698135   -5.608642
    151          1           0      -25.292955   -4.990990   -5.077035
    152          1           0      -23.202176   -0.791272   -5.111552
    153          1           0      -22.019297    0.320069   -4.477935
    154          1           0      -23.399429    0.939078   -5.393563
    155          1           0      -24.825351    4.428743   -1.730149
    156          1           0      -21.711577    5.631759    0.968096
    157          1           0      -23.128127    6.526747    1.456220
    158          1           0      -22.199890    7.061866   -0.019677
 ---------------------------------------------------------------------

 SCF Done:  E(RwB97XD) =  -4070.59455882     A.U. after   19 cycles

 Excitation energies and oscillator strengths:

 Excited State   1:      Singlet-A      1.6222 eV  764.31 nm  f=0.4068  <S**2>=0.000
     309 -> 315        0.16234
     311 -> 313        0.68613
     309 <- 315        0.10568
 This state for optimization and/or second-order correction.
 Total Energy, E(TD-HF/TD-DFT) =  -4070.53494540
 Copying the excited state density for this state as the 1-particle RhoCI density.

 Excited State   2:      Singlet-A      1.6817 eV  737.27 nm  f=0.3950  <S**2>=0.000
     310 -> 316       -0.19776
     312 -> 314        0.68065
     310 <- 316       -0.11935

 Excited State   3:      Singlet-A      2.1351 eV  580.71 nm  f=0.1224  <S**2>=0.000
     309 -> 313        0.64276
     311 -> 315       -0.25998

 Excited State   4:      Singlet-A      2.1739 eV  570.33 nm  f=0.0990  <S**2>=0.000
     310 -> 314        0.63669
     312 -> 316        0.29860

 Excited State   5:      Singlet-A      3.2509 eV  381.39 nm  f=0.0040  <S**2>=0.000
     306 -> 313        0.47425
     307 -> 313        0.38274
     308 -> 313       -0.30366
     311 -> 315        0.12181

 The electronic state is 1-A.
 Alpha  occ. eigenvalues --  -46.95750 -46.94308 -19.28954 -19.27375 -19.24547
 Alpha  occ. eigenvalues --  -19.24440 -19.24227 -19.23947 -19.23920 -19.22962
 Alpha  occ. eigenvalues --  -14.47186 -14.47068 -14.46612 -14.46298 -14.44951
 Alpha  occ. eigenvalues --  -14.44149 -14.43997 -14.43140 -10.42506 -10.41891
 Alpha  occ. eigenvalues --  -10.40237 -10.39347 -10.38551 -10.38185 -10.35926
 Alpha  occ. eigenvalues --  -10.35816 -10.35683 -10.35356 -10.35171 -10.35159
 Alpha  occ. eigenvalues --  -10.34747 -10.34739 -10.34690 -10.34683 -10.34334
 Alpha  occ. eigenvalues --  -10.34228 -10.34222 -10.34058 -10.33910 -10.33744
 Alpha  occ. eigenvalues --  -10.33518 -10.33322 -10.33246 -10.33080 -10.33008
 Alpha  occ. eigenvalues --  -10.32816 -10.32749 -10.32404 -10.32361 -10.32348
 Alpha  occ. eigenvalues --  -10.32311 -10.32307 -10.32307 -10.32042 -10.32034
 Alpha  occ. eigenvalues --  -10.31883 -10.31854 -10.31806 -10.31651 -10.31616
 Alpha  occ. eigenvalues --  -10.31614 -10.31448 -10.31426 -10.31422 -10.31373
 Alpha  occ. eigenvalues --  -10.31331 -10.31172 -10.30589 -10.30536 -10.30500
 Alpha  occ. eigenvalues --  -10.30489 -10.30366 -10.30364 -10.30137 -10.30104
 Alpha  occ. eigenvalues --  -10.30064 -10.30044 -10.29976 -10.29934 -10.29876
 Alpha  occ. eigenvalues --  -10.29802 -10.29743 -10.29182 -10.29139 -10.28854
 Alpha  occ. eigenvalues --  -10.28480  -3.21606  -3.20476  -1.95215  -1.94708
 Alpha  occ. eigenvalues --   -1.94586  -1.94039  -1.93613  -1.93472  -1.18878
 Alpha  occ. eigenvalues --   -1.17808  -1.11824  -1.11735  -1.10615  -1.10298
 Alpha  occ. eigenvalues --   -1.09899  -1.09438  -1.07640  -1.06622  -1.06491
 Alpha  occ. eigenvalues --   -1.05606  -1.05446  -1.04667  -1.04066  -1.02707
 Alpha  occ. eigenvalues --   -0.95533  -0.94536  -0.91109  -0.90560  -0.90496
 Alpha  occ. eigenvalues --   -0.90388  -0.90149  -0.89452  -0.89277  -0.89132
 Alpha  occ. eigenvalues --   -0.89009  -0.88811  -0.88659  -0.88178  -0.86294
 Alpha  occ. eigenvalues --   -0.86148  -0.85372  -0.85354  -0.84339  -0.84269
 Alpha  occ. eigenvalues --   -0.83838  -0.83538  -0.83147  -0.82792  -0.82287
 Alpha  occ. eigenvalues --   -0.82184  -0.80770  -0.80389  -0.79422  -0.79324
 Alpha  occ. eigenvalues --   -0.79079  -0.78599  -0.78145  -0.77210  -0.77152
 Alpha  occ. eigenvalues --   -0.77124  -0.75058  -0.74624  -0.73977  -0.73675
 Alpha  occ. eigenvalues --   -0.71349  -0.71297  -0.70597  -0.70583  -0.70178
 Alpha  occ. eigenvalues --   -0.69889  -0.69546  -0.67981  -0.67593  -0.67269
 Alpha  occ. eigenvalues --   -0.67242  -0.67183  -0.67004  -0.66532  -0.66266
 Alpha  occ. eigenvalues --   -0.65895  -0.63857  -0.62836  -0.62483  -0.62218
 Alpha  occ. eigenvalues --   -0.61908  -0.61342  -0.61194  -0.61000  -0.60820
 Alpha  occ. eigenvalues --   -0.60456  -0.60429  -0.60248  -0.59757  -0.59651
 Alpha  occ. eigenvalues --   -0.58511  -0.58036  -0.57530  -0.57493  -0.57255
 Alpha  occ. eigenvalues --   -0.57246  -0.56162  -0.55850  -0.55722  -0.55570
 Alpha  occ. eigenvalues --   -0.55247  -0.54976  -0.54925  -0.54916  -0.54723
 Alpha  occ. eigenvalues --   -0.54590  -0.54250  -0.54129  -0.54097  -0.54080
 Alpha  occ. eigenvalues --   -0.53612  -0.53570  -0.53508  -0.53367  -0.53266
 Alpha  occ. eigenvalues --   -0.53088  -0.52779  -0.52667  -0.52499  -0.52496
 Alpha  occ. eigenvalues --   -0.52130  -0.51954  -0.51745  -0.51683  -0.51626
 Alpha  occ. eigenvalues --   -0.51572  -0.51385  -0.51085  -0.50929  -0.50836
 Alpha  occ. eigenvalues --   -0.50562  -0.50458  -0.50261  -0.50110  -0.49999
 Alpha  occ. eigenvalues --   -0.49934  -0.49902  -0.49569  -0.49260  -0.49222
 Alpha  occ. eigenvalues --   -0.48950  -0.48890  -0.48762  -0.48519  -0.48413
 Alpha  occ. eigenvalues --   -0.48396  -0.48164  -0.48106  -0.48056  -0.47910
 Alpha  occ. eigenvalues --   -0.47533  -0.47328  -0.47207  -0.47151  -0.46883
 Alpha  occ. eigenvalues --   -0.46655  -0.46618  -0.46287  -0.46250  -0.46078
 Alpha  occ. eigenvalues --   -0.45924  -0.45846  -0.45669  -0.45616  -0.45470
 Alpha  occ. eigenvalues --   -0.45280  -0.45089  -0.44997  -0.44854  -0.44607
 Alpha  occ. eigenvalues --   -0.44541  -0.44338  -0.43974  -0.43696  -0.43617
 Alpha  occ. eigenvalues --   -0.43584  -0.43316  -0.43309  -0.43084  -0.43066
 Alpha  occ. eigenvalues --   -0.42941  -0.42907  -0.42771  -0.42582  -0.42124
 Alpha  occ. eigenvalues --   -0.42047  -0.41823  -0.41670  -0.41358  -0.41009
 Alpha  occ. eigenvalues --   -0.40618  -0.40341  -0.39789  -0.39763  -0.39608
 Alpha  occ. eigenvalues --   -0.39545  -0.39240  -0.38783  -0.38590  -0.38139
 Alpha  occ. eigenvalues --   -0.38024  -0.36867  -0.36485  -0.36434  -0.36243
 Alpha  occ. eigenvalues --   -0.36051  -0.35425  -0.35392  -0.33668  -0.33508
 Alpha  occ. eigenvalues --   -0.33405  -0.33153  -0.33036  -0.32380  -0.32246
 Alpha  occ. eigenvalues --   -0.32201  -0.31834  -0.31373  -0.26307  -0.25770
 Alpha  occ. eigenvalues --   -0.23271  -0.22955
 Alpha virt. eigenvalues --   -0.07639  -0.06881  -0.00232   0.00173   0.01792
 Alpha virt. eigenvalues --    0.02022   0.04311   0.04424   0.05253   0.05807
 Alpha virt. eigenvalues --    0.07301   0.07550   0.07910   0.07993   0.08348

 Mulliken charges:
               1
     1  Mg   0.967250
     2  C    0.011792
     3  C   -0.103229
     4  C   -0.069859
     5  C   -0.098384
     6  N   -0.364068
     7  C   -0.034177
     8  C   -0.002699
     9  C   -0.138133
    10  C    0.092956
    11  C    0.019373
    12  C   -0.009244
    13  C   -0.148523
    14  H    0.036401
    15  N   -0.481838
    16  C    0.200867
    17  C   -0.180129
    18  C   -0.027815
    19  C    0.193789
    20  C    0.079826
    21  C    0.021701
    22  O   -0.252870
    23  C   -0.034283
    24  N   -0.410815
    25  C    0.038792
    26  C   -0.045308
    27  C   -0.088427
    28  C    0.133968
    29  C   -0.000907
    30  C   -0.040869
    31  C   -0.058074
    32  N   -0.418597
    33  C    0.119615
    34  C   -0.179195
    35  C   -0.042521
    36  C    0.138570
    37  C    0.103219
    38  C    0.093000
    39  O   -0.217684
    40  C   -0.114388
    41  C    0.257083
    42  O   -0.187480
    43  O   -0.389618
    44  C    0.148305
    45  H   -0.010816
    46  H    0.025950
    47  H   -0.021876
    48  H    0.032303
    49  H    0.032493
    50  H    0.050109
    51  H    0.027201
    52  H    0.046203
    53  H    0.042871
    54  H    0.040683
    55  H    0.074252
    56  H    0.060438
    57  H    0.058500
    58  H    0.036796
    59  H    0.054093
    60  H    0.050780
    61  H    0.073266
    62  H    0.053563
    63  H    0.052018
    64  H    0.039606
    65  H    0.033973
    66  H    0.046057
    67  H    0.057339
    68  H    0.033694
    69  H    0.029695
    70  H    0.026205
    71  H    0.038835
    72  H    0.035104
    73  H    0.041488
    74  H    0.054370
    75  H    0.067138
    76  H    0.052281
    77  H    0.050832
    78  H    0.037016
    79  H    0.060163
    80  Mg   0.950836
    81  C   -0.080277
    82  C   -0.065101
    83  C   -0.054652
    84  C   -0.099728
    85  N   -0.357785
    86  C    0.029559
    87  C   -0.079579
    88  C   -0.109732
    89  C    0.089947
    90  C    0.022795
    91  C   -0.013540
    92  C   -0.098885
    93  H    0.035602
    94  N   -0.439027
    95  C    0.108628
    96  C   -0.179339
    97  C   -0.083520
    98  C    0.122532
    99  C    0.062381
   100  C    0.075970
   101  O   -0.249647
   102  C    0.010515
   103  N   -0.332228
   104  C    0.030812
   105  C   -0.062555
   106  C   -0.122923
   107  C    0.111136
   108  C    0.017292
   109  C   -0.023488
   110  C   -0.037699
   111  N   -0.390199
   112  C    0.092615
   113  C   -0.157267
   114  C   -0.058413
   115  C    0.194875
   116  C    0.082437
   117  C    0.129138
   118  O   -0.229550
   119  C   -0.055348
   120  C    0.260447
   121  O   -0.202735
   122  O   -0.416589
   123  C    0.130275
   124  H   -0.007771
   125  H    0.015271
   126  H    0.000046
   127  H    0.042247
   128  H    0.032271
   129  H    0.044449
   130  H    0.032987
   131  H    0.038519
   132  H    0.033252
   133  H    0.032474
   134  H    0.043016
   135  H    0.053466
   136  H    0.042696
   137  H    0.051411
   138  H    0.048481
   139  H    0.054867
   140  H    0.026291
   141  H    0.075593
   142  H    0.037507
   143  H    0.035298
   144  H    0.033685
   145  H    0.050465
   146  H    0.045467
   147  H    0.038408
   148  H    0.020857
   149  H    0.037113
   150  H    0.048348
   151  H    0.024414
   152  H    0.023629
   153  H    0.065333
   154  H    0.063747
   155  H    0.069643
   156  H    0.065950
   157  H    0.053355
   158  H    0.069230
 Sum of Mulliken charges =  -0.00000

 Dipole moment (field-independent basis, Debye):
    X=             -7.2795    Y=             -1.3217    Z=              5.8697  Tot=              9.4441
 Quadrupole moment (field-independent basis, Debye-Ang):
   XX=           -588.3914   YY=           -504.3340   ZZ=           -472.5683
   XY=            -96.2005   XZ=             17.0397   YZ=             58.3156

 Normal termination of Gaussian 16 at Mon Sep 20 13:47:19 2021.
