 Gaussian 16, Revision A.03,
 Gaussian 16:  ES64L-G16RevA.03 25-Dec-2016

 --------------------------------
 #p wB97XD/Def2SVP td=(nstates=5)
 --------------------------------

 --------------------------------
 TDDFT excited states in gaussian
 --------------------------------
 Symbolic Z-matrix:
 Charge =  0 Multiplicity = 1

                         Standard orientation:
 ---------------------------------------------------------------------
 Center     Atomic      Atomic             Coordinates (Angstroms)
 Number     Number       Type             X           Y           Z
 ---------------------------------------------------------------------
      1         12           0      -31.076343    0.330173    0.442531
      2          6           0      -28.505145   -1.924204   -0.634359
      3          6           0      -33.140267   -1.080529   -1.932690
      4          6           0      -33.156137    2.785142    1.010675
      5          6           0      -28.736659    1.711173    2.594077
      6          7           0      -30.743863   -1.179399   -1.345188
      7          6           0      -29.651302   -1.998628   -1.436245
      8          6           0      -29.964593   -3.173872   -2.400636
      9          6           0      -31.447864   -2.877722   -2.877617
     10          6           0      -31.851918   -1.613058   -2.035398
     11          6           0      -31.690358   -2.607269   -4.422041
     12          6           0      -29.838770   -4.590203   -1.778554
     13          6           0      -29.140072   -5.636675   -2.571507
     14          1           0      -28.908707   -5.539859   -4.127876
     15          7           0      -32.950325    0.837000   -0.361721
     16          6           0      -33.721710    0.072473   -1.236628
     17          6           0      -34.978854    0.792718   -1.515792
     18          6           0      -35.025323    1.874574   -0.554831
     19          6           0      -33.684407    1.879995    0.074763
     20          6           0      -36.011531    0.404560   -2.530251
     21          6           0      -36.147581    2.883403   -0.214769
     22          8           0      -36.200167    3.571937    0.826120
     23          6           0      -37.326785    2.913030   -1.101715
     24          7           0      -30.916413    1.978933    1.557508
     25          6           0      -31.942289    2.898330    1.563894
     26          6           0      -31.732005    3.965916    2.673161
     27          6           0      -30.460105    3.368719    3.423176
     28          6           0      -30.001005    2.266906    2.483939
     29          6           0      -31.556457    5.476746    2.234022
     30          6           0      -30.675145    2.832410    4.829580
     31          6           0      -29.953393    3.602450    5.955272
     32          7           0      -29.103378   -0.120264    1.053570
     33          6           0      -28.275930    0.555546    1.918873
     34          6           0      -26.943116   -0.061589    1.923820
     35          6           0      -27.035752   -1.065460    0.976173
     36          6           0      -28.355579   -1.066975    0.472237
     37          6           0      -25.725888    0.330236    2.694622
     38          6           0      -26.269741   -2.105826    0.390024
     39          8           0      -25.113509   -2.551456    0.639150
     40          6           0      -27.141775   -2.685152   -0.641823
     41          6           0      -26.430870   -2.709977   -1.967870
     42          8           0      -26.177993   -1.760851   -2.628058
     43          8           0      -26.186722   -3.969685   -2.328417
     44          6           0      -25.262777   -4.229926   -3.379657
     45          1           0      -33.855145   -1.460539   -2.665711
     46          1           0      -33.763051    3.634630    1.333541
     47          1           0      -27.986358    2.201877    3.216237
     48          1           0      -29.252014   -3.081887   -3.221149
     49          1           0      -32.102133   -3.698318   -2.584783
     50          1           0      -30.834290   -2.796557   -5.069062
     51          1           0      -31.885479   -1.538829   -4.524940
     52          1           0      -32.566721   -3.154014   -4.771442
     53          1           0      -30.806061   -5.046154   -1.564260
     54          1           0      -29.289031   -4.589919   -0.837778
     55          1           0      -29.697296   -6.572333   -2.516143
     56          1           0      -28.162776   -5.788129   -2.114027
     57          1           0      -36.202341    1.248494   -3.192817
     58          1           0      -36.920925    0.185464   -1.970689
     59          1           0      -35.772972   -0.549717   -3.001012
     60          1           0      -36.986407    3.228247   -2.088112
     61          1           0      -37.958661    3.711056   -0.712609
     62          1           0      -37.909062    1.993995   -1.040961
     63          1           0      -32.595207    3.869852    3.332535
     64          1           0      -29.726756    4.172850    3.482954
     65          1           0      -31.622134    5.561858    1.149926
     66          1           0      -30.665023    5.944295    2.653919
     67          1           0      -32.366080    6.040297    2.698002
     68          1           0      -30.534233    1.760750    4.970963
     69          1           0      -31.734423    2.958278    5.051125
     70          1           0      -29.454925    3.007520    6.720314
     71          1           0      -30.732561    4.053714    6.570157
     72          1           0      -29.211861    4.328994    5.625816
     73          1           0      -25.956592    0.973033    3.544629
     74          1           0      -25.097473    0.985441    2.091553
     75          1           0      -25.173411   -0.589682    2.885588
     76          1           0      -27.350519   -3.703635   -0.315437
     77          1           0      -24.271159   -4.044729   -2.964341
     78          1           0      -25.365910   -3.497076   -4.180042
     79          1           0      -25.300110   -5.275218   -3.687516
     80         12           0       31.108197   -0.039862   -0.469387
     81          6           0       27.989134   -1.110951    0.557085
     82          6           0       29.544109    2.119375   -2.646919
     83          6           0       34.148872    1.445095   -1.059642
     84          6           0       32.593438   -2.145186    1.813782
     85          7           0       29.033029    0.586708   -0.839134
     86          6           0       27.926393   -0.065993   -0.332751
     87          6           0       26.625298    0.499203   -0.896237
     88          6           0       27.155622    1.280327   -2.155891
     89          6           0       28.641346    1.371599   -1.839848
     90          6           0       26.789827    0.689827   -3.592461
     91          6           0       25.747205    1.335674    0.088249
     92          6           0       24.264531    1.029257    0.069514
     93          1           0       23.450834    2.169598   -0.522366
     94          7           0       31.708282    1.550196   -1.665054
     95          6           0       30.943323    2.276328   -2.488010
     96          6           0       31.749335    3.219839   -3.243228
     97          6           0       33.079395    3.121353   -2.870132
     98          6           0       33.044008    2.047138   -1.787012
     99          6           0       31.110742    4.270929   -4.270592
    100          6           0       34.294910    3.888708   -3.491567
    101          8           0       34.070779    4.762359   -4.376502
    102          6           0       35.684804    3.656038   -3.036945
    103          7           0       33.134907   -0.143514    0.468855
    104          6           0       34.200628    0.416582   -0.055461
    105          6           0       35.492254   -0.203699    0.434834
    106          6           0       35.090623   -1.325749    1.451335
    107          6           0       33.505866   -1.291849    1.209546
    108          6           0       36.641667   -0.517111   -0.575527
    109          6           0       35.448458   -1.191402    2.959901
    110          6           0       35.371528   -2.507578    3.705656
    111          7           0       30.425491   -1.381782    0.945987
    112          6           0       31.162784   -2.259447    1.774096
    113          6           0       30.227871   -3.120029    2.446251
    114          6           0       28.941925   -2.745160    1.986324
    115          6           0       29.158548   -1.671938    1.126529
    116          6           0       30.562827   -4.356295    3.267396
    117          6           0       27.609092   -3.076768    2.099036
    118          8           0       26.966757   -3.824182    2.785218
    119          6           0       26.869136   -1.907339    1.263759
    120          6           0       26.361044   -0.952059    2.342570
    121          8           0       27.026419   -0.112164    2.917403
    122          8           0       25.022053   -1.249015    2.539260
    123          6           0       24.359143   -0.520513    3.616049
    124          1           0       29.126120    2.675079   -3.488709
    125          1           0       35.083724    1.952714   -1.305019
    126          1           0       32.926611   -2.953231    2.468370
    127          1           0       26.043764   -0.340310   -1.276102
    128          1           0       26.846902    2.318576   -2.028779
    129          1           0       27.587022    1.106275   -4.208118
    130          1           0       25.890216    1.116639   -4.036587
    131          1           0       26.722077   -0.394749   -3.676237
    132          1           0       25.921808    2.361496   -0.236894
    133          1           0       26.106312    1.429755    1.112879
    134          1           0       23.962745    0.831087    1.098239
    135          1           0       24.027386    0.149351   -0.528834
    136          1           0       30.022279    4.251101   -4.339410
    137          1           0       31.513249    4.118948   -5.272644
    138          1           0       31.256263    5.306964   -3.967878
    139          1           0       35.950655    2.612048   -3.199769
    140          1           0       35.852219    4.054003   -2.036011
    141          1           0       36.292801    4.139500   -3.800597
    142          1           0       36.066976    0.400829    1.136808
    143          1           0       35.280038   -2.327121    1.063993
    144          1           0       36.374015   -0.002712   -1.499517
    145          1           0       36.858805   -1.580687   -0.680815
    146          1           0       37.609622   -0.101472   -0.295142
    147          1           0       34.788934   -0.419760    3.356783
    148          1           0       36.446194   -0.752634    2.958995
    149          1           0       36.113646   -2.475061    4.503735
    150          1           0       35.580095   -3.395787    3.108086
    151          1           0       34.416347   -2.563381    4.227845
    152          1           0       29.696932   -4.971269    3.512782
    153          1           0       31.077177   -4.023252    4.167923
    154          1           0       31.265181   -5.002464    2.740715
    155          1           0       26.134588   -2.317827    0.570225
    156          1           0       24.796749   -0.808359    4.572093
    157          1           0       23.280030   -0.669695    3.602224
    158          1           0       24.564701    0.544548    3.512618
 ---------------------------------------------------------------------

 SCF Done:  E(RwB97XD) =  -4070.60597120     A.U. after   20 cycles

 Excitation energies and oscillator strengths:

 Excited State   1:      Singlet-A      1.6708 eV  742.05 nm  f=0.4209  <S**2>=0.000
     310 -> 316        0.18119
     312 -> 313        0.68457
     310 <- 316        0.11413
 This state for optimization and/or second-order correction.
 Total Energy, E(TD-HF/TD-DFT) =  -4070.54456959
 Copying the excited state density for this state as the 1-particle RhoCI density.

 Excited State   2:      Singlet-A      1.8711 eV  662.62 nm  f=0.3746  <S**2>=0.000
     309 -> 315       -0.14187
     311 -> 314        0.68597

 Excited State   3:      Singlet-A      2.1576 eV  574.65 nm  f=0.1259  <S**2>=0.000
     310 -> 313        0.64761
     312 -> 316       -0.26950

 Excited State   4:      Singlet-A      2.2254 eV  557.14 nm  f=0.1259  <S**2>=0.000
     309 -> 314        0.64386
     311 -> 315        0.24646
     311 -> 318        0.10814

 Excited State   5:      Singlet-A      3.3916 eV  365.56 nm  f=0.0151  <S**2>=0.000
     301 -> 313       -0.20016
     301 -> 317        0.15911
     302 -> 313       -0.44343
     302 -> 317        0.28927
     302 -> 320        0.13142
     304 -> 313       -0.24657
     307 -> 313        0.14385
     312 -> 316        0.13777

 The electronic state is 1-A.
 Alpha  occ. eigenvalues --  -46.95749 -46.95248 -19.30239 -19.29679 -19.25343
 Alpha  occ. eigenvalues --  -19.24723 -19.24608 -19.24184 -19.23512 -19.22645
 Alpha  occ. eigenvalues --  -14.46911 -14.46652 -14.46627 -14.46220 -14.45216
 Alpha  occ. eigenvalues --  -14.44325 -14.44097 -14.43007 -10.42908 -10.42882
 Alpha  occ. eigenvalues --  -10.41099 -10.38863 -10.38790 -10.37342 -10.37286
 Alpha  occ. eigenvalues --  -10.36523 -10.35826 -10.35774 -10.35248 -10.35247
 Alpha  occ. eigenvalues --  -10.35074 -10.34932 -10.34840 -10.34672 -10.34346
 Alpha  occ. eigenvalues --  -10.34115 -10.34080 -10.33766 -10.33655 -10.33469
 Alpha  occ. eigenvalues --  -10.33385 -10.33377 -10.32990 -10.32802 -10.32545
 Alpha  occ. eigenvalues --  -10.32487 -10.32411 -10.32357 -10.32303 -10.32297
 Alpha  occ. eigenvalues --  -10.32295 -10.32234 -10.32207 -10.32165 -10.32115
 Alpha  occ. eigenvalues --  -10.31602 -10.31562 -10.31559 -10.31358 -10.31247
 Alpha  occ. eigenvalues --  -10.31174 -10.31102 -10.31073 -10.31053 -10.31033
 Alpha  occ. eigenvalues --  -10.30940 -10.30861 -10.30821 -10.30786 -10.30781
 Alpha  occ. eigenvalues --  -10.30776 -10.30765 -10.30716 -10.30486 -10.30417
 Alpha  occ. eigenvalues --  -10.30146 -10.29875 -10.29753 -10.29732 -10.29628
 Alpha  occ. eigenvalues --  -10.29388 -10.29311 -10.29274 -10.29154 -10.29079
 Alpha  occ. eigenvalues --  -10.26988  -3.21643  -3.21268  -1.95213  -1.94839
 Alpha  occ. eigenvalues --   -1.94768  -1.94614  -1.94403  -1.94238  -1.20828
 Alpha  occ. eigenvalues --   -1.17545  -1.11929  -1.11928  -1.11439  -1.10449
 Alpha  occ. eigenvalues --   -1.10376  -1.10023  -1.06909  -1.06603  -1.05868
 Alpha  occ. eigenvalues --   -1.05804  -1.05278  -1.04537  -1.04507  -1.03769
 Alpha  occ. eigenvalues --   -0.95637  -0.93462  -0.91031  -0.91029  -0.90406
 Alpha  occ. eigenvalues --   -0.90347  -0.90242  -0.89948  -0.89737  -0.88999
 Alpha  occ. eigenvalues --   -0.88766  -0.88697  -0.88206  -0.87711  -0.86520
 Alpha  occ. eigenvalues --   -0.86402  -0.85542  -0.85397  -0.85123  -0.84515
 Alpha  occ. eigenvalues --   -0.83986  -0.83960  -0.83652  -0.82613  -0.82474
 Alpha  occ. eigenvalues --   -0.82147  -0.80245  -0.79664  -0.79587  -0.79097
 Alpha  occ. eigenvalues --   -0.79089  -0.78637  -0.78273  -0.77257  -0.77117
 Alpha  occ. eigenvalues --   -0.77085  -0.75190  -0.74350  -0.73673  -0.73470
 Alpha  occ. eigenvalues --   -0.71659  -0.71381  -0.71095  -0.70933  -0.69842
 Alpha  occ. eigenvalues --   -0.69434  -0.69365  -0.68206  -0.67848  -0.67542
 Alpha  occ. eigenvalues --   -0.67391  -0.66867  -0.66823  -0.66695  -0.66464
 Alpha  occ. eigenvalues --   -0.66024  -0.65030  -0.63663  -0.62310  -0.62029
 Alpha  occ. eigenvalues --   -0.61881  -0.61420  -0.61304  -0.61137  -0.61031
 Alpha  occ. eigenvalues --   -0.60464  -0.60191  -0.59755  -0.59734  -0.59318
 Alpha  occ. eigenvalues --   -0.58459  -0.58430  -0.58085  -0.57401  -0.57129
 Alpha  occ. eigenvalues --   -0.56962  -0.56895  -0.56082  -0.55912  -0.55700
 Alpha  occ. eigenvalues --   -0.55658  -0.55331  -0.55266  -0.55225  -0.55106
 Alpha  occ. eigenvalues --   -0.54918  -0.54693  -0.54667  -0.54351  -0.53942
 Alpha  occ. eigenvalues --   -0.53642  -0.53497  -0.53493  -0.53414  -0.53034
 Alpha  occ. eigenvalues --   -0.52968  -0.52662  -0.52490  -0.52126  -0.52025
 Alpha  occ. eigenvalues --   -0.51956  -0.51945  -0.51789  -0.51737  -0.51400
 Alpha  occ. eigenvalues --   -0.51259  -0.51005  -0.50977  -0.50693  -0.50605
 Alpha  occ. eigenvalues --   -0.50536  -0.50393  -0.50209  -0.50144  -0.50122
 Alpha  occ. eigenvalues --   -0.49614  -0.49516  -0.49335  -0.49274  -0.49162
 Alpha  occ. eigenvalues --   -0.48858  -0.48701  -0.48497  -0.48164  -0.48112
 Alpha  occ. eigenvalues --   -0.48069  -0.48030  -0.47981  -0.47912  -0.47749
 Alpha  occ. eigenvalues --   -0.47182  -0.47121  -0.47104  -0.46955  -0.46791
 Alpha  occ. eigenvalues --   -0.46746  -0.46593  -0.46499  -0.46418  -0.46252
 Alpha  occ. eigenvalues --   -0.45842  -0.45622  -0.45499  -0.45358  -0.45305
 Alpha  occ. eigenvalues --   -0.45078  -0.44897  -0.44765  -0.44584  -0.44515
 Alpha  occ. eigenvalues --   -0.44448  -0.44440  -0.44131  -0.44081  -0.43970
 Alpha  occ. eigenvalues --   -0.43830  -0.43546  -0.43494  -0.43401  -0.43130
 Alpha  occ. eigenvalues --   -0.42887  -0.42641  -0.42328  -0.42177  -0.42074
 Alpha  occ. eigenvalues --   -0.41991  -0.41757  -0.41567  -0.41222  -0.41025
 Alpha  occ. eigenvalues --   -0.40876  -0.40078  -0.39996  -0.39839  -0.39266
 Alpha  occ. eigenvalues --   -0.39092  -0.38591  -0.38566  -0.38308  -0.38250
 Alpha  occ. eigenvalues --   -0.37759  -0.37269  -0.36663  -0.36378  -0.36135
 Alpha  occ. eigenvalues --   -0.36115  -0.35329  -0.35155  -0.34472  -0.34122
 Alpha  occ. eigenvalues --   -0.33715  -0.33563  -0.33059  -0.32860  -0.32600
 Alpha  occ. eigenvalues --   -0.31594  -0.31588  -0.31150  -0.26044  -0.26041
 Alpha  occ. eigenvalues --   -0.23343  -0.23109
 Alpha virt. eigenvalues --   -0.07280  -0.06730   0.00157   0.00454   0.01853
 Alpha virt. eigenvalues --    0.02188   0.04102   0.04126   0.04938   0.05405
 Alpha virt. eigenvalues --    0.07628   0.07819   0.08193   0.08355   0.08485

 Mulliken charges:
               1
     1  Mg   0.968491
     2  C   -0.020788
     3  C   -0.037319
     4  C   -0.068963
     5  C   -0.100297
     6  N   -0.318821
     7  C   -0.004807
     8  C   -0.025582
     9  C   -0.108431
    10  C    0.038782
    11  C    0.011075
    12  C    0.006998
    13  C   -0.131858
    14  H    0.014330
    15  N   -0.444878
    16  C    0.109720
    17  C   -0.188450
    18  C   -0.082099
    19  C    0.150483
    20  C    0.090633
    21  C    0.056675
    22  O   -0.260072
    23  C   -0.009980
    24  N   -0.429114
    25  C    0.096441
    26  C   -0.123005
    27  C   -0.081974
    28  C    0.106477
    29  C    0.027988
    30  C    0.012444
    31  C   -0.064940
    32  N   -0.411426
    33  C    0.113720
    34  C   -0.170855
    35  C   -0.051513
    36  C    0.143900
    37  C    0.088519
    38  C    0.114999
    39  O   -0.251358
    40  C   -0.029018
    41  C    0.225716
    42  O   -0.205806
    43  O   -0.332405
    44  C    0.138711
    45  H   -0.013853
    46  H    0.020111
    47  H   -0.001520
    48  H    0.046108
    49  H    0.041912
    50  H    0.041067
    51  H    0.040362
    52  H    0.039982
    53  H    0.033342
    54  H    0.031261
    55  H    0.045757
    56  H    0.057648
    57  H    0.058316
    58  H    0.041412
    59  H    0.035384
    60  H    0.054087
    61  H    0.046901
    62  H    0.066189
    63  H    0.046350
    64  H    0.023304
    65  H    0.051622
    66  H    0.034838
    67  H    0.038261
    68  H    0.040940
    69  H    0.022555
    70  H    0.029659
    71  H    0.032291
    72  H    0.037094
    73  H    0.030954
    74  H    0.058234
    75  H    0.072595
    76  H    0.069304
    77  H    0.047677
    78  H    0.056352
    79  H    0.061163
    80  Mg   0.966649
    81  C   -0.041553
    82  C   -0.128816
    83  C   -0.109111
    84  C   -0.042083
    85  N   -0.332992
    86  C   -0.011404
    87  C   -0.074776
    88  C   -0.075913
    89  C    0.063495
    90  C    0.034901
    91  C    0.028405
    92  C   -0.107263
    93  H    0.024767
    94  N   -0.466140
    95  C    0.186196
    96  C   -0.153126
    97  C   -0.065550
    98  C    0.142285
    99  C    0.072534
   100  C    0.052407
   101  O   -0.254011
   102  C    0.003636
   103  N   -0.330987
   104  C    0.128486
   105  C   -0.083443
   106  C   -0.090903
   107  C    0.027156
   108  C    0.020512
   109  C    0.009826
   110  C   -0.034563
   111  N   -0.438587
   112  C    0.046316
   113  C   -0.148300
   114  C    0.002759
   115  C    0.157953
   116  C    0.059527
   117  C    0.057948
   118  O   -0.195144
   119  C   -0.117741
   120  C    0.296940
   121  O   -0.238869
   122  O   -0.364133
   123  C    0.141260
   124  H   -0.003521
   125  H   -0.019449
   126  H   -0.016851
   127  H    0.023300
   128  H    0.032773
   129  H    0.025012
   130  H    0.044687
   131  H    0.053883
   132  H    0.020248
   133  H    0.052743
   134  H    0.048317
   135  H    0.048693
   136  H    0.019566
   137  H    0.064584
   138  H    0.059419
   139  H    0.061884
   140  H    0.091276
   141  H    0.055061
   142  H    0.038390
   143  H    0.031575
   144  H    0.030249
   145  H    0.041598
   146  H    0.029149
   147  H    0.042116
   148  H    0.025812
   149  H    0.032460
   150  H    0.043076
   151  H    0.051703
   152  H    0.058565
   153  H    0.038066
   154  H    0.040755
   155  H    0.054828
   156  H    0.058156
   157  H    0.060959
   158  H    0.042367
 Sum of Mulliken charges =  -0.00000

 Dipole moment (field-independent basis, Debye):
    X=              1.5461    Y=             -0.9566    Z=             -2.4347  Tot=              3.0386
 Quadrupole moment (field-independent basis, Debye-Ang):
   XX=           -130.1735   YY=           -517.4433   ZZ=           -498.9884
   XY=             65.1544   XZ=            -37.4859   YZ=             29.8999

 Normal termination of Gaussian 16 at Mon Sep 20 09:52:17 2021.
