 Gaussian 16, Revision A.03,
 Gaussian 16:  ES64L-G16RevA.03 25-Dec-2016

 --------------------------------
 #p wB97XD/Def2SVP td=(nstates=5)
 --------------------------------

 --------------------------------
 TDDFT excited states in gaussian
 --------------------------------
 Symbolic Z-matrix:
 Charge =  0 Multiplicity = 1

                         Standard orientation:
 ---------------------------------------------------------------------
 Center     Atomic      Atomic             Coordinates (Angstroms)
 Number     Number       Type             X           Y           Z
 ---------------------------------------------------------------------
      1         12           0       16.373538   -0.489270    0.276063
      2          6           0       15.649299    2.552171   -1.241326
      3          6           0       18.414255    1.094648    2.438512
      4          6           0       17.652673   -3.476684    1.213241
      5          6           0       14.906500   -2.133052   -2.498739
      6          7           0       16.826777    1.573185    0.541136
      7          6           0       16.338400    2.717563   -0.050822
      8          6           0       16.990654    3.977963    0.581196
      9          6           0       18.215365    3.349977    1.315287
     10          6           0       17.747850    1.920711    1.547611
     11          6           0       19.552484    3.365934    0.494033
     12          6           0       15.894779    4.741624    1.347014
     13          6           0       15.940149    6.211704    1.170489
     14          1           0       14.694940    6.909388    1.484824
     15          7           0       17.654135   -1.076820    1.781075
     16          6           0       18.349107   -0.251924    2.606332
     17          6           0       18.855905   -1.031350    3.707752
     18          6           0       18.622630   -2.405772    3.340764
     19          6           0       18.016792   -2.364477    2.006625
     20          6           0       19.583262   -0.447576    4.865586
     21          6           0       19.045019   -3.743146    4.031811
     22          8           0       18.751328   -4.851527    3.579348
     23          6           0       19.716878   -3.747411    5.376488
     24          7           0       16.552994   -2.468537   -0.755325
     25          6           0       17.042233   -3.587829   -0.028124
     26          6           0       16.769949   -4.895115   -0.695707
     27          6           0       15.712407   -4.403159   -1.736631
     28          6           0       15.664851   -2.882244   -1.616264
     29          6           0       18.038006   -5.581080   -1.307857
     30          6           0       14.277864   -5.002652   -1.501602
     31          6           0       13.714932   -4.854857   -0.065064
     32          7           0       15.367038    0.045951   -1.459385
     33          6           0       14.780905   -0.730851   -2.470693
     34          6           0       14.203773    0.175309   -3.391571
     35          6           0       14.501838    1.449030   -2.923569
     36          6           0       15.207485    1.308378   -1.774307
     37          6           0       13.391695   -0.203376   -4.588977
     38          6           0       14.403111    2.795342   -3.244189
     39          8           0       13.873106    3.336414   -4.231702
     40          6           0       15.129721    3.661571   -2.171573
     41          6           0       13.990576    4.565299   -1.604837
     42          8           0       13.034808    4.172676   -0.912270
     43          8           0       14.234174    5.871565   -2.015096
     44          6           0       13.155617    6.891449   -1.817345
     45          1           0       19.112633    1.705781    3.014180
     46          1           0       17.851336   -4.527319    1.438142
     47          1           0       14.263643   -2.581794   -3.258960
     48          1           0       17.286364    4.681067   -0.196730
     49          1           0       18.328826    3.825094    2.289255
     50          1           0       19.520075    3.878789   -0.467657
     51          1           0       19.830327    2.355620    0.196480
     52          1           0       20.311274    3.891053    1.073832
     53          1           0       16.115052    4.585523    2.402124
     54          1           0       14.932406    4.324893    1.048671
     55          1           0       16.120978    6.373187    0.107664
     56          1           0       16.803488    6.597957    1.711940
     57          1           0       19.388418    0.620389    4.961631
     58          1           0       20.618481   -0.787708    4.822414
     59          1           0       19.183484   -0.868290    5.788299
     60          1           0       20.267674   -4.688006    5.399371
     61          1           0       18.979196   -3.772346    6.178880
     62          1           0       20.428510   -2.927913    5.481691
     63          1           0       16.291169   -5.631034   -0.048205
     64          1           0       16.056234   -4.670819   -2.736272
     65          1           0       18.810852   -4.826308   -1.455700
     66          1           0       17.910954   -6.079055   -2.269225
     67          1           0       18.497940   -6.361855   -0.701407
     68          1           0       14.329685   -6.036027   -1.844886
     69          1           0       13.668470   -4.490304   -2.245999
     70          1           0       12.779931   -4.295010   -0.035986
     71          1           0       14.487312   -4.357690    0.522414
     72          1           0       13.506708   -5.815237    0.405594
     73          1           0       13.884747    0.266976   -5.439676
     74          1           0       12.372926    0.146350   -4.422005
     75          1           0       13.373106   -1.267341   -4.825380
     76          1           0       15.858728    4.290975   -2.681275
     77          1           0       12.296614    6.534872   -2.385283
     78          1           0       13.360072    7.913875   -2.134911
     79          1           0       13.062239    6.773254   -0.737767
     80         12           0      -15.927252   -0.775848   -0.066775
     81          6           0      -17.887636    1.832808    1.023828
     82          6           0      -13.419854    1.552470   -0.808715
     83          6           0      -13.973099   -3.264130   -1.243263
     84          6           0      -18.526927   -2.921931    0.324722
     85          7           0      -15.812352    1.501243   -0.141660
     86          6           0      -16.681145    2.316919    0.593957
     87          6           0      -16.092797    3.721346    0.834046
     88          6           0      -14.699937    3.578857    0.116907
     89          6           0      -14.567234    2.124382   -0.280434
     90          6           0      -14.540111    4.519592   -1.070704
     91          6           0      -15.951893    4.261982    2.300988
     92          6           0      -16.888795    5.521025    2.718974
     93          1           0      -16.042962    6.720826    3.156629
     94          7           0      -14.052095   -0.851098   -0.987133
     95          6           0      -13.129251    0.203510   -1.077169
     96          6           0      -11.800756   -0.281228   -1.465901
     97          6           0      -11.924110   -1.756287   -1.697047
     98          6           0      -13.341913   -2.060166   -1.249907
     99          6           0      -10.602406    0.628123   -1.625901
    100          6           0      -10.963987   -2.742038   -2.171973
    101          8           0      -11.330910   -3.908207   -2.378594
    102          6           0       -9.521019   -2.401849   -2.501256
    103          7           0      -16.263312   -2.712823   -0.463356
    104          6           0      -15.264197   -3.632343   -0.832740
    105          6           0      -15.710811   -5.149942   -0.810887
    106          6           0      -17.235531   -4.957755   -0.314077
    107          6           0      -17.338605   -3.427677   -0.122536
    108          6           0      -15.587547   -5.903265   -2.226004
    109          6           0      -17.524947   -5.767452    0.996455
    110          6           0      -18.865928   -6.416711    1.138562
    111          7           0      -17.890347   -0.547974    0.464899
    112          6           0      -18.846184   -1.553266    0.637218
    113          6           0      -20.025989   -1.035312    1.241203
    114          6           0      -19.644264    0.331419    1.508270
    115          6           0      -18.382535    0.549214    0.940495
    116          6           0      -21.278702   -1.691497    1.646352
    117          6           0      -20.146326    1.583717    1.980474
    118          8           0      -21.189968    1.957716    2.526860
    119          6           0      -19.047490    2.652857    1.537217
    120          6           0      -19.659437    3.588905    0.557291
    121          8           0      -19.574616    3.582674   -0.607557
    122          8           0      -20.302130    4.629710    1.223557
    123          6           0      -20.420761    5.859998    0.468934
    124          1           0      -12.611957    2.272692   -0.953966
    125          1           0      -13.423737   -4.162131   -1.533299
    126          1           0      -19.312225   -3.631860    0.592465
    127          1           0      -16.684098    4.444723    0.273661
    128          1           0      -13.878573    3.883406    0.766124
    129          1           0      -14.476911    3.924732   -1.981492
    130          1           0      -13.582427    4.997257   -0.867430
    131          1           0      -15.280594    5.315259   -1.149774
    132          1           0      -14.909917    4.544926    2.452498
    133          1           0      -16.211813    3.495740    3.031475
    134          1           0      -17.401233    5.138246    3.601754
    135          1           0      -17.548340    5.794374    1.895637
    136          1           0      -10.761218    1.191655   -2.546143
    137          1           0       -9.716882    0.001857   -1.722732
    138          1           0      -10.530023    1.392091   -0.851512
    139          1           0       -9.163296   -3.224933   -3.120196
    140          1           0       -8.891259   -2.255688   -1.623057
    141          1           0       -9.346524   -1.575269   -3.189753
    142          1           0      -15.193101   -5.675028   -0.008821
    143          1           0      -17.994014   -5.326722   -1.004865
    144          1           0      -16.449191   -6.561352   -2.340132
    145          1           0      -14.767307   -6.611868   -2.334217
    146          1           0      -15.530279   -5.216847   -3.071018
    147          1           0      -17.335742   -5.208253    1.912605
    148          1           0      -16.884764   -6.643965    1.094553
    149          1           0      -19.348104   -5.871144    1.949555
    150          1           0      -18.952040   -7.426880    1.538879
    151          1           0      -19.429956   -6.303948    0.212102
    152          1           0      -21.063055   -2.738471    1.861296
    153          1           0      -21.905162   -1.633928    0.756303
    154          1           0      -21.759995   -1.080905    2.410548
    155          1           0      -18.712000    3.223831    2.402612
    156          1           0      -21.233845    5.659634   -0.227980
    157          1           0      -19.478370    5.964969   -0.068397
    158          1           0      -20.684545    6.700978    1.110878
 ---------------------------------------------------------------------

 SCF Done:  E(RwB97XD) =  -4070.60168472     A.U. after   19 cycles

 Excitation energies and oscillator strengths:

 Excited State   1:      Singlet-A      1.6036 eV  773.16 nm  f=0.3971  <S**2>=0.000
     310 -> 316        0.16765
     312 -> 314        0.68428
     310 <- 316        0.11318
 This state for optimization and/or second-order correction.
 Total Energy, E(TD-HF/TD-DFT) =  -4070.54275374
 Copying the excited state density for this state as the 1-particle RhoCI density.

 Excited State   2:      Singlet-A      1.6226 eV  764.12 nm  f=0.3909  <S**2>=0.000
     309 -> 315        0.16180
     311 -> 313        0.68374
     309 <- 315        0.10532

 Excited State   3:      Singlet-A      2.1351 eV  580.69 nm  f=0.1198  <S**2>=0.000
     309 -> 313        0.64276
     311 -> 315       -0.25991

 Excited State   4:      Singlet-A      2.1619 eV  573.50 nm  f=0.1267  <S**2>=0.000
     310 -> 314        0.64146
     312 -> 316       -0.27556

 Excited State   5:      Singlet-A      3.2516 eV  381.30 nm  f=0.0002  <S**2>=0.000
     304 -> 314        0.18195
     304 -> 318       -0.10858
     304 -> 320       -0.12540
     305 -> 314        0.55447
     307 -> 314       -0.31731

 The electronic state is 1-A.
 Alpha  occ. eigenvalues --  -46.94726 -46.94292 -19.30056 -19.27362 -19.25050
 Alpha  occ. eigenvalues --  -19.24427 -19.23927 -19.23794 -19.22948 -19.22815
 Alpha  occ. eigenvalues --  -14.47169 -14.46619 -14.46595 -14.46128 -14.44936
 Alpha  occ. eigenvalues --  -14.43979 -14.43171 -14.43127 -10.44008 -10.41878
 Alpha  occ. eigenvalues --  -10.39326 -10.39292 -10.38170 -10.37732 -10.35911
 Alpha  occ. eigenvalues --  -10.35799 -10.35341 -10.35156 -10.35145 -10.35072
 Alpha  occ. eigenvalues --  -10.34731 -10.34723 -10.34617 -10.34395 -10.34322
 Alpha  occ. eigenvalues --  -10.34291 -10.34272 -10.34206 -10.33505 -10.33427
 Alpha  occ. eigenvalues --  -10.33309 -10.33230 -10.33222 -10.32732 -10.32466
 Alpha  occ. eigenvalues --  -10.32400 -10.32397 -10.32296 -10.32294 -10.32267
 Alpha  occ. eigenvalues --  -10.32033 -10.31881 -10.31861 -10.31832 -10.31790
 Alpha  occ. eigenvalues --  -10.31663 -10.31645 -10.31635 -10.31599 -10.31412
 Alpha  occ. eigenvalues --  -10.31357 -10.31306 -10.31158 -10.31113 -10.30967
 Alpha  occ. eigenvalues --  -10.30845 -10.30586 -10.30574 -10.30485 -10.30389
 Alpha  occ. eigenvalues --  -10.30350 -10.30341 -10.30300 -10.30093 -10.30021
 Alpha  occ. eigenvalues --  -10.29861 -10.29836 -10.29790 -10.29741 -10.29731
 Alpha  occ. eigenvalues --  -10.29725 -10.29700 -10.29461 -10.29129 -10.28465
 Alpha  occ. eigenvalues --  -10.27876  -3.20755  -3.20460  -1.94325  -1.94024
 Alpha  occ. eigenvalues --   -1.93885  -1.93727  -1.93598  -1.93454  -1.18864
 Alpha  occ. eigenvalues --   -1.16665  -1.11804  -1.11716  -1.10284  -1.10253
 Alpha  occ. eigenvalues --   -1.09886  -1.08934  -1.06918  -1.06608  -1.05981
 Alpha  occ. eigenvalues --   -1.05580  -1.05431  -1.04293  -1.04050  -1.02692
 Alpha  occ. eigenvalues --   -0.94607  -0.94521  -0.91094  -0.91074  -0.90976
 Alpha  occ. eigenvalues --   -0.90511  -0.90482  -0.90373  -0.89764  -0.89262
 Alpha  occ. eigenvalues --   -0.89134  -0.89117  -0.88642  -0.88530  -0.86548
 Alpha  occ. eigenvalues --   -0.86132  -0.85502  -0.85341  -0.84323  -0.84114
 Alpha  occ. eigenvalues --   -0.83818  -0.83572  -0.82999  -0.82777  -0.82407
 Alpha  occ. eigenvalues --   -0.82169  -0.80752  -0.80207  -0.79309  -0.79044
 Alpha  occ. eigenvalues --   -0.78918  -0.78585  -0.78017  -0.77448  -0.77194
 Alpha  occ. eigenvalues --   -0.77139  -0.75300  -0.75043  -0.74058  -0.73660
 Alpha  occ. eigenvalues --   -0.71762  -0.71332  -0.70807  -0.70585  -0.69875
 Alpha  occ. eigenvalues --   -0.69577  -0.69531  -0.68543  -0.67580  -0.67385
 Alpha  occ. eigenvalues --   -0.67227  -0.66988  -0.66646  -0.66510  -0.66098
 Alpha  occ. eigenvalues --   -0.65880  -0.63658  -0.62823  -0.62201  -0.61929
 Alpha  occ. eigenvalues --   -0.61815  -0.61327  -0.61191  -0.60985  -0.60491
 Alpha  occ. eigenvalues --   -0.60414  -0.60233  -0.59636  -0.59618  -0.59024
 Alpha  occ. eigenvalues --   -0.58495  -0.58001  -0.57622  -0.57478  -0.57323
 Alpha  occ. eigenvalues --   -0.57230  -0.57032  -0.56787  -0.55836  -0.55556
 Alpha  occ. eigenvalues --   -0.55498  -0.55229  -0.55021  -0.54953  -0.54910
 Alpha  occ. eigenvalues --   -0.54825  -0.54576  -0.54436  -0.54228  -0.54065
 Alpha  occ. eigenvalues --   -0.53911  -0.53693  -0.53495  -0.53452  -0.53252
 Alpha  occ. eigenvalues --   -0.53075  -0.52653  -0.52479  -0.52474  -0.52332
 Alpha  occ. eigenvalues --   -0.52110  -0.51940  -0.51667  -0.51620  -0.51556
 Alpha  occ. eigenvalues --   -0.51391  -0.51150  -0.50911  -0.50873  -0.50742
 Alpha  occ. eigenvalues --   -0.50546  -0.50506  -0.50444  -0.50084  -0.49984
 Alpha  occ. eigenvalues --   -0.49959  -0.49920  -0.49693  -0.49378  -0.49207
 Alpha  occ. eigenvalues --   -0.49059  -0.48934  -0.48748  -0.48574  -0.48380
 Alpha  occ. eigenvalues --   -0.48262  -0.48042  -0.47948  -0.47895  -0.47700
 Alpha  occ. eigenvalues --   -0.47447  -0.47312  -0.47193  -0.46869  -0.46604
 Alpha  occ. eigenvalues --   -0.46603  -0.46463  -0.46133  -0.46063  -0.45739
 Alpha  occ. eigenvalues --   -0.45598  -0.45455  -0.45436  -0.45431  -0.45265
 Alpha  occ. eigenvalues --   -0.45174  -0.45057  -0.44980  -0.44840  -0.44654
 Alpha  occ. eigenvalues --   -0.44522  -0.44359  -0.43958  -0.43914  -0.43807
 Alpha  occ. eigenvalues --   -0.43603  -0.43567  -0.43295  -0.43112  -0.43053
 Alpha  occ. eigenvalues --   -0.42893  -0.42865  -0.42668  -0.42569  -0.42212
 Alpha  occ. eigenvalues --   -0.42034  -0.41922  -0.41808  -0.41113  -0.40995
 Alpha  occ. eigenvalues --   -0.40603  -0.40238  -0.40025  -0.39775  -0.39594
 Alpha  occ. eigenvalues --   -0.39344  -0.39226  -0.38945  -0.38598  -0.38147
 Alpha  occ. eigenvalues --   -0.38010  -0.36855  -0.36420  -0.36229  -0.36160
 Alpha  occ. eigenvalues --   -0.36037  -0.35526  -0.35378  -0.33652  -0.33593
 Alpha  occ. eigenvalues --   -0.33488  -0.32789  -0.32184  -0.32107  -0.31972
 Alpha  occ. eigenvalues --   -0.31820  -0.31593  -0.31358  -0.26292  -0.26214
 Alpha  occ. eigenvalues --   -0.23256  -0.23055
 Alpha virt. eigenvalues --   -0.07622  -0.07411  -0.00216   0.00377   0.01809
 Alpha virt. eigenvalues --    0.02550   0.04325   0.04408   0.05266   0.05342
 Alpha virt. eigenvalues --    0.07073   0.07371   0.07565   0.07923   0.08582

 Mulliken charges:
               1
     1  Mg   0.955947
     2  C   -0.066859
     3  C   -0.119237
     4  C   -0.020984
     5  C   -0.102726
     6  N   -0.406873
     7  C    0.019988
     8  C   -0.101599
     9  C   -0.087818
    10  C    0.033961
    11  C    0.034838
    12  C    0.039869
    13  C   -0.123638
    14  H    0.052706
    15  N   -0.463981
    16  C    0.229733
    17  C   -0.175634
    18  C   -0.078300
    19  C    0.188383
    20  C    0.069253
    21  C    0.055879
    22  O   -0.248530
    23  C   -0.006304
    24  N   -0.316577
    25  C   -0.057192
    26  C   -0.058257
    27  C   -0.099661
    28  C    0.111872
    29  C    0.018207
    30  C   -0.021961
    31  C   -0.053843
    32  N   -0.435058
    33  C    0.116862
    34  C   -0.197910
    35  C    0.053971
    36  C    0.194350
    37  C    0.092957
    38  C    0.016673
    39  O   -0.242852
    40  C   -0.028754
    41  C    0.287611
    42  O   -0.268889
    43  O   -0.389748
    44  C    0.142354
    45  H   -0.000850
    46  H    0.018647
    47  H    0.002508
    48  H    0.020151
    49  H    0.019462
    50  H    0.035647
    51  H    0.053096
    52  H    0.043531
    53  H    0.021629
    54  H    0.065476
    55  H    0.039957
    56  H    0.040224
    57  H    0.041085
    58  H    0.067768
    59  H    0.043135
    60  H    0.054780
    61  H    0.075064
    62  H    0.027254
    63  H    0.045816
    64  H    0.030968
    65  H    0.039627
    66  H    0.032824
    67  H    0.042708
    68  H    0.031287
    69  H    0.022846
    70  H    0.046337
    71  H    0.045747
    72  H    0.042285
    73  H    0.058176
    74  H    0.067853
    75  H    0.019642
    76  H    0.066986
    77  H    0.068210
    78  H    0.069584
    79  H    0.058307
    80  Mg   0.967146
    81  C    0.011680
    82  C   -0.103133
    83  C   -0.069798
    84  C   -0.098407
    85  N   -0.364116
    86  C   -0.034209
    87  C   -0.002635
    88  C   -0.138148
    89  C    0.093012
    90  C    0.019355
    91  C   -0.009245
    92  C   -0.148459
    93  H    0.036390
    94  N   -0.481794
    95  C    0.200723
    96  C   -0.180042
    97  C   -0.027760
    98  C    0.193833
    99  C    0.079726
   100  C    0.021673
   101  O   -0.252856
   102  C   -0.034324
   103  N   -0.410615
   104  C    0.038768
   105  C   -0.045327
   106  C   -0.088387
   107  C    0.133978
   108  C   -0.000904
   109  C   -0.040863
   110  C   -0.058054
   111  N   -0.418830
   112  C    0.119573
   113  C   -0.179178
   114  C   -0.042525
   115  C    0.138622
   116  C    0.103202
   117  C    0.092922
   118  O   -0.217743
   119  C   -0.114249
   120  C    0.257055
   121  O   -0.187467
   122  O   -0.389635
   123  C    0.148324
   124  H   -0.010756
   125  H    0.025943
   126  H   -0.021900
   127  H    0.032275
   128  H    0.032511
   129  H    0.050139
   130  H    0.027254
   131  H    0.046195
   132  H    0.042882
   133  H    0.040655
   134  H    0.074207
   135  H    0.060395
   136  H    0.058587
   137  H    0.036917
   138  H    0.054157
   139  H    0.050820
   140  H    0.073319
   141  H    0.053654
   142  H    0.051997
   143  H    0.039588
   144  H    0.033950
   145  H    0.046060
   146  H    0.057368
   147  H    0.033680
   148  H    0.029668
   149  H    0.026182
   150  H    0.038788
   151  H    0.035107
   152  H    0.041458
   153  H    0.054343
   154  H    0.067106
   155  H    0.052190
   156  H    0.050821
   157  H    0.037031
   158  H    0.060131
 Sum of Mulliken charges =  -0.00000

 Dipole moment (field-independent basis, Debye):
    X=              8.1839    Y=             -0.2475    Z=              3.1433  Tot=              8.7703
 Quadrupole moment (field-independent basis, Debye-Ang):
   XX=           -616.8865   YY=           -465.9961   ZZ=           -516.8858
   XY=             58.7898   XZ=             48.3218   YZ=             11.9978

 Normal termination of Gaussian 16 at Sun Sep 19 11:29:24 2021.
