 Gaussian 16, Revision A.03,
 Gaussian 16:  ES64L-G16RevA.03 25-Dec-2016

 --------------------------------
 #p wB97XD/Def2SVP td=(nstates=5)
 --------------------------------

 --------------------------------
 TDDFT excited states in gaussian
 --------------------------------
 Symbolic Z-matrix:
 Charge =  0 Multiplicity = 1

                         Standard orientation:
 ---------------------------------------------------------------------
 Center     Atomic      Atomic             Coordinates (Angstroms)
 Number     Number       Type             X           Y           Z
 ---------------------------------------------------------------------
      1         12           0      -24.555352   -0.758793   -0.376158
      2          6           0      -25.627808    2.169866    1.410272
      3          6           0      -23.514093    1.458414   -2.939488
      4          6           0      -23.566046   -3.471062   -2.341148
      5          6           0      -25.925586   -2.763762    1.917935
      6          7           0      -24.788593    1.619159   -0.765171
      7          6           0      -25.138851    2.545341    0.152877
      8          6           0      -25.066258    3.981112   -0.480745
      9          6           0      -24.586750    3.627559   -1.933920
     10          6           0      -24.184250    2.135735   -1.884979
     11          6           0      -25.675125    3.950861   -3.016272
     12          6           0      -24.104231    4.918385    0.248840
     13          6           0      -24.591991    6.309620    0.487915
     14          1           0      -23.714390    7.270707    1.302794
     15          7           0      -23.501007   -0.999897   -2.223961
     16          6           0      -23.189805    0.033420   -3.101482
     17          6           0      -22.485316   -0.534878   -4.233613
     18          6           0      -22.388367   -1.905529   -4.059589
     19          6           0      -23.243901   -2.202500   -2.861566
     20          6           0      -22.075137    0.231524   -5.458151
     21          6           0      -21.751509   -3.030459   -4.974113
     22          8           0      -21.705146   -4.216901   -4.758895
     23          6           0      -20.954867   -2.608381   -6.189619
     24          7           0      -24.830092   -2.764674   -0.344091
     25          6           0      -24.367463   -3.725936   -1.204521
     26          6           0      -24.934294   -5.126732   -0.875393
     27          6           0      -25.472748   -4.941801    0.606916
     28          6           0      -25.372637   -3.375030    0.747856
     29          6           0      -25.988684   -5.619544   -1.917485
     30          6           0      -24.650814   -5.699582    1.693570
     31          6           0      -23.234462   -5.181592    1.933246
     32          7           0      -25.582607   -0.456066    1.282167
     33          6           0      -26.062023   -1.405501    2.227169
     34          6           0      -26.723350   -0.731250    3.342181
     35          6           0      -26.524230    0.636442    3.081662
     36          6           0      -25.829113    0.772041    1.850829
     37          6           0      -27.364324   -1.378888    4.480483
     38          6           0      -26.811495    1.953152    3.641530
     39          8           0      -27.333632    2.247433    4.703722
     40          6           0      -26.318809    3.030028    2.532407
     41          6           0      -25.412527    3.899958    3.406801
     42          8           0      -24.293044    3.623747    3.874339
     43          8           0      -26.038221    5.033745    3.671054
     44          6           0      -25.259006    6.188765    4.276591
     45          1           0      -23.130668    2.154694   -3.687836
     46          1           0      -23.299373   -4.378889   -2.887903
     47          1           0      -26.284706   -3.475943    2.663383
     48          1           0      -26.069078    4.383727   -0.342097
     49          1           0      -23.673572    4.162581   -2.198037
     50          1           0      -25.361474    4.607364   -3.827891
     51          1           0      -26.640598    4.242383   -2.602346
     52          1           0      -25.973026    3.122639   -3.659629
     53          1           0      -23.404970    5.159388   -0.552013
     54          1           0      -23.597666    4.444695    1.090463
     55          1           0      -25.592312    6.474541    0.891510
     56          1           0      -24.623256    6.730966   -0.516929
     57          1           0      -22.208646    1.304003   -5.318849
     58          1           0      -22.600425   -0.041942   -6.374565
     59          1           0      -21.023579    0.151205   -5.734092
     60          1           0      -20.102471   -1.980629   -5.930135
     61          1           0      -21.721282   -2.116633   -6.788779
     62          1           0      -20.748546   -3.554535   -6.689977
     63          1           0      -24.078928   -5.788393   -1.016446
     64          1           0      -26.549383   -5.014560    0.762323
     65          1           0      -25.628965   -6.456793   -2.515523
     66          1           0      -26.444818   -4.881790   -2.576677
     67          1           0      -26.798379   -5.930420   -1.257047
     68          1           0      -24.805439   -6.766675    1.533255
     69          1           0      -25.155652   -5.542985    2.646685
     70          1           0      -22.888759   -4.406473    1.250270
     71          1           0      -22.582784   -6.043185    1.790217
     72          1           0      -23.074382   -4.657678    2.874876
     73          1           0      -27.810085   -0.699240    5.207040
     74          1           0      -26.575963   -1.968166    4.948653
     75          1           0      -28.110607   -2.070023    4.086137
     76          1           0      -27.118884    3.703314    2.224781
     77          1           0      -25.867911    7.076330    4.103241
     78          1           0      -24.315996    6.378822    3.764937
     79          1           0      -25.009444    6.041177    5.327966
     80         12           0       24.331935   -0.630052    0.327050
     81          6           0       24.785213    2.113198   -1.795394
     82          6           0       24.010474    1.382924    2.898885
     83          6           0       24.654447   -3.329971    2.427104
     84          6           0       25.184480   -2.784120   -2.337283
     85          7           0       24.298271    1.473070    0.457712
     86          6           0       24.433004    2.448830   -0.505335
     87          6           0       24.120582    3.834103    0.045685
     88          6           0       24.105475    3.562035    1.584153
     89          6           0       24.029445    2.076610    1.655619
     90          6           0       25.158982    4.195060    2.467284
     91          6           0       22.837747    4.502188   -0.544431
     92          6           0       22.531679    5.907587   -0.015333
     93          1           0       22.299540    6.981415   -1.068187
     94          7           0       24.394100   -0.930781    2.489714
     95          6           0       24.090547    0.049538    3.365812
     96          6           0       23.992192   -0.509748    4.685465
     97          6           0       24.288480   -1.879233    4.574802
     98          6           0       24.474265   -2.090869    3.113449
     99          6           0       23.692031    0.303910    5.926607
    100          6           0       24.306690   -2.941651    5.624515
    101          8           0       24.720021   -4.123375    5.481179
    102          6           0       23.750182   -2.653857    7.013560
    103          7           0       24.865306   -2.705763    0.079072
    104          6           0       24.989584   -3.576967    1.107276
    105          6           0       25.173885   -5.080711    0.525802
    106          6           0       24.863467   -4.879066   -0.998982
    107          6           0       24.897645   -3.389794   -1.125761
    108          6           0       26.633328   -5.584604    0.855119
    109          6           0       23.395042   -5.330049   -1.334925
    110          6           0       22.240887   -4.785888   -0.507536
    111          7           0       24.837830   -0.427602   -1.746022
    112          6           0       25.142158   -1.408541   -2.649470
    113          6           0       25.388481   -0.780657   -3.863704
    114          6           0       25.300430    0.625621   -3.653601
    115          6           0       24.961105    0.792669   -2.336724
    116          6           0       25.802754   -1.380327   -5.161048
    117          6           0       25.425678    1.983368   -4.230507
    118          8           0       25.757898    2.405215   -5.332335
    119          6           0       24.988558    3.005170   -3.043339
    120          6           0       25.947788    4.137848   -2.950074
    121          8           0       27.195736    4.047384   -3.148518
    122          8           0       25.228054    5.241395   -2.798552
    123          6           0       25.932925    6.459840   -3.148154
    124          1           0       23.784090    2.000927    3.770389
    125          1           0       24.724313   -4.205036    3.077617
    126          1           0       25.315846   -3.485451   -3.162755
    127          1           0       24.935886    4.454800   -0.326439
    128          1           0       23.180479    3.884242    2.063577
    129          1           0       25.682820    5.061938    2.064573
    130          1           0       25.879111    3.432269    2.764580
    131          1           0       24.699783    4.352444    3.443429
    132          1           0       21.979467    3.848368   -0.387475
    133          1           0       22.937907    4.564885   -1.627515
    134          1           0       23.430826    6.393067    0.363655
    135          1           0       21.738879    5.885623    0.732969
    136          1           0       23.675425    1.383008    5.774190
    137          1           0       24.454855    0.281735    6.704496
    138          1           0       22.747754    0.037565    6.402476
    139          1           0       24.422640   -1.949392    7.502294
    140          1           0       23.878745   -3.500157    7.687974
    141          1           0       22.696678   -2.371939    7.005718
    142          1           0       24.485730   -5.755538    1.034897
    143          1           0       25.698433   -5.349345   -1.518334
    144          1           0       27.149438   -4.970696    1.593467
    145          1           0       27.304159   -5.600954   -0.004000
    146          1           0       26.660491   -6.573868    1.309714
    147          1           0       23.514184   -6.404587   -1.195719
    148          1           0       23.094797   -5.169217   -2.369901
    149          1           0       22.621403   -4.282588    0.381540
    150          1           0       21.443948   -5.488143   -0.265366
    151          1           0       21.753031   -4.109042   -1.208991
    152          1           0       25.144449   -2.171427   -5.520946
    153          1           0       26.771194   -1.838068   -4.961395
    154          1           0       25.937996   -0.634002   -5.943196
    155          1           0       24.033130    3.401076   -3.386634
    156          1           0       25.280607    7.115605   -3.726187
    157          1           0       26.822902    6.342932   -3.766057
    158          1           0       26.178136    6.943380   -2.201990
 ---------------------------------------------------------------------

 SCF Done:  E(RwB97XD) =  -4070.60626019     A.U. after   19 cycles

 Excitation energies and oscillator strengths:

 Excited State   1:      Singlet-A      1.5889 eV  780.33 nm  f=0.3653  <S**2>=0.000
     309 -> 315       -0.18993
     312 -> 314        0.68307
     309 <- 315       -0.12270
 This state for optimization and/or second-order correction.
 Total Energy, E(TD-HF/TD-DFT) =  -4070.54787029
 Copying the excited state density for this state as the 1-particle RhoCI density.

 Excited State   2:      Singlet-A      1.6681 eV  743.28 nm  f=0.3929  <S**2>=0.000
     310 -> 316        0.17126
     311 -> 313        0.68674
     310 <- 316        0.11161

 Excited State   3:      Singlet-A      2.0911 eV  592.91 nm  f=0.1647  <S**2>=0.000
     310 -> 313        0.66094
     311 -> 316       -0.23076

 Excited State   4:      Singlet-A      2.1589 eV  574.31 nm  f=0.0895  <S**2>=0.000
     309 -> 314        0.62443
     312 -> 315        0.32204

 Excited State   5:      Singlet-A      3.0725 eV  403.53 nm  f=0.0090  <S**2>=0.000
     308 -> 313        0.67869

 The electronic state is 1-A.
 Alpha  occ. eigenvalues --  -46.95722 -46.94641 -19.31858 -19.30156 -19.24553
 Alpha  occ. eigenvalues --  -19.24415 -19.24230 -19.24025 -19.23465 -19.22982
 Alpha  occ. eigenvalues --  -14.47525 -14.47083 -14.46429 -14.46147 -14.44744
 Alpha  occ. eigenvalues --  -14.44369 -14.44312 -14.42597 -10.43075 -10.42336
 Alpha  occ. eigenvalues --  -10.39810 -10.39589 -10.39432 -10.38833 -10.36211
 Alpha  occ. eigenvalues --  -10.35997 -10.35743 -10.35479 -10.35395 -10.35281
 Alpha  occ. eigenvalues --  -10.35176 -10.35150 -10.35143 -10.35014 -10.34885
 Alpha  occ. eigenvalues --  -10.34752 -10.34710 -10.34063 -10.34045 -10.34009
 Alpha  occ. eigenvalues --  -10.33954 -10.33226 -10.32946 -10.32908 -10.32743
 Alpha  occ. eigenvalues --  -10.32673 -10.32602 -10.32517 -10.32491 -10.32480
 Alpha  occ. eigenvalues --  -10.32426 -10.32410 -10.32391 -10.32363 -10.32360
 Alpha  occ. eigenvalues --  -10.32358 -10.32245 -10.32146 -10.31898 -10.31826
 Alpha  occ. eigenvalues --  -10.31817 -10.31806 -10.31804 -10.31666 -10.31353
 Alpha  occ. eigenvalues --  -10.31034 -10.30863 -10.30781 -10.30693 -10.30506
 Alpha  occ. eigenvalues --  -10.30453 -10.30422 -10.30388 -10.30224 -10.30103
 Alpha  occ. eigenvalues --  -10.30049 -10.30037 -10.29935 -10.29892 -10.29614
 Alpha  occ. eigenvalues --  -10.29538 -10.29474 -10.29251 -10.29226 -10.28708
 Alpha  occ. eigenvalues --  -10.28267  -3.21569  -3.20769  -1.95164  -1.94659
 Alpha  occ. eigenvalues --   -1.94548  -1.94347  -1.93910  -1.93742  -1.20290
 Alpha  occ. eigenvalues --   -1.18142  -1.13697  -1.12284  -1.10995  -1.10650
 Alpha  occ. eigenvalues --   -1.08102  -1.07512  -1.07487  -1.06391  -1.05794
 Alpha  occ. eigenvalues --   -1.05328  -1.05134  -1.04470  -1.04277  -1.03757
 Alpha  occ. eigenvalues --   -0.93793  -0.92834  -0.91495  -0.91201  -0.91112
 Alpha  occ. eigenvalues --   -0.90619  -0.90354  -0.89978  -0.89944  -0.89313
 Alpha  occ. eigenvalues --   -0.89064  -0.88909  -0.88411  -0.87595  -0.86721
 Alpha  occ. eigenvalues --   -0.86053  -0.85676  -0.85478  -0.84775  -0.84282
 Alpha  occ. eigenvalues --   -0.83820  -0.83454  -0.83305  -0.82986  -0.82640
 Alpha  occ. eigenvalues --   -0.82144  -0.80885  -0.80117  -0.79504  -0.79264
 Alpha  occ. eigenvalues --   -0.79227  -0.78895  -0.78064  -0.77911  -0.77189
 Alpha  occ. eigenvalues --   -0.77079  -0.74723  -0.74595  -0.73720  -0.73638
 Alpha  occ. eigenvalues --   -0.71984  -0.71888  -0.71094  -0.70744  -0.70363
 Alpha  occ. eigenvalues --   -0.69693  -0.69512  -0.68270  -0.67467  -0.67439
 Alpha  occ. eigenvalues --   -0.67206  -0.67080  -0.66682  -0.66611  -0.66515
 Alpha  occ. eigenvalues --   -0.66087  -0.64706  -0.63789  -0.63081  -0.61748
 Alpha  occ. eigenvalues --   -0.61615  -0.61306  -0.61229  -0.60930  -0.60542
 Alpha  occ. eigenvalues --   -0.59723  -0.59519  -0.59381  -0.59248  -0.58228
 Alpha  occ. eigenvalues --   -0.58203  -0.57963  -0.57728  -0.57656  -0.57427
 Alpha  occ. eigenvalues --   -0.57384  -0.57293  -0.57055  -0.56596  -0.56345
 Alpha  occ. eigenvalues --   -0.55909  -0.55291  -0.55250  -0.55166  -0.55106
 Alpha  occ. eigenvalues --   -0.54906  -0.54848  -0.54663  -0.54473  -0.54344
 Alpha  occ. eigenvalues --   -0.54070  -0.53651  -0.53521  -0.53474  -0.52919
 Alpha  occ. eigenvalues --   -0.52914  -0.52853  -0.52524  -0.52425  -0.52074
 Alpha  occ. eigenvalues --   -0.52042  -0.51760  -0.51572  -0.51535  -0.51229
 Alpha  occ. eigenvalues --   -0.51176  -0.51079  -0.50923  -0.50825  -0.50578
 Alpha  occ. eigenvalues --   -0.50500  -0.50454  -0.50378  -0.50266  -0.50087
 Alpha  occ. eigenvalues --   -0.50023  -0.49457  -0.49376  -0.49223  -0.49140
 Alpha  occ. eigenvalues --   -0.48699  -0.48687  -0.48594  -0.48452  -0.48304
 Alpha  occ. eigenvalues --   -0.48292  -0.48134  -0.47884  -0.47772  -0.47761
 Alpha  occ. eigenvalues --   -0.47442  -0.47368  -0.47223  -0.47088  -0.46846
 Alpha  occ. eigenvalues --   -0.46626  -0.46358  -0.46350  -0.46213  -0.46081
 Alpha  occ. eigenvalues --   -0.45905  -0.45805  -0.45646  -0.45608  -0.45479
 Alpha  occ. eigenvalues --   -0.45360  -0.45155  -0.45081  -0.44968  -0.44917
 Alpha  occ. eigenvalues --   -0.44833  -0.44574  -0.44522  -0.44322  -0.44074
 Alpha  occ. eigenvalues --   -0.44002  -0.43817  -0.43794  -0.43382  -0.43314
 Alpha  occ. eigenvalues --   -0.43152  -0.42842  -0.42776  -0.42391  -0.42283
 Alpha  occ. eigenvalues --   -0.42121  -0.41525  -0.41480  -0.41141  -0.41098
 Alpha  occ. eigenvalues --   -0.40618  -0.40545  -0.39991  -0.39855  -0.39556
 Alpha  occ. eigenvalues --   -0.39378  -0.38874  -0.38726  -0.38576  -0.38343
 Alpha  occ. eigenvalues --   -0.38049  -0.37664  -0.36131  -0.35954  -0.35913
 Alpha  occ. eigenvalues --   -0.35352  -0.35050  -0.34727  -0.34169  -0.33615
 Alpha  occ. eigenvalues --   -0.33187  -0.33002  -0.32970  -0.32819  -0.32523
 Alpha  occ. eigenvalues --   -0.32164  -0.32083  -0.30637  -0.26037  -0.25996
 Alpha  occ. eigenvalues --   -0.23599  -0.22770
 Alpha virt. eigenvalues --   -0.07728  -0.07077  -0.00139   0.00638   0.01977
 Alpha virt. eigenvalues --    0.02693   0.04469   0.04526   0.04937   0.06495
 Alpha virt. eigenvalues --    0.06613   0.07138   0.07581   0.07960   0.08364

 Mulliken charges:
               1
     1  Mg   0.988239
     2  C    0.030625
     3  C   -0.071682
     4  C   -0.057349
     5  C   -0.105005
     6  N   -0.311557
     7  C   -0.008610
     8  C   -0.088391
     9  C   -0.083040
    10  C    0.047736
    11  C    0.016136
    12  C    0.051481
    13  C   -0.150341
    14  H    0.031551
    15  N   -0.450404
    16  C    0.180608
    17  C   -0.160907
    18  C   -0.081948
    19  C    0.134317
    20  C    0.055322
    21  C    0.057074
    22  O   -0.216017
    23  C   -0.009511
    24  N   -0.398557
    25  C    0.036439
    26  C   -0.083106
    27  C   -0.076558
    28  C    0.060760
    29  C    0.027338
    30  C   -0.006058
    31  C   -0.051453
    32  N   -0.527350
    33  C    0.158571
    34  C   -0.163615
    35  C   -0.041811
    36  C    0.162167
    37  C    0.081437
    38  C    0.128590
    39  O   -0.198783
    40  C   -0.130036
    41  C    0.252240
    42  O   -0.287020
    43  O   -0.341676
    44  C    0.147889
    45  H   -0.001400
    46  H    0.022973
    47  H   -0.006062
    48  H    0.039133
    49  H    0.035194
    50  H    0.033073
    51  H    0.038324
    52  H    0.025667
    53  H    0.023399
    54  H    0.069090
    55  H    0.048350
    56  H    0.037573
    57  H    0.022350
    58  H    0.055778
    59  H    0.037795
    60  H    0.076518
    61  H    0.035098
    62  H    0.053212
    63  H    0.040838
    64  H    0.043010
    65  H    0.048288
    66  H    0.047206
    67  H    0.024269
    68  H    0.039511
    69  H    0.022306
    70  H    0.040669
    71  H    0.045461
    72  H    0.042404
    73  H    0.065304
    74  H    0.051800
    75  H    0.044451
    76  H    0.067556
    77  H    0.057688
    78  H    0.052423
    79  H    0.073013
    80  Mg   0.940479
    81  C    0.025426
    82  C   -0.076137
    83  C   -0.054381
    84  C   -0.071367
    85  N   -0.396528
    86  C   -0.020296
    87  C   -0.029287
    88  C   -0.089456
    89  C    0.104881
    90  C    0.044370
    91  C    0.022385
    92  C   -0.128876
    93  H    0.030691
    94  N   -0.379661
    95  C    0.094787
    96  C   -0.112125
    97  C   -0.048657
    98  C    0.101560
    99  C    0.052976
   100  C    0.041128
   101  O   -0.259335
   102  C   -0.008808
   103  N   -0.351476
   104  C    0.069279
   105  C   -0.145356
   106  C   -0.029865
   107  C    0.039021
   108  C    0.014269
   109  C   -0.014320
   110  C   -0.051378
   111  N   -0.418113
   112  C    0.151720
   113  C   -0.204275
   114  C   -0.041263
   115  C    0.088685
   116  C    0.077132
   117  C    0.161927
   118  O   -0.201891
   119  C   -0.129138
   120  C    0.263383
   121  O   -0.280582
   122  O   -0.330287
   123  C    0.127203
   124  H   -0.027659
   125  H    0.024834
   126  H   -0.001110
   127  H    0.031488
   128  H    0.031554
   129  H    0.056320
   130  H    0.033587
   131  H    0.025680
   132  H    0.024440
   133  H    0.044911
   134  H    0.046515
   135  H    0.062199
   136  H    0.028560
   137  H    0.048755
   138  H    0.055137
   139  H    0.043708
   140  H    0.044647
   141  H    0.064157
   142  H    0.043820
   143  H    0.030748
   144  H    0.043549
   145  H    0.032449
   146  H    0.040123
   147  H    0.029595
   148  H    0.030948
   149  H    0.055275
   150  H    0.043831
   151  H    0.033818
   152  H    0.035240
   153  H    0.042858
   154  H    0.057942
   155  H    0.082014
   156  H    0.053480
   157  H    0.078563
   158  H    0.049582
 Sum of Mulliken charges =  -0.00000

 Dipole moment (field-independent basis, Debye):
    X=             -4.9026    Y=              1.9549    Z=              0.7919  Tot=              5.3371
 Quadrupole moment (field-independent basis, Debye-Ang):
   XX=           -720.6873   YY=           -457.2898   ZZ=           -524.9729
   XY=             30.0754   XZ=            228.3893   YZ=              5.8421

 Normal termination of Gaussian 16 at Sun Sep 19 08:15:46 2021.
