 Gaussian 16, Revision A.03,
 Gaussian 16:  ES64L-G16RevA.03 25-Dec-2016

 --------------------------------
 #p wB97XD/Def2SVP td=(nstates=5)
 --------------------------------

 --------------------------------
 TDDFT excited states in gaussian
 --------------------------------
 Symbolic Z-matrix:
 Charge =  0 Multiplicity = 1

                         Standard orientation:
 ---------------------------------------------------------------------
 Center     Atomic      Atomic             Coordinates (Angstroms)
 Number     Number       Type             X           Y           Z
 ---------------------------------------------------------------------
      1         12           0      -21.508099    0.496341   -0.215712
      2          6           0      -17.936368    0.586998   -0.922442
      3          6           0      -21.857574   -1.480984   -3.000964
      4          6           0      -24.278656   -0.793246    1.142004
      5          6           0      -20.993187    2.573435    2.423774
      6          7           0      -19.985524   -0.505366   -1.673573
      7          6           0      -18.572953   -0.249874   -1.805083
      8          6           0      -18.064282   -0.868551   -3.110177
      9          6           0      -19.356831   -1.182313   -3.919939
     10          6           0      -20.523693   -1.052955   -2.844954
     11          6           0      -19.608951   -0.177596   -5.141688
     12          6           0      -17.046333   -1.965777   -2.999534
     13          6           0      -16.893853   -2.662928   -1.627011
     14          1           0      -15.973080   -3.850909   -1.293348
     15          7           0      -22.975650   -0.859541   -0.915186
     16          6           0      -22.914740   -1.581503   -2.086613
     17          6           0      -24.198172   -2.336413   -2.233682
     18          6           0      -24.807222   -2.208432   -0.987950
     19          6           0      -24.027048   -1.309424   -0.140783
     20          6           0      -24.495508   -3.105477   -3.471945
     21          6           0      -26.118361   -2.935929   -0.570414
     22          8           0      -26.599180   -3.735454   -1.353776
     23          6           0      -26.749604   -2.838992    0.778868
     24          7           0      -22.367187    0.772090    1.628454
     25          6           0      -23.617537    0.201641    1.864277
     26          6           0      -24.227586    0.735276    3.160410
     27          6           0      -23.364729    2.018342    3.442343
     28          6           0      -22.222203    1.817240    2.444283
     29          6           0      -25.746916    1.042455    3.191518
     30          6           0      -22.889413    2.217508    4.917291
     31          6           0      -23.624610    3.373301    5.738236
     32          7           0      -19.845805    1.490147    0.581730
     33          6           0      -19.824043    2.386557    1.640288
     34          6           0      -18.523097    3.005741    1.705988
     35          6           0      -17.784037    2.258241    0.779056
     36          6           0      -18.663421    1.368129    0.114480
     37          6           0      -18.139189    4.079261    2.739036
     38          6           0      -16.503666    2.097174    0.161062
     39          8           0      -15.492744    2.783292    0.413428
     40          6           0      -16.540641    1.103856   -1.083570
     41          6           0      -15.435610    0.158038   -0.829674
     42          8           0      -15.209750   -0.448761    0.222604
     43          8           0      -14.794246   -0.010844   -2.011878
     44          6           0      -13.513729   -0.784128   -1.967225
     45          1           0      -21.964048   -2.123651   -3.876836
     46          1           0      -25.193159   -1.213667    1.566160
     47          1           0      -20.890647    3.331709    3.202376
     48          1           0      -17.601507    0.030906   -3.516352
     49          1           0      -19.429595   -2.228702   -4.216907
     50          1           0      -19.481258   -0.815031   -6.015702
     51          1           0      -18.906441    0.653744   -5.078199
     52          1           0      -20.651356    0.130925   -5.054663
     53          1           0      -16.113146   -1.548494   -3.377430
     54          1           0      -17.415545   -2.660343   -3.754839
     55          1           0      -17.906067   -2.969406   -1.361321
     56          1           0      -16.552226   -1.938975   -0.886954
     57          1           0      -24.456699   -4.156163   -3.185934
     58          1           0      -23.743355   -2.850998   -4.218065
     59          1           0      -25.459984   -2.788958   -3.870608
     60          1           0      -26.201340   -3.233480    1.633525
     61          1           0      -27.657477   -3.435761    0.861776
     62          1           0      -26.989410   -1.776172    0.807399
     63          1           0      -23.980949   -0.123501    3.785802
     64          1           0      -23.982985    2.843696    3.088587
     65          1           0      -26.339781    0.258824    3.664342
     66          1           0      -26.126526    1.103548    2.172130
     67          1           0      -25.872580    2.015622    3.667385
     68          1           0      -21.818269    2.391555    5.023310
     69          1           0      -23.046081    1.240769    5.375212
     70          1           0      -23.800695    2.887668    6.697728
     71          1           0      -24.562259    3.721340    5.304632
     72          1           0      -22.962371    4.238166    5.721454
     73          1           0      -17.371042    4.782506    2.416569
     74          1           0      -17.733540    3.456199    3.535384
     75          1           0      -18.985605    4.739085    2.928335
     76          1           0      -16.415202    1.676721   -2.003546
     77          1           0      -13.102332   -0.855651   -2.974666
     78          1           0      -13.678422   -1.799563   -1.606352
     79          1           0      -12.907024   -0.174410   -1.299184
     80         12           0       20.393262   -0.719981    0.090083
     81          6           0       21.572215    2.310255   -0.988482
     82          6           0       17.359363    0.611589    0.560978
     83          6           0       19.450751   -3.698694    1.355822
     84          6           0       23.812494   -1.955567    0.051939
     85          7           0       19.641850    1.364744    0.055668
     86          6           0       20.245688    2.412855   -0.517396
     87          6           0       19.246884    3.679166   -0.584765
     88          6           0       17.921116    3.004570   -0.068779
     89          6           0       18.307312    1.548102    0.258859
     90          6           0       17.231895    3.783099    1.068682
     91          6           0       19.117698    4.302050   -2.003793
     92          6           0       17.930991    5.282584   -2.278007
     93          1           0       18.250823    6.825049   -2.320444
     94          7           0       18.638219   -1.433675    0.905819
     95          6           0       17.490091   -0.789051    0.920992
     96          6           0       16.468321   -1.672999    1.461183
     97          6           0       17.049531   -2.926607    1.818861
     98          6           0       18.440226   -2.728012    1.354868
     99          6           0       15.033952   -1.277938    1.771284
    100          6           0       16.449922   -4.136537    2.527813
    101          8           0       17.167759   -5.007034    3.011522
    102          6           0       14.968683   -4.244823    2.629492
    103          7           0       21.500529   -2.553783    0.669288
    104          6           0       20.866399   -3.632462    1.113302
    105          6           0       21.798548   -4.851473    1.211343
    106          6           0       23.074564   -4.285715    0.593436
    107          6           0       22.778062   -2.838104    0.465997
    108          6           0       21.990333   -5.504132    2.588410
    109          6           0       23.575226   -5.056929   -0.601520
    110          6           0       24.979446   -5.742505   -0.446020
    111          7           0       22.258678   -0.043244   -0.401644
    112          6           0       23.554513   -0.657877   -0.456631
    113          6           0       24.531425    0.234001   -1.041655
    114          6           0       23.736659    1.393049   -1.262917
    115          6           0       22.414830    1.170684   -0.856843
    116          6           0       25.935663    0.010990   -1.480616
    117          6           0       23.835168    2.657312   -1.947643
    118          8           0       24.691440    3.183325   -2.674253
    119          6           0       22.534942    3.387504   -1.721608
    120          6           0       22.789695    4.538300   -0.723282
    121          8           0       23.473231    4.505695    0.311485
    122          8           0       22.111231    5.631159   -1.174823
    123          6           0       22.231692    6.899648   -0.388458
    124          1           0       16.305717    0.887112    0.640945
    125          1           0       19.286166   -4.612029    1.931314
    126          1           0       24.784935   -2.438352   -0.060345
    127          1           0       19.656362    4.369468    0.151846
    128          1           0       17.237581    2.939326   -0.915286
    129          1           0       16.164976    3.784767    0.848233
    130          1           0       17.546014    4.826512    1.097597
    131          1           0       17.424858    3.314550    2.033812
    132          1           0       18.867256    3.465761   -2.656460
    133          1           0       20.030192    4.841172   -2.258106
    134          1           0       17.258820    5.208841   -1.422492
    135          1           0       17.486812    5.031017   -3.240469
    136          1           0       14.840838   -0.239115    1.503690
    137          1           0       14.843749   -1.400982    2.837207
    138          1           0       14.316917   -1.904045    1.241810
    139          1           0       14.601264   -4.066635    1.618483
    140          1           0       14.369560   -3.607634    3.279276
    141          1           0       14.639132   -5.228578    2.962000
    142          1           0       21.395075   -5.626003    0.559999
    143          1           0       23.862741   -4.383285    1.339789
    144          1           0       22.015976   -6.571674    2.371184
    145          1           0       21.205666   -5.188516    3.275850
    146          1           0       22.874052   -5.164208    3.128313
    147          1           0       23.723428   -4.287002   -1.358050
    148          1           0       22.894395   -5.840487   -0.932843
    149          1           0       25.395991   -5.519541    0.536623
    150          1           0       25.636022   -5.305206   -1.198830
    151          1           0       25.005506   -6.810730   -0.661710
    152          1           0       26.178403   -1.050390   -1.436391
    153          1           0       26.550807    0.470508   -0.707820
    154          1           0       25.976974    0.414911   -2.493201
    155          1           0       22.263282    3.758140   -2.710188
    156          1           0       22.110717    6.790495    0.689572
    157          1           0       21.580993    7.704125   -0.729661
    158          1           0       23.267134    7.216531   -0.511960
 ---------------------------------------------------------------------

 SCF Done:  E(RwB97XD) =  -4070.57814668     A.U. after   19 cycles

 Excitation energies and oscillator strengths:

 Excited State   1:      Singlet-A      1.6106 eV  769.80 nm  f=0.3636  <S**2>=0.000
     309 -> 315        0.16148
     312 -> 313        0.68854
     309 <- 315        0.10998
 This state for optimization and/or second-order correction.
 Total Energy, E(TD-HF/TD-DFT) =  -4070.51895788
 Copying the excited state density for this state as the 1-particle RhoCI density.

 Excited State   2:      Singlet-A      1.6637 eV  745.24 nm  f=0.3979  <S**2>=0.000
     310 -> 316       -0.18175
     311 -> 314        0.68159
     310 <- 316       -0.11253

 Excited State   3:      Singlet-A      2.2223 eV  557.91 nm  f=0.1098  <S**2>=0.000
     310 -> 314        0.63688
     311 -> 316        0.28929

 Excited State   4:      Singlet-A      2.2278 eV  556.53 nm  f=0.0761  <S**2>=0.000
     309 -> 313        0.61809
     312 -> 315       -0.32525

 Excited State   5:      Singlet-A      3.4337 eV  361.08 nm  f=0.0044  <S**2>=0.000
     305 -> 314       -0.28789
     305 -> 317        0.17425
     305 -> 321        0.20723
     306 -> 314        0.51200
     306 -> 317       -0.16037
     306 -> 321       -0.14508

 The electronic state is 1-A.
 Alpha  occ. eigenvalues --  -46.95690 -46.95502 -19.30805 -19.30607 -19.24545
 Alpha  occ. eigenvalues --  -19.24391 -19.24363 -19.24175 -19.22710 -19.22132
 Alpha  occ. eigenvalues --  -14.47104 -14.46632 -14.46238 -14.46231 -14.44655
 Alpha  occ. eigenvalues --  -14.44400 -14.43851 -14.43301 -10.43380 -10.43004
 Alpha  occ. eigenvalues --  -10.40046 -10.39557 -10.37564 -10.37322 -10.36098
 Alpha  occ. eigenvalues --  -10.35911 -10.35893 -10.35782 -10.35692 -10.35045
 Alpha  occ. eigenvalues --  -10.35001 -10.34983 -10.34971 -10.34563 -10.34457
 Alpha  occ. eigenvalues --  -10.34405 -10.34319 -10.33996 -10.33949 -10.33310
 Alpha  occ. eigenvalues --  -10.33098 -10.32987 -10.32842 -10.32759 -10.32704
 Alpha  occ. eigenvalues --  -10.32590 -10.32482 -10.32433 -10.32402 -10.32154
 Alpha  occ. eigenvalues --  -10.32127 -10.32095 -10.32001 -10.31920 -10.31888
 Alpha  occ. eigenvalues --  -10.31773 -10.31721 -10.31705 -10.31633 -10.31592
 Alpha  occ. eigenvalues --  -10.31546 -10.31426 -10.31311 -10.31260 -10.31143
 Alpha  occ. eigenvalues --  -10.31021 -10.30935 -10.30854 -10.30831 -10.30735
 Alpha  occ. eigenvalues --  -10.30692 -10.30683 -10.30578 -10.30372 -10.30269
 Alpha  occ. eigenvalues --  -10.30249 -10.30215 -10.30160 -10.30091 -10.30005
 Alpha  occ. eigenvalues --  -10.29929 -10.29904 -10.29515 -10.29480 -10.28401
 Alpha  occ. eigenvalues --  -10.27980  -3.21631  -3.21470  -1.95188  -1.95051
 Alpha  occ. eigenvalues --   -1.94775  -1.94584  -1.94579  -1.94454  -1.18271
 Alpha  occ. eigenvalues --   -1.17693  -1.12985  -1.12583  -1.10157  -1.09677
 Alpha  occ. eigenvalues --   -1.08894  -1.08692  -1.07702  -1.06863  -1.06378
 Alpha  occ. eigenvalues --   -1.06066  -1.05876  -1.04960  -1.04954  -1.02388
 Alpha  occ. eigenvalues --   -0.93917  -0.93208  -0.91749  -0.91294  -0.90918
 Alpha  occ. eigenvalues --   -0.90554  -0.90537  -0.90071  -0.89467  -0.89052
 Alpha  occ. eigenvalues --   -0.88919  -0.88835  -0.88681  -0.88033  -0.86328
 Alpha  occ. eigenvalues --   -0.86076  -0.85634  -0.85193  -0.84699  -0.84293
 Alpha  occ. eigenvalues --   -0.84251  -0.84029  -0.83003  -0.82954  -0.82150
 Alpha  occ. eigenvalues --   -0.81972  -0.80463  -0.80059  -0.79691  -0.79443
 Alpha  occ. eigenvalues --   -0.78636  -0.78458  -0.77982  -0.77957  -0.77255
 Alpha  occ. eigenvalues --   -0.77227  -0.75036  -0.74600  -0.73722  -0.73632
 Alpha  occ. eigenvalues --   -0.71593  -0.71334  -0.71031  -0.71003  -0.69667
 Alpha  occ. eigenvalues --   -0.69602  -0.69545  -0.68955  -0.68174  -0.67743
 Alpha  occ. eigenvalues --   -0.67410  -0.66862  -0.66719  -0.66383  -0.65872
 Alpha  occ. eigenvalues --   -0.65552  -0.64589  -0.64151  -0.62699  -0.61700
 Alpha  occ. eigenvalues --   -0.61590  -0.61152  -0.61064  -0.60838  -0.60586
 Alpha  occ. eigenvalues --   -0.59974  -0.59949  -0.59560  -0.59337  -0.59225
 Alpha  occ. eigenvalues --   -0.58798  -0.58278  -0.58201  -0.57610  -0.57138
 Alpha  occ. eigenvalues --   -0.57050  -0.56562  -0.56434  -0.56218  -0.56031
 Alpha  occ. eigenvalues --   -0.55667  -0.55653  -0.55473  -0.55314  -0.54778
 Alpha  occ. eigenvalues --   -0.54704  -0.54556  -0.54452  -0.54281  -0.54085
 Alpha  occ. eigenvalues --   -0.53774  -0.53592  -0.53411  -0.53180  -0.53094
 Alpha  occ. eigenvalues --   -0.53023  -0.53016  -0.52617  -0.52615  -0.52418
 Alpha  occ. eigenvalues --   -0.51928  -0.51828  -0.51701  -0.51583  -0.51569
 Alpha  occ. eigenvalues --   -0.51568  -0.51244  -0.50961  -0.50874  -0.50851
 Alpha  occ. eigenvalues --   -0.50752  -0.50446  -0.50301  -0.50105  -0.50094
 Alpha  occ. eigenvalues --   -0.49733  -0.49725  -0.49596  -0.49586  -0.49205
 Alpha  occ. eigenvalues --   -0.49154  -0.48894  -0.48817  -0.48703  -0.48514
 Alpha  occ. eigenvalues --   -0.48290  -0.48185  -0.48042  -0.47848  -0.47696
 Alpha  occ. eigenvalues --   -0.47450  -0.47151  -0.46929  -0.46879  -0.46644
 Alpha  occ. eigenvalues --   -0.46402  -0.46365  -0.46297  -0.46028  -0.45970
 Alpha  occ. eigenvalues --   -0.45903  -0.45882  -0.45742  -0.45504  -0.45437
 Alpha  occ. eigenvalues --   -0.45345  -0.44902  -0.44809  -0.44691  -0.44682
 Alpha  occ. eigenvalues --   -0.44523  -0.44269  -0.44141  -0.44097  -0.43947
 Alpha  occ. eigenvalues --   -0.43942  -0.43864  -0.43726  -0.43719  -0.43420
 Alpha  occ. eigenvalues --   -0.43070  -0.42992  -0.42819  -0.42690  -0.42317
 Alpha  occ. eigenvalues --   -0.41858  -0.41284  -0.41158  -0.41028  -0.40957
 Alpha  occ. eigenvalues --   -0.40486  -0.40150  -0.39752  -0.39391  -0.39274
 Alpha  occ. eigenvalues --   -0.39148  -0.38652  -0.38605  -0.38322  -0.38175
 Alpha  occ. eigenvalues --   -0.37854  -0.37839  -0.36356  -0.36239  -0.35962
 Alpha  occ. eigenvalues --   -0.35850  -0.35539  -0.34958  -0.33891  -0.33781
 Alpha  occ. eigenvalues --   -0.33300  -0.33200  -0.32758  -0.32357  -0.31924
 Alpha  occ. eigenvalues --   -0.31786  -0.31581  -0.31188  -0.26434  -0.25807
 Alpha  occ. eigenvalues --   -0.22888  -0.22615
 Alpha virt. eigenvalues --   -0.06956  -0.06871   0.00094   0.00184   0.02657
 Alpha virt. eigenvalues --    0.03111   0.04437   0.04603   0.04644   0.05101
 Alpha virt. eigenvalues --    0.07038   0.07511   0.07738   0.07858   0.08782

 Mulliken charges:
               1
     1  Mg   0.954255
     2  C   -0.033165
     3  C   -0.082951
     4  C   -0.079693
     5  C   -0.082981
     6  N   -0.368355
     7  C   -0.053370
     8  C   -0.005115
     9  C   -0.142317
    10  C    0.044472
    11  C    0.037060
    12  C    0.030711
    13  C   -0.102158
    14  H    0.037206
    15  N   -0.470974
    16  C    0.144956
    17  C   -0.159823
    18  C   -0.079470
    19  C    0.169567
    20  C    0.104759
    21  C    0.036136
    22  O   -0.227541
    23  C    0.001977
    24  N   -0.386325
    25  C    0.091571
    26  C   -0.126944
    27  C   -0.015462
    28  C    0.025842
    29  C    0.031675
    30  C   -0.022281
    31  C   -0.061797
    32  N   -0.378289
    33  C    0.092372
    34  C   -0.180580
    35  C   -0.010801
    36  C    0.119153
    37  C    0.073201
    38  C    0.083797
    39  O   -0.250637
    40  C   -0.041246
    41  C    0.265173
    42  O   -0.260797
    43  O   -0.368571
    44  C    0.138662
    45  H    0.004110
    46  H   -0.041742
    47  H   -0.008994
    48  H    0.025744
    49  H    0.040000
    50  H    0.048691
    51  H    0.050467
    52  H    0.040849
    53  H    0.031463
    54  H    0.017643
    55  H    0.047141
    56  H    0.072030
    57  H    0.073577
    58  H    0.022223
    59  H    0.060983
    60  H    0.076690
    61  H    0.048928
    62  H    0.056626
    63  H    0.052213
    64  H    0.031528
    65  H    0.041529
    66  H    0.036532
    67  H    0.042407
    68  H    0.044450
    69  H    0.024546
    70  H    0.051181
    71  H    0.034969
    72  H    0.047428
    73  H    0.051599
    74  H    0.071734
    75  H    0.038791
    76  H    0.074307
    77  H    0.059670
    78  H    0.067127
    79  H    0.072658
    80  Mg   0.970419
    81  C   -0.074873
    82  C   -0.078779
    83  C   -0.049515
    84  C   -0.066301
    85  N   -0.355627
    86  C   -0.026141
    87  C   -0.008686
    88  C   -0.153649
    89  C    0.119975
    90  C    0.024372
    91  C   -0.009662
    92  C   -0.131328
    93  H    0.015009
    94  N   -0.438369
    95  C    0.116770
    96  C   -0.187139
    97  C   -0.059124
    98  C    0.131000
    99  C    0.069879
   100  C    0.087786
   101  O   -0.227317
   102  C   -0.033477
   103  N   -0.274110
   104  C   -0.007222
   105  C   -0.114794
   106  C   -0.055386
   107  C    0.009561
   108  C    0.036087
   109  C    0.000461
   110  C   -0.068101
   111  N   -0.456963
   112  C    0.123362
   113  C   -0.170451
   114  C   -0.076995
   115  C    0.206154
   116  C    0.109168
   117  C    0.102726
   118  O   -0.239470
   119  C   -0.055715
   120  C    0.293628
   121  O   -0.266035
   122  O   -0.365205
   123  C    0.138557
   124  H   -0.019803
   125  H    0.029552
   126  H    0.004038
   127  H    0.040428
   128  H    0.037148
   129  H    0.034064
   130  H    0.041472
   131  H    0.049665
   132  H    0.031923
   133  H    0.073398
   134  H    0.048370
   135  H    0.065646
   136  H    0.031774
   137  H    0.051468
   138  H    0.041216
   139  H    0.048823
   140  H    0.063275
   141  H    0.052502
   142  H    0.038859
   143  H    0.021312
   144  H    0.046511
   145  H    0.044307
   146  H    0.029763
   147  H    0.030490
   148  H    0.036909
   149  H    0.033083
   150  H    0.033408
   151  H    0.041947
   152  H    0.019287
   153  H    0.065390
   154  H    0.081058
   155  H    0.069623
   156  H    0.058575
   157  H    0.063591
   158  H    0.056449
 Sum of Mulliken charges =  -0.00000

 Dipole moment (field-independent basis, Debye):
    X=             -9.2916    Y=             -0.3736    Z=             -1.4154  Tot=              9.4062
 Quadrupole moment (field-independent basis, Debye-Ang):
   XX=           -535.3170   YY=           -505.8552   ZZ=           -495.3460
   XY=           -111.2762   XZ=            -12.8720   YZ=             18.0818

 Normal termination of Gaussian 16 at Sat Sep 18 15:05:38 2021.
