 Gaussian 16, Revision A.03,
 Gaussian 16:  ES64L-G16RevA.03 25-Dec-2016

 --------------------------------
 #p wB97XD/Def2SVP td=(nstates=5)
 --------------------------------

 --------------------------------
 TDDFT excited states in gaussian
 --------------------------------
 Symbolic Z-matrix:
 Charge =  0 Multiplicity = 1

                         Standard orientation:
 ---------------------------------------------------------------------
 Center     Atomic      Atomic             Coordinates (Angstroms)
 Number     Number       Type             X           Y           Z
 ---------------------------------------------------------------------
      1         12           0       -0.735716   -0.057329   -0.226342
      2          6           0        2.757139   -0.009276    0.125706
      3          6           0       -0.642444   -3.425182    0.210915
      4          6           0       -4.000645    0.109830   -0.133139
      5          6           0       -0.539237    3.512707    0.201030
      6          7           0        0.875068   -1.506200    0.053885
      7          6           0        2.215139   -1.276128    0.188460
      8          6           0        2.873960   -2.564787    0.702910
      9          6           0        1.922876   -3.633872    0.176423
     10          6           0        0.618864   -2.815934    0.243281
     11          6           0        2.250816   -4.071940   -1.269671
     12          6           0        2.973258   -2.572075    2.273248
     13          6           0        4.431335   -2.514939    2.946999
     14          1           0        4.787316   -1.328174    3.858555
     15          7           0       -2.131658   -1.452313    0.063757
     16          6           0       -1.901649   -2.801663    0.203991
     17          6           0       -3.164034   -3.472214    0.190464
     18          6           0       -4.205480   -2.511193   -0.030013
     19          6           0       -3.487502   -1.203711   -0.038721
     20          6           0       -3.316140   -5.023639    0.351243
     21          6           0       -5.724712   -2.861311   -0.229869
     22          8           0       -6.071456   -4.000218   -0.298840
     23          6           0       -6.636746   -1.788018   -0.606094
     24          7           0       -2.085312    1.562723    0.320576
     25          6           0       -3.353570    1.359803   -0.108764
     26          6           0       -4.062987    2.642573   -0.508958
     27          6           0       -3.100741    3.727958   -0.051092
     28          6           0       -1.797235    2.889344    0.187739
     29          6           0       -4.360331    2.723893   -2.051956
     30          6           0       -3.478903    4.638600    1.210208
     31          6           0       -3.873530    6.083446    1.060999
     32          7           0        0.744636    1.469430   -0.110275
     33          6           0        0.685370    2.858775    0.058452
     34          6           0        2.005156    3.438040    0.185877
     35          6           0        2.838552    2.346607    0.187744
     36          6           0        2.064027    1.150014    0.032583
     37          6           0        2.297873    4.869922    0.361792
     38          6           0        4.232385    1.940842    0.284091
     39          8           0        5.254247    2.636536    0.334532
     40          6           0        4.245936    0.433603    0.139658
     41          6           0        5.044148    0.106974   -1.117806
     42          8           0        4.705703    0.550969   -2.212568
     43          8           0        6.212852   -0.609602   -0.816813
     44          6           0        7.033146   -0.922405   -1.956369
     45          1           0       -0.563214   -4.513920    0.196776
     46          1           0       -5.052389    0.099767   -0.423330
     47          1           0       -0.484012    4.603361    0.217998
     48          1           0        3.905981   -2.549841    0.351575
     49          1           0        1.960182   -4.483111    0.857561
     50          1           0        2.250017   -5.150431   -1.115598
     51          1           0        3.238473   -3.653961   -1.466441
     52          1           0        1.553959   -3.762026   -2.048509
     53          1           0        2.539600   -3.510531    2.618488
     54          1           0        2.319633   -1.784985    2.648397
     55          1           0        5.127861   -2.429733    2.112573
     56          1           0        4.720382   -3.418453    3.482528
     57          1           0       -4.033196   -5.394274    1.083093
     58          1           0       -2.326613   -5.386186    0.631523
     59          1           0       -3.577993   -5.519559   -0.583593
     60          1           0       -6.678710   -0.962854    0.105184
     61          1           0       -7.635723   -2.209922   -0.715959
     62          1           0       -6.453847   -1.484469   -1.635961
     63          1           0       -5.050464    2.734425   -0.055451
     64          1           0       -2.865963    4.397804   -0.878325
     65          1           0       -5.381942    2.445184   -2.309716
     66          1           0       -3.587721    2.185125   -2.600482
     67          1           0       -4.249358    3.769698   -2.342024
     68          1           0       -2.850238    4.571750    2.097481
     69          1           0       -4.382485    4.084304    1.465365
     70          1           0       -4.912690    6.279619    1.323230
     71          1           0       -3.740757    6.392348    0.023871
     72          1           0       -3.189006    6.618123    1.719119
     73          1           0        1.421893    5.333769    0.816045
     74          1           0        2.402237    5.271049   -0.646727
     75          1           0        3.229012    5.022786    0.905502
     76          1           0        4.800608    0.119371    1.022759
     77          1           0        6.665314   -1.746588   -2.568118
     78          1           0        8.048198   -1.184543   -1.659278
     79          1           0        7.179793   -0.091791   -2.646255
 ---------------------------------------------------------------------

 SCF Done:  E(RwB97XD) =  -2035.30823881     A.U. after   20 cycles

 Excitation energies and oscillator strengths:

 Excited State   1:      Singlet-A      1.6667 eV  743.88 nm  f=0.3603  <S**2>=0.000
     155 ->158         0.19759
     156 ->157         0.68093
     155 <-158         0.12067
 This state for optimization and/or second-order correction.
 Total Energy, E(TD-HF/TD-DFT) =  -2035.24698784
 Copying the excited state density for this state as the 1-particle RhoCI density.

 Excited State   2:      Singlet-A      2.2261 eV  556.97 nm  f=0.0510  <S**2>=0.000
     155 ->157         0.60363
     156 ->158        -0.35676

 Excited State   3:      Singlet-A      3.4375 eV  360.68 nm  f=0.5257  <S**2>=0.000
     152 ->157        -0.14722
     153 ->157         0.27345
     155 ->157         0.28722
     156 ->158         0.55188
     155 <-157        -0.10582

 Excited State   4:      Singlet-A      3.5065 eV  353.58 nm  f=0.0019  <S**2>=0.000
     152 ->157        -0.12837
     152 ->159         0.12386
     153 ->157        -0.28369
     154 ->157         0.59305

 Excited State   5:      Singlet-A      3.5273 eV  351.49 nm  f=0.0073  <S**2>=0.000
     152 ->157         0.49051
     152 ->159        -0.33113
     152 ->160        -0.16518
     153 ->157         0.12287
     154 ->157         0.26611

 The electronic state is 1-A.
 Alpha  occ. eigenvalues --  -46.95036 -19.31294 -19.25561 -19.24072 -19.23860
 Alpha  occ. eigenvalues --  -14.46736 -14.46683 -14.43995 -14.43977 -10.44158
 Alpha  occ. eigenvalues --  -10.38984 -10.38618 -10.35262 -10.35177 -10.35145
 Alpha  occ. eigenvalues --  -10.34877 -10.34699 -10.34575 -10.33841 -10.33549
 Alpha  occ. eigenvalues --  -10.33288 -10.32631 -10.32496 -10.32203 -10.32151
 Alpha  occ. eigenvalues --  -10.31951 -10.31949 -10.31947 -10.31924 -10.31662
 Alpha  occ. eigenvalues --  -10.31221 -10.31030 -10.30945 -10.30940 -10.30911
 Alpha  occ. eigenvalues --  -10.30736 -10.30368 -10.30128 -10.30091 -10.29865
 Alpha  occ. eigenvalues --  -10.29503 -10.29430 -10.29207  -3.21081  -1.94647
 Alpha  occ. eigenvalues --   -1.94220  -1.94050  -1.18175  -1.14108  -1.11361
 Alpha  occ. eigenvalues --   -1.10471  -1.06787  -1.06284  -1.04917  -1.04116
 Alpha  occ. eigenvalues --   -0.95062  -0.91017  -0.90851  -0.90461  -0.89578
 Alpha  occ. eigenvalues --   -0.89057  -0.86940  -0.86508  -0.86149  -0.84470
 Alpha  occ. eigenvalues --   -0.84450  -0.83014  -0.82832  -0.79954  -0.79182
 Alpha  occ. eigenvalues --   -0.78345  -0.78226  -0.77049  -0.74883  -0.74117
 Alpha  occ. eigenvalues --   -0.70958  -0.70603  -0.70110  -0.68761  -0.67797
 Alpha  occ. eigenvalues --   -0.67568  -0.66870  -0.66479  -0.64732  -0.62215
 Alpha  occ. eigenvalues --   -0.62057  -0.61111  -0.60886  -0.60491  -0.59714
 Alpha  occ. eigenvalues --   -0.58223  -0.58070  -0.57256  -0.56897  -0.55926
 Alpha  occ. eigenvalues --   -0.55485  -0.55109  -0.54946  -0.54722  -0.54623
 Alpha  occ. eigenvalues --   -0.54133  -0.53734  -0.52960  -0.52820  -0.52390
 Alpha  occ. eigenvalues --   -0.52098  -0.51742  -0.51586  -0.51260  -0.51048
 Alpha  occ. eigenvalues --   -0.50617  -0.50267  -0.50024  -0.49445  -0.49038
 Alpha  occ. eigenvalues --   -0.48524  -0.48315  -0.48215  -0.48046  -0.47903
 Alpha  occ. eigenvalues --   -0.47380  -0.47289  -0.46392  -0.46249  -0.46102
 Alpha  occ. eigenvalues --   -0.45801  -0.45536  -0.45270  -0.45038  -0.44544
 Alpha  occ. eigenvalues --   -0.44386  -0.44095  -0.43893  -0.43656  -0.43532
 Alpha  occ. eigenvalues --   -0.43007  -0.42766  -0.42610  -0.42296  -0.41960
 Alpha  occ. eigenvalues --   -0.40902  -0.39946  -0.39476  -0.39175  -0.38627
 Alpha  occ. eigenvalues --   -0.38593  -0.36838  -0.36723  -0.35745  -0.33558
 Alpha  occ. eigenvalues --   -0.33203  -0.32953  -0.32330  -0.31825  -0.26327
 Alpha  occ. eigenvalues --   -0.22808
 Alpha virt. eigenvalues --   -0.06662  -0.00337   0.02584   0.04598   0.05186
 Alpha virt. eigenvalues --    0.06358   0.07471   0.08494   0.09808   0.10682
 Alpha virt. eigenvalues --    0.11139   0.11959   0.12882   0.13277   0.13693

 Mulliken charges:
               1
     1  Mg   0.956813
     2  C   -0.054848
     3  C   -0.098092
     4  C   -0.052996
     5  C   -0.094240
     6  N   -0.331798
     7  C   -0.023674
     8  C   -0.114986
     9  C   -0.115677
    10  C    0.039109
    11  C    0.060831
    12  C    0.025476
    13  C   -0.134587
    14  H    0.044841
    15  N   -0.518494
    16  C    0.210384
    17  C   -0.172920
    18  C   -0.106170
    19  C    0.151449
    20  C    0.083449
    21  C    0.062066
    22  O   -0.196874
    23  C   -0.021464
    24  N   -0.326834
    25  C    0.062285
    26  C   -0.102099
    27  C   -0.070006
    28  C    0.069808
    29  C    0.021110
    30  C   -0.022396
    31  C   -0.034779
    32  N   -0.428783
    33  C    0.127687
    34  C   -0.206651
    35  C   -0.016912
    36  C    0.192854
    37  C    0.097466
    38  C    0.099137
    39  O   -0.220861
    40  C   -0.022031
    41  C    0.288751
    42  O   -0.244357
    43  O   -0.362514
    44  C    0.139814
    45  H    0.001614
    46  H   -0.029251
    47  H   -0.001574
    48  H    0.017291
    49  H    0.023675
    50  H    0.042912
    51  H    0.038781
    52  H    0.055135
    53  H    0.032695
    54  H    0.055656
    55  H    0.047916
    56  H    0.058766
    57  H    0.056023
    58  H    0.011806
    59  H    0.051541
    60  H    0.070912
    61  H    0.042018
    62  H    0.069559
    63  H    0.033437
    64  H    0.024323
    65  H    0.046125
    66  H    0.041572
    67  H    0.029652
    68  H    0.043973
    69  H    0.016336
    70  H    0.044042
    71  H    0.026342
    72  H    0.041570
    73  H    0.036674
    74  H    0.058304
    75  H    0.066035
    76  H    0.061053
    77  H    0.042326
    78  H    0.050436
    79  H    0.054038
 Sum of Mulliken charges =  -0.00000

 Dipole moment (field-independent basis, Debye):
    X=             -1.9649    Y=              0.3820    Z=             -1.0068  Tot=              2.2406
 Quadrupole moment (field-independent basis, Debye-Ang):
   XX=           -259.8881   YY=           -243.7813   ZZ=           -257.3632
   XY=            -49.1827   XZ=              2.4410   YZ=              0.5670

 Normal termination of Gaussian 16 at Mon Sep 20 18:11:12 2021.
