 Gaussian 16, Revision A.03,
 Gaussian 16:  ES64L-G16RevA.03 25-Dec-2016

 --------------------------------
 #p wB97XD/Def2SVP td=(nstates=5)
 --------------------------------

 --------------------------------
 TDDFT excited states in gaussian
 --------------------------------
 Symbolic Z-matrix:
 Charge =  0 Multiplicity = 1

                         Standard orientation:
 ---------------------------------------------------------------------
 Center     Atomic      Atomic             Coordinates (Angstroms)
 Number     Number       Type             X           Y           Z
 ---------------------------------------------------------------------
      1         12           0      -22.021625   -0.623167   -0.364637
      2          6           0      -21.675481    2.180858    1.697712
      3          6           0      -22.567937    1.318769   -2.953106
      4          6           0      -23.088121   -3.363128   -2.141995
      5          6           0      -21.944794   -2.690053    2.496760
      6          7           0      -22.000448    1.474644   -0.564814
      7          6           0      -21.781141    2.476299    0.355139
      8          6           0      -21.653846    3.839406   -0.312654
      9          6           0      -22.171182    3.530384   -1.754182
     10          6           0      -22.148489    2.042199   -1.800723
     11          6           0      -23.453015    4.169393   -2.243148
     12          6           0      -20.235752    4.487719   -0.218111
     13          6           0      -20.106588    5.871629   -0.863774
     14          1           0      -19.510294    6.963870    0.011977
     15          7           0      -22.825866   -0.973720   -2.365069
     16          6           0      -22.824884   -0.022843   -3.322435
     17          6           0      -23.193741   -0.615850   -4.577922
     18          6           0      -23.456491   -1.974113   -4.329715
     19          6           0      -23.133793   -2.145884   -2.887071
     20          6           0      -23.323731    0.159842   -5.871743
     21          6           0      -23.850570   -3.060454   -5.276037
     22          8           0      -24.209005   -4.227241   -4.963003
     23          6           0      -23.799017   -2.820510   -6.779947
     24          7           0      -22.471556   -2.677755    0.115761
     25          6           0      -22.954780   -3.569723   -0.780082
     26          6           0      -22.953225   -5.053840   -0.123789
     27          6           0      -22.135949   -4.824010    1.195765
     28          6           0      -22.100315   -3.331751    1.279822
     29          6           0      -24.445183   -5.527232    0.081855
     30          6           0      -20.648865   -5.304972    1.023215
     31          6           0      -19.839311   -4.810993   -0.165635
     32          7           0      -21.783285   -0.358161    1.749012
     33          6           0      -21.775634   -1.308984    2.732349
     34          6           0      -21.580766   -0.646082    3.937282
     35          6           0      -21.547089    0.752006    3.665748
     36          6           0      -21.676791    0.878664    2.307681
     37          6           0      -21.535218   -1.203604    5.316203
     38          6           0      -21.444932    2.125943    4.207823
     39          8           0      -21.372624    2.582493    5.343025
     40          6           0      -21.424383    3.107368    2.911326
     41          6           0      -22.338893    4.262118    3.116273
     42          8           0      -23.444627    4.208981    3.732282
     43          8           0      -21.696723    5.342595    2.693212
     44          6           0      -22.219176    6.587001    3.224409
     45          1           0      -22.643782    1.909678   -3.868404
     46          1           0      -23.390898   -4.251355   -2.701607
     47          1           0      -21.796825   -3.367814    3.338943
     48          1           0      -22.282072    4.489854    0.296206
     49          1           0      -21.461293    3.816829   -2.530899
     50          1           0      -23.792960    5.059001   -1.712962
     51          1           0      -24.243763    3.418755   -2.252157
     52          1           0      -23.353536    4.291403   -3.321902
     53          1           0      -19.493980    3.808185   -0.638551
     54          1           0      -19.957743    4.578846    0.831384
     55          1           0      -21.073110    6.371197   -0.927425
     56          1           0      -19.618610    5.811144   -1.837011
     57          1           0      -23.238304    1.241473   -5.768114
     58          1           0      -24.307152    0.138996   -6.340736
     59          1           0      -22.604118   -0.142314   -6.633259
     60          1           0      -24.586629   -2.110623   -7.031063
     61          1           0      -24.164649   -3.679031   -7.342833
     62          1           0      -22.802133   -2.566045   -7.141721
     63          1           0      -22.492245   -5.758340   -0.816107
     64          1           0      -22.750007   -5.259829    1.983835
     65          1           0      -25.172928   -4.917881   -0.454324
     66          1           0      -24.781249   -5.505573    1.118657
     67          1           0      -24.642589   -6.526023   -0.304778
     68          1           0      -20.826008   -6.379056    0.966917
     69          1           0      -20.009622   -5.127358    1.887512
     70          1           0      -20.493133   -4.319314   -0.886280
     71          1           0      -19.185144   -5.539367   -0.643608
     72          1           0      -19.129682   -4.130541    0.305083
     73          1           0      -20.806455   -2.002779    5.453877
     74          1           0      -22.520783   -1.640578    5.474255
     75          1           0      -21.382110   -0.435545    6.073628
     76          1           0      -20.402838    3.486314    2.894569
     77          1           0      -21.397691    7.239150    3.523627
     78          1           0      -22.845377    6.508118    4.112767
     79          1           0      -22.765782    7.054041    2.404494
     80         12           0       21.672863   -0.736865    0.185595
     81          6           0       23.182109    1.907392   -1.740249
     82          6           0       19.903248    1.544206    1.865169
     83          6           0       21.031037   -3.121961    2.450573
     84          6           0       23.950879   -2.912844   -1.357137
     85          7           0       21.613194    1.435809    0.097651
     86          6           0       22.145199    2.305772   -0.869316
     87          6           0       21.528366    3.750835   -0.743346
     88          6           0       20.545148    3.592333    0.455706
     89          6           0       20.642909    2.083193    0.804035
     90          6           0       20.778048    4.466076    1.662077
     91          6           0       20.865950    4.273538   -2.127983
     92          6           0       21.353139    5.646093   -2.608492
     93          1           0       20.204548    6.708644   -2.779022
     94          7           0       20.491951   -0.813681    1.854558
     95          6           0       19.842789    0.214681    2.409758
     96          6           0       19.128286   -0.190018    3.621699
     97          6           0       19.551988   -1.548038    3.829541
     98          6           0       20.415002   -1.895233    2.695632
     99          6           0       18.250172    0.708539    4.381792
    100          6           0       19.202098   -2.380494    5.102888
    101          8           0       19.523402   -3.551429    5.217849
    102          6           0       18.432192   -1.815124    6.253530
    103          7           0       22.375101   -2.665899    0.472197
    104          6           0       21.845199   -3.515969    1.436960
    105          6           0       22.438273   -4.956822    1.301359
    106          6           0       23.090001   -4.930732   -0.131435
    107          6           0       23.102315   -3.426192   -0.400826
    108          6           0       23.322236   -5.495828    2.472894
    109          6           0       22.278054   -5.693596   -1.213774
    110          6           0       23.025636   -6.501355   -2.244483
    111          7           0       23.286492   -0.567864   -1.215304
    112          6           0       24.101322   -1.535574   -1.730623
    113          6           0       24.953313   -0.915675   -2.837268
    114          6           0       24.588889    0.407299   -2.905561
    115          6           0       23.625360    0.589248   -1.854956
    116          6           0       25.889876   -1.729943   -3.700555
    117          6           0       24.803232    1.694822   -3.541831
    118          8           0       25.608429    1.887778   -4.476672
    119          6           0       23.924211    2.810249   -2.715351
    120          6           0       24.746224    3.830610   -1.955940
    121          8           0       25.622920    3.469794   -1.145959
    122          8           0       24.528159    5.134036   -2.404208
    123          6           0       25.589866    6.045248   -1.993076
    124          1           0       19.215829    2.217334    2.381300
    125          1           0       20.717425   -3.854348    3.196926
    126          1           0       24.541559   -3.671612   -1.875554
    127          1           0       22.404276    4.359118   -0.518650
    128          1           0       19.600020    3.994865    0.088698
    129          1           0       21.663292    5.095768    1.572008
    130          1           0       21.061751    3.698694    2.381515
    131          1           0       19.936570    5.121201    1.889531
    132          1           0       19.800885    4.271390   -1.897859
    133          1           0       20.983664    3.502731   -2.889164
    134          1           0       21.921758    5.471118   -3.521812
    135          1           0       22.038931    6.060781   -1.868586
    136          1           0       18.430517    0.882570    5.442128
    137          1           0       17.317795    0.153544    4.479054
    138          1           0       17.932195    1.609495    3.856673
    139          1           0       17.465703   -1.533116    5.834113
    140          1           0       18.937700   -0.892726    6.540807
    141          1           0       18.423732   -2.596013    7.012921
    142          1           0       21.554431   -5.593612    1.262872
    143          1           0       24.136928   -5.233173   -0.127029
    144          1           0       23.225460   -4.736854    3.248895
    145          1           0       24.351900   -5.716355    2.192812
    146          1           0       22.872004   -6.359995    2.962936
    147          1           0       21.792100   -4.828223   -1.664006
    148          1           0       21.485697   -6.333736   -0.825303
    149          1           0       22.466448   -7.431413   -2.347140
    150          1           0       24.034672   -6.769432   -1.929644
    151          1           0       22.877472   -5.983373   -3.192349
    152          1           0       25.843161   -2.758106   -3.342131
    153          1           0       26.907570   -1.391644   -3.507022
    154          1           0       25.636700   -1.586353   -4.750782
    155          1           0       23.226645    3.277780   -3.410279
    156          1           0       26.229097    6.408693   -2.796485
    157          1           0       26.241061    5.648428   -1.214113
    158          1           0       25.091711    6.909302   -1.554107
 ---------------------------------------------------------------------

 SCF Done:  E(RwB97XD) =  -4070.60841499     A.U. after   19 cycles

 Excitation energies and oscillator strengths:

 Excited State   1:      Singlet-A      1.6412 eV  755.47 nm  f=0.4059  <S**2>=0.000
     309 -> 315       -0.17861
     312 -> 314        0.68576
     309 <- 315       -0.11671
 This state for optimization and/or second-order correction.
 Total Energy, E(TD-HF/TD-DFT) =  -4070.54810354
 Copying the excited state density for this state as the 1-particle RhoCI density.

 Excited State   2:      Singlet-A      1.6681 eV  743.29 nm  f=0.3992  <S**2>=0.000
     310 -> 316        0.17123
     311 -> 313        0.68663
     310 <- 316        0.11159

 Excited State   3:      Singlet-A      2.0911 eV  592.91 nm  f=0.1647  <S**2>=0.000
     310 -> 313        0.66095
     311 -> 316       -0.23074

 Excited State   4:      Singlet-A      2.2310 eV  555.73 nm  f=0.0893  <S**2>=0.000
     309 -> 314        0.62833
     312 -> 315        0.31484

 Excited State   5:      Singlet-A      3.0725 eV  403.53 nm  f=0.0090  <S**2>=0.000
     308 -> 313        0.67869

 The electronic state is 1-A.
 Alpha  occ. eigenvalues --  -46.95748 -46.94762 -19.31956 -19.31881 -19.25841
 Alpha  occ. eigenvalues --  -19.25087 -19.24252 -19.24047 -19.23545 -19.23487
 Alpha  occ. eigenvalues --  -14.47544 -14.47204 -14.46449 -14.46271 -14.44394
 Alpha  occ. eigenvalues --  -14.44326 -14.43950 -14.42620 -10.44740 -10.43097
 Alpha  occ. eigenvalues --  -10.40631 -10.39833 -10.38875 -10.38855 -10.36232
 Alpha  occ. eigenvalues --  -10.35765 -10.35689 -10.35504 -10.35198 -10.35036
 Alpha  occ. eigenvalues --  -10.34980 -10.34907 -10.34774 -10.34757 -10.34378
 Alpha  occ. eigenvalues --  -10.34135 -10.34085 -10.34060 -10.34032 -10.33786
 Alpha  occ. eigenvalues --  -10.33500 -10.33250 -10.33205 -10.33079 -10.33037
 Alpha  occ. eigenvalues --  -10.32666 -10.32624 -10.32412 -10.32386 -10.32383
 Alpha  occ. eigenvalues --  -10.32381 -10.32358 -10.32199 -10.32168 -10.31920
 Alpha  occ. eigenvalues --  -10.31849 -10.31838 -10.31827 -10.31826 -10.31760
 Alpha  occ. eigenvalues --  -10.31521 -10.31436 -10.31311 -10.31287 -10.31057
 Alpha  occ. eigenvalues --  -10.31030 -10.31014 -10.30569 -10.30529 -10.30475
 Alpha  occ. eigenvalues --  -10.30445 -10.30410 -10.30247 -10.30073 -10.30069
 Alpha  occ. eigenvalues --  -10.30012 -10.29859 -10.29840 -10.29558 -10.29381
 Alpha  occ. eigenvalues --  -10.29359 -10.29274 -10.29258 -10.29223 -10.28730
 Alpha  occ. eigenvalues --  -10.28289  -3.21594  -3.20836  -1.95188  -1.94685
 Alpha  occ. eigenvalues --   -1.94573  -1.94408  -1.93945  -1.93837  -1.20312
 Alpha  occ. eigenvalues --   -1.18551  -1.12303  -1.11364  -1.11017  -1.10673
 Alpha  occ. eigenvalues --   -1.10192  -1.08123  -1.07535  -1.06413  -1.05946
 Alpha  occ. eigenvalues --   -1.05350  -1.05350  -1.04655  -1.04492  -1.03931
 Alpha  occ. eigenvalues --   -0.94657  -0.93816  -0.91517  -0.91224  -0.91015
 Alpha  occ. eigenvalues --   -0.90626  -0.90376  -0.90000  -0.89941  -0.89307
 Alpha  occ. eigenvalues --   -0.89156  -0.89086  -0.88098  -0.87618  -0.86743
 Alpha  occ. eigenvalues --   -0.86214  -0.85698  -0.85576  -0.84797  -0.84639
 Alpha  occ. eigenvalues --   -0.83852  -0.83843  -0.83327  -0.83185  -0.82663
 Alpha  occ. eigenvalues --   -0.82215  -0.80907  -0.80401  -0.79557  -0.79526
 Alpha  occ. eigenvalues --   -0.79286  -0.78896  -0.78164  -0.78086  -0.77211
 Alpha  occ. eigenvalues --   -0.76671  -0.74745  -0.74478  -0.73742  -0.72969
 Alpha  occ. eigenvalues --   -0.71910  -0.71116  -0.71033  -0.70386  -0.70354
 Alpha  occ. eigenvalues --   -0.69858  -0.69715  -0.68699  -0.67490  -0.67284
 Alpha  occ. eigenvalues --   -0.67228  -0.66962  -0.66920  -0.66704  -0.66537
 Alpha  occ. eigenvalues --   -0.66381  -0.64728  -0.64616  -0.63103  -0.62272
 Alpha  occ. eigenvalues --   -0.61772  -0.61770  -0.61251  -0.60909  -0.60564
 Alpha  occ. eigenvalues --   -0.60523  -0.60364  -0.59541  -0.59338  -0.59270
 Alpha  occ. eigenvalues --   -0.58271  -0.58250  -0.57985  -0.57751  -0.57428
 Alpha  occ. eigenvalues --   -0.57406  -0.57315  -0.57074  -0.56874  -0.56367
 Alpha  occ. eigenvalues --   -0.55726  -0.55466  -0.55272  -0.55135  -0.55129
 Alpha  occ. eigenvalues --   -0.54929  -0.54560  -0.54496  -0.54376  -0.53780
 Alpha  occ. eigenvalues --   -0.53674  -0.53567  -0.53543  -0.53467  -0.53203
 Alpha  occ. eigenvalues --   -0.53084  -0.52941  -0.52795  -0.52547  -0.52448
 Alpha  occ. eigenvalues --   -0.52203  -0.52064  -0.51581  -0.51557  -0.51360
 Alpha  occ. eigenvalues --   -0.51102  -0.51088  -0.50847  -0.50747  -0.50590
 Alpha  occ. eigenvalues --   -0.50522  -0.50476  -0.50288  -0.50280  -0.50099
 Alpha  occ. eigenvalues --   -0.50045  -0.49888  -0.49245  -0.49204  -0.49162
 Alpha  occ. eigenvalues --   -0.48947  -0.48721  -0.48705  -0.48474  -0.48447
 Alpha  occ. eigenvalues --   -0.48314  -0.47977  -0.47910  -0.47907  -0.47794
 Alpha  occ. eigenvalues --   -0.47619  -0.47390  -0.47342  -0.47110  -0.46648
 Alpha  occ. eigenvalues --   -0.46523  -0.46380  -0.46340  -0.46235  -0.46094
 Alpha  occ. eigenvalues --   -0.45968  -0.45827  -0.45738  -0.45668  -0.45575
 Alpha  occ. eigenvalues --   -0.45383  -0.45177  -0.45171  -0.44975  -0.44855
 Alpha  occ. eigenvalues --   -0.44837  -0.44619  -0.44596  -0.44343  -0.44024
 Alpha  occ. eigenvalues --   -0.43840  -0.43743  -0.43653  -0.43404  -0.43174
 Alpha  occ. eigenvalues --   -0.43054  -0.42799  -0.42705  -0.42477  -0.42413
 Alpha  occ. eigenvalues --   -0.42113  -0.41547  -0.41447  -0.41163  -0.41048
 Alpha  occ. eigenvalues --   -0.40640  -0.40226  -0.39878  -0.39765  -0.39508
 Alpha  occ. eigenvalues --   -0.39451  -0.39401  -0.38896  -0.38598  -0.38521
 Alpha  occ. eigenvalues --   -0.38365  -0.38056  -0.37105  -0.36455  -0.36154
 Alpha  occ. eigenvalues --   -0.35977  -0.35180  -0.35072  -0.34191  -0.33728
 Alpha  occ. eigenvalues --   -0.33530  -0.33210  -0.32993  -0.32627  -0.32594
 Alpha  occ. eigenvalues --   -0.32104  -0.31956  -0.30659  -0.26117  -0.26018
 Alpha  occ. eigenvalues --   -0.23622  -0.22597
 Alpha virt. eigenvalues --   -0.07750  -0.06785   0.00574   0.00615   0.01955
 Alpha virt. eigenvalues --    0.01956   0.04267   0.04504   0.04865   0.04913
 Alpha virt. eigenvalues --    0.05095   0.06590   0.06978   0.07115   0.07993

 Mulliken charges:
               1
     1  Mg   0.940656
     2  C    0.025584
     3  C   -0.076063
     4  C   -0.054467
     5  C   -0.071346
     6  N   -0.396317
     7  C   -0.020407
     8  C   -0.029411
     9  C   -0.089363
    10  C    0.104786
    11  C    0.044335
    12  C    0.022431
    13  C   -0.128859
    14  H    0.030670
    15  N   -0.379726
    16  C    0.094818
    17  C   -0.112334
    18  C   -0.048677
    19  C    0.101646
    20  C    0.053526
    21  C    0.041229
    22  O   -0.259313
    23  C   -0.009062
    24  N   -0.351643
    25  C    0.069230
    26  C   -0.145232
    27  C   -0.029922
    28  C    0.039001
    29  C    0.014256
    30  C   -0.014299
    31  C   -0.051418
    32  N   -0.418226
    33  C    0.151623
    34  C   -0.204266
    35  C   -0.041233
    36  C    0.088591
    37  C    0.077121
    38  C    0.161942
    39  O   -0.201888
    40  C   -0.129103
    41  C    0.263280
    42  O   -0.280557
    43  O   -0.330266
    44  C    0.127203
    45  H   -0.027653
    46  H    0.024842
    47  H   -0.001103
    48  H    0.031561
    49  H    0.031530
    50  H    0.056325
    51  H    0.033607
    52  H    0.025685
    53  H    0.024406
    54  H    0.044920
    55  H    0.046529
    56  H    0.062169
    57  H    0.028513
    58  H    0.048641
    59  H    0.054992
    60  H    0.043772
    61  H    0.044680
    62  H    0.064175
    63  H    0.043782
    64  H    0.030770
    65  H    0.043555
    66  H    0.032468
    67  H    0.040129
    68  H    0.029607
    69  H    0.030946
    70  H    0.055280
    71  H    0.043817
    72  H    0.033808
    73  H    0.035240
    74  H    0.042880
    75  H    0.057946
    76  H    0.082016
    77  H    0.053471
    78  H    0.078582
    79  H    0.049583
    80  Mg   0.976021
    81  C   -0.099649
    82  C   -0.080747
    83  C   -0.088185
    84  C   -0.101388
    85  N   -0.370284
    86  C   -0.011623
    87  C   -0.072315
    88  C   -0.107112
    89  C    0.104581
    90  C    0.024227
    91  C    0.006741
    92  C   -0.108938
    93  H    0.027703
    94  N   -0.454539
    95  C    0.114153
    96  C   -0.149630
    97  C   -0.076269
    98  C    0.118048
    99  C    0.069490
   100  C    0.031587
   101  O   -0.238322
   102  C    0.011654
   103  N   -0.401068
   104  C    0.093309
   105  C   -0.058123
   106  C   -0.103781
   107  C    0.063940
   108  C    0.035206
   109  C   -0.016654
   110  C   -0.026194
   111  N   -0.388609
   112  C    0.149034
   113  C   -0.228845
   114  C    0.015696
   115  C    0.154318
   116  C    0.098508
   117  C    0.146792
   118  O   -0.221209
   119  C   -0.037394
   120  C    0.292902
   121  O   -0.256280
   122  O   -0.367214
   123  C    0.121090
   124  H   -0.014052
   125  H    0.016144
   126  H   -0.003771
   127  H    0.041654
   128  H    0.034154
   129  H    0.028914
   130  H    0.041600
   131  H    0.042983
   132  H    0.031959
   133  H    0.037946
   134  H    0.064360
   135  H    0.054540
   136  H    0.046813
   137  H    0.028256
   138  H    0.042598
   139  H    0.049455
   140  H    0.052107
   141  H    0.067778
   142  H    0.030972
   143  H    0.029201
   144  H    0.038590
   145  H    0.045351
   146  H    0.035516
   147  H    0.029326
   148  H    0.034945
   149  H    0.028926
   150  H    0.041867
   151  H    0.043795
   152  H    0.023023
   153  H    0.059039
   154  H    0.067073
   155  H    0.058145
   156  H    0.063452
   157  H    0.072087
   158  H    0.044628
 Sum of Mulliken charges =  -0.00000

 Dipole moment (field-independent basis, Debye):
    X=             -1.0250    Y=              2.2459    Z=             -5.8323  Tot=              6.3333
 Quadrupole moment (field-independent basis, Debye-Ang):
   XX=           -785.2930   YY=           -460.7043   ZZ=           -533.7547
   XY=            -21.7896   XZ=            149.0883   YZ=            -10.2210

 Normal termination of Gaussian 16 at Sun Sep 19 02:26:09 2021.
