 Gaussian 16, Revision A.03,
 Gaussian 16:  ES64L-G16RevA.03 25-Dec-2016

 --------------------------------
 #p wB97XD/Def2SVP td=(nstates=5)
 --------------------------------

 --------------------------------
 TDDFT excited states in gaussian
 --------------------------------
 Symbolic Z-matrix:
 Charge =  0 Multiplicity = 1

                         Standard orientation:
 ---------------------------------------------------------------------
 Center     Atomic      Atomic             Coordinates (Angstroms)
 Number     Number       Type             X           Y           Z
 ---------------------------------------------------------------------
      1         12           0      -25.713354    0.346927    0.393174
      2          6           0      -22.909038   -1.693059   -0.108535
      3          6           0      -27.546983   -1.838407   -1.703993
      4          6           0      -28.347194    2.482139    0.575493
      5          6           0      -23.642429    2.735529    1.781294
      6          7           0      -25.285596   -1.590114   -0.595164
      7          6           0      -24.083902   -2.295559   -0.484372
      8          6           0      -24.324254   -3.790480   -0.904027
      9          6           0      -25.746886   -3.751577   -1.474062
     10          6           0      -26.227968   -2.269694   -1.292312
     11          6           0      -25.743807   -4.178131   -2.966803
     12          6           0      -24.108837   -4.678565    0.315357
     13          6           0      -23.647794   -6.108519    0.085444
     14          1           0      -23.726569   -6.680903   -1.347931
     15          7           0      -27.688508    0.362267   -0.414274
     16          6           0      -28.234448   -0.609848   -1.273932
     17          6           0      -29.587547   -0.249086   -1.659126
     18          6           0      -29.919795    0.982242   -0.968421
     19          6           0      -28.623551    1.333501   -0.244277
     20          6           0      -30.522254   -1.147996   -2.478591
     21          6           0      -31.206974    1.783455   -0.930116
     22          8           0      -31.280353    2.802491   -0.256407
     23          6           0      -32.422917    1.201963   -1.542579
     24          7           0      -25.942417    2.323355    1.159600
     25          6           0      -27.154951    2.942871    1.196594
     26          6           0      -27.048275    4.252923    2.020253
     27          6           0      -25.539153    4.319319    2.476426
     28          6           0      -24.987537    2.999786    1.877257
     29          6           0      -27.496668    5.456665    1.172275
     30          6           0      -25.320418    4.331566    4.012693
     31          6           0      -25.015879    5.756615    4.464142
     32          7           0      -23.663017    0.623143    0.705373
     33          6           0      -22.927972    1.645824    1.205187
     34          6           0      -21.500248    1.321638    0.967965
     35          6           0      -21.434123    0.018861    0.568774
     36          6           0      -22.792226   -0.344005    0.380398
     37          6           0      -20.392378    2.286913    1.354749
     38          6           0      -20.566291   -1.122851    0.250490
     39          8           0      -19.342861   -1.185532    0.238969
     40          6           0      -21.508923   -2.257298   -0.101998
     41          6           0      -21.023901   -2.786473   -1.386463
     42          8           0      -21.161655   -2.347665   -2.536336
     43          8           0      -20.263686   -3.904740   -1.111503
     44          6           0      -19.625879   -4.550901   -2.237917
     45          1           0      -28.100229   -2.577305   -2.287048
     46          1           0      -29.270489    3.057206    0.672175
     47          1           0      -23.047840    3.574240    2.149580
     48          1           0      -23.559324   -3.902018   -1.673446
     49          1           0      -26.287762   -4.556035   -0.975758
     50          1           0      -25.970540   -3.379581   -3.673414
     51          1           0      -26.635826   -4.788155   -3.106335
     52          1           0      -24.790923   -4.611764   -3.269620
     53          1           0      -25.051261   -4.614728    0.860140
     54          1           0      -23.410166   -4.184817    0.989734
     55          1           0      -24.186351   -6.760965    0.771407
     56          1           0      -22.615236   -6.053235    0.432006
     57          1           0      -30.035603   -2.030938   -2.893374
     58          1           0      -30.940614   -0.584116   -3.313397
     59          1           0      -31.388496   -1.396064   -1.866385
     60          1           0      -32.698063    0.307003   -0.983953
     61          1           0      -32.318939    1.125104   -2.624857
     62          1           0      -33.291876    1.845998   -1.407204
     63          1           0      -27.753961    4.177802    2.847261
     64          1           0      -25.118152    5.168149    1.936003
     65          1           0      -26.773953    6.262589    1.048055
     66          1           0      -28.300286    5.823930    1.810207
     67          1           0      -27.752147    5.215602    0.140804
     68          1           0      -24.373938    3.851644    4.262230
     69          1           0      -26.163361    3.936643    4.580093
     70          1           0      -25.665360    5.895145    5.328346
     71          1           0      -25.369347    6.528310    3.780723
     72          1           0      -23.976551    5.952458    4.729326
     73          1           0      -20.718336    3.299728    1.592931
     74          1           0      -19.619148    2.365194    0.591474
     75          1           0      -19.991864    1.973898    2.319609
     76          1           0      -21.448101   -2.996799    0.695803
     77          1           0      -19.088555   -3.783626   -2.795885
     78          1           0      -20.327010   -5.043261   -2.912141
     79          1           0      -18.774178   -5.074851   -1.805445
     80         12           0       26.012878   -0.330838   -0.494061
     81          6           0       22.541945   -0.892506   -0.008663
     82          6           0       25.150241    1.766817   -3.144122
     83          6           0       28.986882    1.033710   -0.134263
     84          6           0       26.524707   -2.331887    2.528819
     85          7           0       23.978559    0.553204   -1.310045
     86          6           0       22.774697   -0.040818   -1.117775
     87          6           0       21.794622    0.460109   -2.163424
     88          6           0       22.671803    0.766516   -3.377463
     89          6           0       24.025063    1.108579   -2.568338
     90          6           0       22.944706   -0.353737   -4.382898
     91          6           0       20.942603    1.662208   -1.563541
     92          6           0       19.502370    1.540344   -1.873066
     93          1           0       18.748859    2.821838   -2.279225
     94          7           0       26.985863    1.260837   -1.475007
     95          6           0       26.478271    1.945732   -2.606936
     96          6           0       27.511473    2.858886   -3.026239
     97          6           0       28.687613    2.643960   -2.259863
     98          6           0       28.281333    1.638739   -1.214236
     99          6           0       27.273309    3.825053   -4.182411
    100          6           0       29.962039    3.380599   -2.389306
    101          8           0       30.052487    4.258396   -3.238671
    102          6           0       31.171822    3.246079   -1.523930
    103          7           0       27.534540   -0.582329    1.126176
    104          6           0       28.724105   -0.017543    0.838571
    105          6           0       29.808581   -0.506045    1.815874
    106          6           0       29.074597   -1.728315    2.608024
    107          6           0       27.633700   -1.597755    2.050088
    108          6           0       31.213746   -0.834471    1.136744
    109          6           0       29.179138   -1.680032    4.164568
    110          6           0       27.961169   -1.097495    4.959588
    111          7           0       24.869741   -1.370279    0.924617
    112          6           0       25.236219   -2.176581    2.039709
    113          6           0       23.997866   -2.931204    2.520125
    114          6           0       22.977154   -2.387839    1.756493
    115          6           0       23.559789   -1.474057    0.806927
    116          6           0       23.784324   -3.993722    3.615425
    117          6           0       21.574408   -2.451345    1.494063
    118          8           0       20.706251   -3.186107    1.967899
    119          6           0       21.308056   -1.391471    0.485616
    120          6           0       20.564773   -0.311965    1.305246
    121          8           0       21.058795    0.512115    2.071929
    122          8           0       19.173302   -0.491031    1.069830
    123          6           0       18.267240    0.298258    1.800867
    124          1           0       24.958259    2.361077   -4.040066
    125          1           0       30.004264    1.422696   -0.209425
    126          1           0       26.596428   -3.063167    3.335765
    127          1           0       21.109373   -0.310396   -2.516457
    128          1           0       22.411590    1.577629   -4.056556
    129          1           0       22.231291   -1.175644   -4.330190
    130          1           0       24.000007   -0.626895   -4.403532
    131          1           0       22.741845    0.139457   -5.334243
    132          1           0       21.286669    2.591431   -2.017831
    133          1           0       21.139547    1.869333   -0.511626
    134          1           0       19.116705    1.112358   -0.948453
    135          1           0       19.388678    0.829670   -2.691535
    136          1           0       27.780661    3.523979   -5.098745
    137          1           0       27.538583    4.829852   -3.856876
    138          1           0       26.212332    3.864077   -4.429627
    139          1           0       31.612104    2.265400   -1.705931
    140          1           0       31.006854    3.367363   -0.452633
    141          1           0       31.990930    3.869462   -1.880417
    142          1           0       29.899358    0.327338    2.512206
    143          1           0       29.447999   -2.671104    2.209675
    144          1           0       31.335590   -0.286489    0.202517
    145          1           0       31.513681   -1.875996    1.015196
    146          1           0       31.919455   -0.580456    1.929212
    147          1           0       30.072228   -1.156511    4.504799
    148          1           0       29.255438   -2.737042    4.418389
    149          1           0       28.554736   -0.684569    5.775566
    150          1           0       27.228872   -1.797027    5.363290
    151          1           0       27.521162   -0.306019    4.352562
    152          1           0       23.361832   -4.906685    3.197236
    153          1           0       22.953738   -3.494580    4.113598
    154          1           0       24.690729   -4.028980    4.219421
    155          1           0       20.635846   -1.779297   -0.279861
    156          1           0       17.216263    0.103895    1.583339
    157          1           0       18.470992    1.339312    1.553473
    158          1           0       18.476977    0.069149    2.846058
 ---------------------------------------------------------------------

 SCF Done:  E(RwB97XD) =  -4070.55899960     A.U. after   20 cycles

 Excitation energies and oscillator strengths:

 Excited State   1:      Singlet-A      1.6240 eV  763.46 nm  f=0.3980  <S**2>=0.000
     309 -> 315       -0.20138
     311 -> 314        0.66825
     312 -> 313        0.11583
     309 <- 315       -0.12112
 This state for optimization and/or second-order correction.
 Total Energy, E(TD-HF/TD-DFT) =  -4070.49931937
 Copying the excited state density for this state as the 1-particle RhoCI density.

 Excited State   2:      Singlet-A      1.6258 eV  762.61 nm  f=0.3490  <S**2>=0.000
     310 -> 316        0.17631
     311 -> 314       -0.11466
     312 -> 313        0.67480
     310 <- 316        0.11179

 Excited State   3:      Singlet-A      2.1335 eV  581.13 nm  f=0.0545  <S**2>=0.000
     309 -> 314        0.61275
     311 -> 315        0.34220

 Excited State   4:      Singlet-A      2.1420 eV  578.83 nm  f=0.1179  <S**2>=0.000
     310 -> 313        0.64310
     312 -> 316       -0.27658

 Excited State   5:      Singlet-A      3.3538 eV  369.68 nm  f=0.4763  <S**2>=0.000
     308 -> 314       -0.33213
     309 -> 314       -0.26932
     311 -> 315        0.53336
     309 <- 314        0.10375

 The electronic state is 1-A.
 Alpha  occ. eigenvalues --  -46.97643 -46.95446 -19.29935 -19.29666 -19.26328
 Alpha  occ. eigenvalues --  -19.24721 -19.24305 -19.24275 -19.23979 -19.22558
 Alpha  occ. eigenvalues --  -14.46981 -14.46783 -14.46502 -14.46324 -14.44819
 Alpha  occ. eigenvalues --  -14.44753 -14.44332 -14.43740 -10.44486 -10.43196
 Alpha  occ. eigenvalues --  -10.39477 -10.39375 -10.38570 -10.38046 -10.36073
 Alpha  occ. eigenvalues --  -10.35838 -10.35447 -10.35445 -10.35344 -10.35305
 Alpha  occ. eigenvalues --  -10.35266 -10.35106 -10.35034 -10.34851 -10.34754
 Alpha  occ. eigenvalues --  -10.34676 -10.34654 -10.34103 -10.34034 -10.33773
 Alpha  occ. eigenvalues --  -10.33559 -10.33476 -10.33286 -10.32998 -10.32823
 Alpha  occ. eigenvalues --  -10.32561 -10.32529 -10.32440 -10.32426 -10.32411
 Alpha  occ. eigenvalues --  -10.32283 -10.32247 -10.32238 -10.32149 -10.31927
 Alpha  occ. eigenvalues --  -10.31820 -10.31803 -10.31766 -10.31753 -10.31633
 Alpha  occ. eigenvalues --  -10.31632 -10.31602 -10.31599 -10.31589 -10.31443
 Alpha  occ. eigenvalues --  -10.31434 -10.31161 -10.31057 -10.31029 -10.30708
 Alpha  occ. eigenvalues --  -10.30656 -10.30517 -10.30392 -10.30325 -10.30207
 Alpha  occ. eigenvalues --  -10.30198 -10.30151 -10.29613 -10.29499 -10.29394
 Alpha  occ. eigenvalues --  -10.29315 -10.29166 -10.29118 -10.29027 -10.28796
 Alpha  occ. eigenvalues --  -10.28746  -3.23347  -3.21296  -1.96863  -1.96510
 Alpha  occ. eigenvalues --   -1.96258  -1.94896  -1.94375  -1.94295  -1.17972
 Alpha  occ. eigenvalues --   -1.17939  -1.12712  -1.12201  -1.11834  -1.11532
 Alpha  occ. eigenvalues --   -1.10841  -1.09035  -1.06291  -1.06194  -1.05429
 Alpha  occ. eigenvalues --   -1.04852  -1.04787  -1.04634  -1.03692  -1.03282
 Alpha  occ. eigenvalues --   -0.96389  -0.95317  -0.91109  -0.91015  -0.90622
 Alpha  occ. eigenvalues --   -0.90610  -0.89900  -0.89668  -0.89192  -0.89031
 Alpha  occ. eigenvalues --   -0.88794  -0.88773  -0.87508  -0.87490  -0.86678
 Alpha  occ. eigenvalues --   -0.86245  -0.85744  -0.85556  -0.84614  -0.84596
 Alpha  occ. eigenvalues --   -0.84330  -0.83541  -0.82829  -0.82792  -0.82221
 Alpha  occ. eigenvalues --   -0.81984  -0.80092  -0.79971  -0.79180  -0.79178
 Alpha  occ. eigenvalues --   -0.78786  -0.78700  -0.77947  -0.77846  -0.77137
 Alpha  occ. eigenvalues --   -0.76478  -0.74729  -0.74503  -0.73812  -0.72980
 Alpha  occ. eigenvalues --   -0.71824  -0.71031  -0.70703  -0.70393  -0.69863
 Alpha  occ. eigenvalues --   -0.69235  -0.69076  -0.68803  -0.67317  -0.67290
 Alpha  occ. eigenvalues --   -0.66901  -0.66823  -0.66680  -0.66641  -0.66534
 Alpha  occ. eigenvalues --   -0.65878  -0.64201  -0.64099  -0.62148  -0.61907
 Alpha  occ. eigenvalues --   -0.61749  -0.61593  -0.61254  -0.61049  -0.60844
 Alpha  occ. eigenvalues --   -0.60741  -0.60330  -0.60254  -0.59638  -0.58996
 Alpha  occ. eigenvalues --   -0.58079  -0.57920  -0.57843  -0.57707  -0.57603
 Alpha  occ. eigenvalues --   -0.57012  -0.56836  -0.56712  -0.56492  -0.55620
 Alpha  occ. eigenvalues --   -0.55557  -0.55483  -0.55310  -0.55284  -0.55233
 Alpha  occ. eigenvalues --   -0.54958  -0.54847  -0.54747  -0.54552  -0.54074
 Alpha  occ. eigenvalues --   -0.53876  -0.53803  -0.53654  -0.53592  -0.53316
 Alpha  occ. eigenvalues --   -0.53309  -0.53230  -0.52688  -0.52464  -0.52316
 Alpha  occ. eigenvalues --   -0.52072  -0.51884  -0.51826  -0.51547  -0.51381
 Alpha  occ. eigenvalues --   -0.51213  -0.51187  -0.51150  -0.50949  -0.50889
 Alpha  occ. eigenvalues --   -0.50554  -0.50408  -0.50164  -0.50065  -0.49782
 Alpha  occ. eigenvalues --   -0.49686  -0.49383  -0.49337  -0.49100  -0.49099
 Alpha  occ. eigenvalues --   -0.48757  -0.48635  -0.48297  -0.47995  -0.47949
 Alpha  occ. eigenvalues --   -0.47884  -0.47817  -0.47810  -0.47781  -0.47345
 Alpha  occ. eigenvalues --   -0.47214  -0.47157  -0.47043  -0.46892  -0.46692
 Alpha  occ. eigenvalues --   -0.46471  -0.46375  -0.46351  -0.46305  -0.46124
 Alpha  occ. eigenvalues --   -0.46007  -0.45781  -0.45520  -0.45427  -0.45350
 Alpha  occ. eigenvalues --   -0.45196  -0.45133  -0.44972  -0.44967  -0.44794
 Alpha  occ. eigenvalues --   -0.44610  -0.44328  -0.44242  -0.43953  -0.43743
 Alpha  occ. eigenvalues --   -0.43474  -0.43421  -0.43291  -0.43185  -0.42989
 Alpha  occ. eigenvalues --   -0.42941  -0.42854  -0.42313  -0.42303  -0.41936
 Alpha  occ. eigenvalues --   -0.41860  -0.41048  -0.40814  -0.40481  -0.40338
 Alpha  occ. eigenvalues --   -0.40161  -0.39903  -0.39878  -0.39863  -0.39667
 Alpha  occ. eigenvalues --   -0.39611  -0.38604  -0.38579  -0.38298  -0.38297
 Alpha  occ. eigenvalues --   -0.37756  -0.37703  -0.37160  -0.36294  -0.36209
 Alpha  occ. eigenvalues --   -0.36045  -0.35596  -0.34867  -0.33549  -0.33514
 Alpha  occ. eigenvalues --   -0.33502  -0.33380  -0.32965  -0.32695  -0.32451
 Alpha  occ. eigenvalues --   -0.32166  -0.32126  -0.31613  -0.25947  -0.25720
 Alpha  occ. eigenvalues --   -0.22815  -0.22732
 Alpha virt. eigenvalues --   -0.07010  -0.06864  -0.00712   0.00467   0.01871
 Alpha virt. eigenvalues --    0.02239   0.02944   0.03996   0.04332   0.05538
 Alpha virt. eigenvalues --    0.06872   0.07392   0.07588   0.07792   0.08221

 Mulliken charges:
               1
     1  Mg   0.955503
     2  C   -0.016176
     3  C   -0.071909
     4  C   -0.061361
     5  C   -0.075350
     6  N   -0.370186
     7  C   -0.076396
     8  C   -0.019293
     9  C   -0.128240
    10  C    0.112537
    11  C    0.004202
    12  C    0.005707
    13  C   -0.087417
    14  H    0.044115
    15  N   -0.442542
    16  C    0.155470
    17  C   -0.170836
    18  C   -0.084799
    19  C    0.094697
    20  C    0.080394
    21  C    0.059001
    22  O   -0.231352
    23  C   -0.015763
    24  N   -0.372779
    25  C    0.091279
    26  C   -0.107458
    27  C   -0.062933
    28  C    0.055631
    29  C    0.009034
    30  C    0.009688
    31  C   -0.064278
    32  N   -0.405534
    33  C    0.114602
    34  C   -0.207901
    35  C   -0.016040
    36  C    0.137387
    37  C    0.069688
    38  C    0.119931
    39  O   -0.196949
    40  C   -0.033026
    41  C    0.261245
    42  O   -0.260786
    43  O   -0.368878
    44  C    0.150851
    45  H   -0.002626
    46  H    0.022746
    47  H   -0.005001
    48  H    0.035184
    49  H    0.041285
    50  H    0.033196
    51  H    0.028436
    52  H    0.050191
    53  H    0.018844
    54  H    0.026432
    55  H    0.050758
    56  H    0.056885
    57  H    0.044909
    58  H    0.041604
    59  H    0.050537
    60  H    0.068918
    61  H    0.058661
    62  H    0.044881
    63  H    0.042177
    64  H    0.041185
    65  H    0.028407
    66  H    0.042388
    67  H    0.055134
    68  H    0.035740
    69  H    0.040898
    70  H    0.024681
    71  H    0.026465
    72  H    0.047228
    73  H    0.017837
    74  H    0.060229
    75  H    0.049688
    76  H    0.082164
    77  H    0.044822
    78  H    0.059117
    79  H    0.053220
    80  Mg   0.936392
    81  C    0.011010
    82  C   -0.075386
    83  C   -0.029896
    84  C   -0.064563
    85  N   -0.298231
    86  C   -0.021741
    87  C   -0.051734
    88  C   -0.134243
    89  C    0.044073
    90  C    0.038283
    91  C    0.033708
    92  C   -0.117062
    93  H    0.034943
    94  N   -0.490415
    95  C    0.145895
    96  C   -0.165506
    97  C   -0.025042
    98  C    0.111708
    99  C    0.096198
   100  C   -0.007012
   101  O   -0.246447
   102  C    0.014078
   103  N   -0.325828
   104  C    0.062998
   105  C   -0.098270
   106  C   -0.020426
   107  C    0.007657
   108  C    0.005943
   109  C   -0.047096
   110  C   -0.048036
   111  N   -0.422585
   112  C    0.106637
   113  C   -0.210713
   114  C   -0.023504
   115  C    0.161950
   116  C    0.090954
   117  C    0.075754
   118  O   -0.216250
   119  C   -0.055084
   120  C    0.276501
   121  O   -0.229457
   122  O   -0.374831
   123  C    0.144824
   124  H    0.004590
   125  H   -0.047411
   126  H   -0.000913
   127  H    0.012686
   128  H    0.029596
   129  H    0.042152
   130  H    0.047003
   131  H    0.028410
   132  H    0.032663
   133  H    0.056473
   134  H    0.045314
   135  H    0.046278
   136  H    0.058340
   137  H    0.061371
   138  H    0.009473
   139  H    0.040853
   140  H    0.071627
   141  H    0.046892
   142  H    0.050765
   143  H    0.037804
   144  H    0.052405
   145  H    0.033859
   146  H    0.031518
   147  H    0.040201
   148  H    0.030974
   149  H    0.035585
   150  H    0.046411
   151  H    0.060516
   152  H    0.072929
   153  H    0.067998
   154  H    0.038950
   155  H    0.061030
   156  H    0.058074
   157  H    0.041811
   158  H    0.053626
 Sum of Mulliken charges =  -0.00000

 Dipole moment (field-independent basis, Debye):
    X=             -2.1769    Y=             -5.6875    Z=              1.1362  Tot=              6.1950
 Quadrupole moment (field-independent basis, Debye-Ang):
   XX=           -193.8727   YY=           -504.5005   ZZ=           -495.5045
   XY=            -43.2623   XZ=             -2.9558   YZ=             18.6626

 Normal termination of Gaussian 16 at Sun Sep 19 23:25:33 2021.
