 Gaussian 16, Revision A.03,
 Gaussian 16:  ES64L-G16RevA.03 25-Dec-2016

 --------------------------------
 #p wB97XD/Def2SVP td=(nstates=5)
 --------------------------------

 --------------------------------
 TDDFT excited states in gaussian
 --------------------------------
 Symbolic Z-matrix:
 Charge =  0 Multiplicity = 1

                         Standard orientation:
 ---------------------------------------------------------------------
 Center     Atomic      Atomic             Coordinates (Angstroms)
 Number     Number       Type             X           Y           Z
 ---------------------------------------------------------------------
      1         12           0       11.632919   -0.041126    0.189450
      2          6           0        9.088837   -1.496850   -1.637555
      3          6           0       11.343375    2.746512   -1.809441
      4          6           0       13.717552    1.629145    2.349012
      5          6           0       11.782678   -2.821049    2.214491
      6          7           0       10.243904    0.629101   -1.378050
      7          6           0        9.326677   -0.193585   -2.001721
      8          6           0        8.623278    0.512250   -3.157938
      9          6           0        9.593721    1.726698   -3.405896
     10          6           0       10.399216    1.726318   -2.114863
     11          6           0       10.448283    1.719203   -4.753447
     12          6           0        7.124265    0.889455   -2.932946
     13          6           0        6.188217    0.577817   -4.081536
     14          1           0        5.678596    1.837775   -4.763883
     15          7           0       12.377423    1.898351    0.235807
     16          6           0       12.172344    2.864611   -0.666397
     17          6           0       12.958591    4.043661   -0.347214
     18          6           0       13.672536    3.842423    0.822293
     19          6           0       13.248000    2.436155    1.235232
     20          6           0       12.882122    5.391165   -1.211191
     21          6           0       14.708187    4.817514    1.477362
     22          8           0       14.879299    5.956698    0.958140
     23          6           0       15.449216    4.462631    2.709252
     24          7           0       12.465437   -0.445666    2.224605
     25          6           0       13.392453    0.297272    2.784124
     26          6           0       14.152995   -0.431833    3.871974
     27          6           0       13.529801   -1.865725    3.967686
     28          6           0       12.570444   -1.780297    2.685734
     29          6           0       15.708074   -0.309200    3.955027
     30          6           0       12.753835   -2.307477    5.242284
     31          6           0       12.590725   -3.809914    5.344588
     32          7           0       10.615426   -1.836893    0.289704
     33          6           0       10.841404   -2.945845    1.137536
     34          6           0        9.995548   -4.019699    0.692765
     35          6           0        9.289732   -3.528864   -0.432678
     36          6           0        9.695070   -2.204219   -0.570497
     37          6           0       10.048031   -5.467110    1.158678
     38          6           0        8.379643   -3.910254   -1.394652
     39          8           0        7.696569   -4.877831   -1.592819
     40          6           0        8.072521   -2.528949   -2.175969
     41          6           0        6.736231   -2.068977   -1.595189
     42          8           0        6.583380   -1.495599   -0.533843
     43          8           0        5.756896   -2.450466   -2.498037
     44          6           0        4.378969   -2.203053   -2.086034
     45          1           0       11.442236    3.570728   -2.518684
     46          1           0       14.385600    2.214210    2.984027
     47          1           0       11.819689   -3.809255    2.677641
     48          1           0        8.707010   -0.133015   -4.031943
     49          1           0        8.995876    2.630577   -3.283383
     50          1           0       11.288711    2.357711   -4.481472
     51          1           0        9.987253    2.261293   -5.579466
     52          1           0       10.767914    0.746974   -5.128307
     53          1           0        7.163907    1.965667   -2.763500
     54          1           0        6.677545    0.594813   -1.983577
     55          1           0        5.360915   -0.004363   -3.675017
     56          1           0        6.667341   -0.013323   -4.862231
     57          1           0       12.171955    5.372954   -2.038966
     58          1           0       13.863155    5.641946   -1.616037
     59          1           0       12.487521    6.237011   -0.649929
     60          1           0       16.042121    3.566018    2.531343
     61          1           0       14.796536    4.453309    3.582290
     62          1           0       16.234964    5.214909    2.766156
     63          1           0       13.921291   -0.126606    4.892599
     64          1           0       14.203967   -2.639275    3.599202
     65          1           0       15.977724    0.511746    3.289190
     66          1           0       16.234900   -1.246997    3.774973
     67          1           0       16.081592   -0.008588    4.934019
     68          1           0       11.810903   -1.761177    5.223482
     69          1           0       13.325638   -1.877648    6.064648
     70          1           0       12.577770   -4.066003    6.404294
     71          1           0       13.383317   -4.398342    4.880845
     72          1           0       11.597235   -4.083257    4.989022
     73          1           0        9.459081   -6.149758    0.546051
     74          1           0        9.722294   -5.489888    2.197812
     75          1           0       11.069754   -5.846972    1.154755
     76          1           0        8.131123   -2.661864   -3.256686
     77          1           0        4.141944   -2.822722   -1.221047
     78          1           0        3.676573   -2.361550   -2.903622
     79          1           0        4.283832   -1.174265   -1.739841
     80         12           0      -11.350687    0.410798    0.491348
     81          6           0       -8.764762   -0.235081   -1.974380
     82          6           0      -11.685550   -2.938946    0.670159
     83          6           0      -13.663307    1.003381    2.613474
     84          6           0      -10.996391    3.873385   -0.158143
     85          7           0      -10.244568   -1.439280   -0.584412
     86          6           0       -9.206402   -1.429220   -1.438206
     87          6           0       -8.694967   -2.863549   -1.672102
     88          6           0       -9.994956   -3.633385   -1.146828
     89          6           0      -10.643900   -2.650806   -0.265368
     90          6           0      -10.830022   -4.408566   -2.152177
     91          6           0       -7.399984   -3.064246   -0.866089
     92          6           0       -6.475600   -4.162430   -1.469530
     93          1           0       -6.694614   -4.787356   -2.924320
     94          7           0      -12.528962   -0.812519    1.578474
     95          6           0      -12.604925   -2.187955    1.471023
     96          6           0      -13.671012   -2.648891    2.355233
     97          6           0      -14.211884   -1.505775    2.993946
     98          6           0      -13.457339   -0.374389    2.384091
     99          6           0      -14.068948   -4.049297    2.508396
    100          6           0      -15.347890   -1.394285    4.139860
    101          8           0      -15.571750   -0.358235    4.703676
    102          6           0      -15.977654   -2.648188    4.772611
    103          7           0      -12.379306    2.195633    0.921114
    104          6           0      -13.200678    2.172660    1.967686
    105          6           0      -13.679342    3.528663    2.411991
    106          6           0      -12.545927    4.395259    1.810773
    107          6           0      -12.048222    3.439479    0.672382
    108          6           0      -15.111468    3.943575    1.833210
    109          6           0      -11.416075    4.867064    2.819289
    110          6           0      -11.758801    5.086580    4.321579
    111          7           0      -10.248124    1.599538   -0.844371
    112          6           0      -10.135962    2.944660   -0.974065
    113          6           0       -9.100906    3.298588   -1.835751
    114          6           0       -8.603304    2.101054   -2.263975
    115          6           0       -9.286420    1.072769   -1.645234
    116          6           0       -8.628523    4.718100   -2.137748
    117          6           0       -7.548279    1.552847   -3.129495
    118          8           0       -6.817352    2.052077   -3.971845
    119          6           0       -7.597350   -0.017346   -2.878097
    120          6           0       -7.674681   -0.664002   -4.176340
    121          8           0       -8.674677   -0.775738   -4.892606
    122          8           0       -6.406188   -0.887964   -4.578324
    123          6           0       -6.315137   -1.176173   -5.998440
    124          1           0      -11.912045   -4.004056    0.587410
    125          1           0      -14.484992    1.167355    3.312965
    126          1           0      -10.859465    4.952502   -0.252205
    127          1           0       -8.597129   -3.086593   -2.734617
    128          1           0       -9.622795   -4.422093   -0.494392
    129          1           0      -10.779834   -5.484013   -1.984603
    130          1           0      -10.493315   -4.194047   -3.166255
    131          1           0      -11.879965   -4.116776   -2.177290
    132          1           0       -7.685207   -3.458705    0.109436
    133          1           0       -6.847261   -2.144289   -0.676515
    134          1           0       -6.314205   -4.983212   -0.769958
    135          1           0       -5.492021   -3.706278   -1.358162
    136          1           0      -13.260632   -4.730708    2.243902
    137          1           0      -14.924466   -4.174072    1.844380
    138          1           0      -14.357402   -4.321284    3.523974
    139          1           0      -15.275054   -3.251881    5.347028
    140          1           0      -16.498743   -3.135338    3.948153
    141          1           0      -16.803451   -2.358477    5.422928
    142          1           0      -13.717199    3.425936    3.496217
    143          1           0      -12.910078    5.307063    1.338000
    144          1           0      -15.601139    4.332698    2.725614
    145          1           0      -15.695129    3.112494    1.435747
    146          1           0      -15.109078    4.735513    1.085230
    147          1           0      -10.946767    5.764411    2.418536
    148          1           0      -10.775654    3.984876    2.824208
    149          1           0      -11.666954    4.150903    4.872564
    150          1           0      -12.750572    5.538827    4.287197
    151          1           0      -11.123440    5.841717    4.783086
    152          1           0       -8.854706    5.278630   -1.230384
    153          1           0       -9.193664    5.198789   -2.935747
    154          1           0       -7.559685    4.683896   -2.347970
    155          1           0       -6.668606   -0.274606   -2.367277
    156          1           0       -5.293893   -1.336927   -6.342684
    157          1           0       -6.887444   -0.531364   -6.665568
    158          1           0       -6.762009   -2.146550   -6.217443
 ---------------------------------------------------------------------

 SCF Done:  E(RwB97XD) =  -4070.58593968     A.U. after   19 cycles

 Excitation energies and oscillator strengths:

 Excited State   1:      Singlet-A      1.7989 eV  689.23 nm  f=0.3716  <S**2>=0.000
     310 -> 316       -0.19137
     312 -> 314        0.67947
     310 <- 316       -0.11145
 This state for optimization and/or second-order correction.
 Total Energy, E(TD-HF/TD-DFT) =  -4070.51983207
 Copying the excited state density for this state as the 1-particle RhoCI density.

 Excited State   2:      Singlet-A      1.8719 eV  662.33 nm  f=0.3707  <S**2>=0.000
     309 -> 315       -0.14176
     311 -> 313        0.68598

 Excited State   3:      Singlet-A      2.1925 eV  565.50 nm  f=0.1532  <S**2>=0.000
     310 -> 314        0.65226
     312 -> 316        0.25615

 Excited State   4:      Singlet-A      2.2253 eV  557.15 nm  f=0.1261  <S**2>=0.000
     309 -> 313        0.64363
     311 -> 315        0.24618
     311 -> 317       -0.10825

 Excited State   5:      Singlet-A      3.8471 eV  322.28 nm  f=0.0000  <S**2>=0.000
     312 -> 313        0.70698

 The electronic state is 1-A.
 Alpha  occ. eigenvalues --  -46.95716 -46.95620 -19.30025 -19.29630 -19.25526
 Alpha  occ. eigenvalues --  -19.25311 -19.24679 -19.23787 -19.23621 -19.22618
 Alpha  occ. eigenvalues --  -14.46882 -14.46591 -14.46004 -14.45596 -14.45184
 Alpha  occ. eigenvalues --  -14.44492 -14.43126 -14.42981 -10.42839 -10.41953
 Alpha  occ. eigenvalues --  -10.41069 -10.40960 -10.38727 -10.37314 -10.37257
 Alpha  occ. eigenvalues --  -10.36498 -10.35789 -10.35350 -10.35215 -10.34784
 Alpha  occ. eigenvalues --  -10.34783 -10.34777 -10.34630 -10.34322 -10.34180
 Alpha  occ. eigenvalues --  -10.34049 -10.33727 -10.33585 -10.33494 -10.33491
 Alpha  occ. eigenvalues --  -10.33353 -10.33093 -10.32641 -10.32433 -10.32393
 Alpha  occ. eigenvalues --  -10.32285 -10.32270 -10.32176 -10.32134 -10.32098
 Alpha  occ. eigenvalues --  -10.31962 -10.31911 -10.31589 -10.31561 -10.31504
 Alpha  occ. eigenvalues --  -10.31452 -10.31371 -10.31352 -10.31331 -10.31243
 Alpha  occ. eigenvalues --  -10.31209 -10.31137 -10.31072 -10.31053 -10.30999
 Alpha  occ. eigenvalues --  -10.30998 -10.30985 -10.30915 -10.30805 -10.30756
 Alpha  occ. eigenvalues --  -10.30751 -10.30743 -10.30449 -10.30444 -10.30067
 Alpha  occ. eigenvalues --  -10.29867 -10.29813 -10.29799 -10.29625 -10.29387
 Alpha  occ. eigenvalues --  -10.29354 -10.29301 -10.29068 -10.28976 -10.27611
 Alpha  occ. eigenvalues --  -10.26960  -3.21612  -3.21574  -1.95181  -1.95164
 Alpha  occ. eigenvalues --   -1.94735  -1.94714  -1.94582  -1.94524  -1.18573
 Alpha  occ. eigenvalues --   -1.17498  -1.14821  -1.11901  -1.11572  -1.11408
 Alpha  occ. eigenvalues --   -1.09977  -1.08724  -1.07731  -1.07152  -1.06655
 Alpha  occ. eigenvalues --   -1.06567  -1.05840  -1.05346  -1.05248  -1.04508
 Alpha  occ. eigenvalues --   -0.94216  -0.93428  -0.91104  -0.91013  -0.90522
 Alpha  occ. eigenvalues --   -0.90287  -0.89918  -0.89890  -0.89429  -0.88969
 Alpha  occ. eigenvalues --   -0.88755  -0.88664  -0.87686  -0.87413  -0.86372
 Alpha  occ. eigenvalues --   -0.86215  -0.85520  -0.85079  -0.84926  -0.84187
 Alpha  occ. eigenvalues --   -0.83943  -0.83820  -0.82589  -0.82577  -0.82106
 Alpha  occ. eigenvalues --   -0.81992  -0.80556  -0.79560  -0.79074  -0.78647
 Alpha  occ. eigenvalues --   -0.78582  -0.78459  -0.77566  -0.77218  -0.77128
 Alpha  occ. eigenvalues --   -0.77054  -0.74640  -0.74322  -0.73639  -0.73558
 Alpha  occ. eigenvalues --   -0.71638  -0.71522  -0.71061  -0.70633  -0.69797
 Alpha  occ. eigenvalues --   -0.69494  -0.69315  -0.68742  -0.67491  -0.67372
 Alpha  occ. eigenvalues --   -0.67314  -0.66968  -0.66661  -0.66542  -0.65988
 Alpha  occ. eigenvalues --   -0.65589  -0.63702  -0.63623  -0.62804  -0.62001
 Alpha  occ. eigenvalues --   -0.61397  -0.61383  -0.61153  -0.60997  -0.60432
 Alpha  occ. eigenvalues --   -0.60301  -0.59779  -0.59720  -0.59399  -0.59282
 Alpha  occ. eigenvalues --   -0.58516  -0.58429  -0.57369  -0.57325  -0.57071
 Alpha  occ. eigenvalues --   -0.56923  -0.56455  -0.56055  -0.55901  -0.55884
 Alpha  occ. eigenvalues --   -0.55696  -0.55611  -0.55469  -0.55223  -0.55065
 Alpha  occ. eigenvalues --   -0.54879  -0.54780  -0.54663  -0.54096  -0.53917
 Alpha  occ. eigenvalues --   -0.53600  -0.53479  -0.53134  -0.52998  -0.52939
 Alpha  occ. eigenvalues --   -0.52615  -0.52564  -0.52453  -0.52337  -0.52088
 Alpha  occ. eigenvalues --   -0.51916  -0.51866  -0.51704  -0.51565  -0.51355
 Alpha  occ. eigenvalues --   -0.50991  -0.50949  -0.50813  -0.50624  -0.50565
 Alpha  occ. eigenvalues --   -0.50451  -0.50356  -0.50204  -0.50106  -0.49724
 Alpha  occ. eigenvalues --   -0.49493  -0.49347  -0.49241  -0.49228  -0.49135
 Alpha  occ. eigenvalues --   -0.48863  -0.48583  -0.48453  -0.48089  -0.48065
 Alpha  occ. eigenvalues --   -0.48005  -0.47877  -0.47607  -0.47280  -0.47089
 Alpha  occ. eigenvalues --   -0.47075  -0.46916  -0.46761  -0.46742  -0.46544
 Alpha  occ. eigenvalues --   -0.46479  -0.46371  -0.46220  -0.46152  -0.45913
 Alpha  occ. eigenvalues --   -0.45801  -0.45778  -0.45672  -0.45460  -0.45289
 Alpha  occ. eigenvalues --   -0.45182  -0.45100  -0.45046  -0.44826  -0.44734
 Alpha  occ. eigenvalues --   -0.44520  -0.44416  -0.44408  -0.44301  -0.44143
 Alpha  occ. eigenvalues --   -0.44050  -0.43927  -0.43913  -0.43439  -0.43269
 Alpha  occ. eigenvalues --   -0.43148  -0.42606  -0.42307  -0.42221  -0.42050
 Alpha  occ. eigenvalues --   -0.41715  -0.41557  -0.41201  -0.41148  -0.40810
 Alpha  occ. eigenvalues --   -0.40495  -0.40088  -0.39961  -0.39921  -0.39343
 Alpha  occ. eigenvalues --   -0.39213  -0.38581  -0.38558  -0.38266  -0.37831
 Alpha  occ. eigenvalues --   -0.37573  -0.37220  -0.36331  -0.36092  -0.36074
 Alpha  occ. eigenvalues --   -0.35589  -0.35299  -0.34619  -0.34441  -0.34089
 Alpha  occ. eigenvalues --   -0.33894  -0.33675  -0.33026  -0.32765  -0.32240
 Alpha  occ. eigenvalues --   -0.31565  -0.31519  -0.31124  -0.26012  -0.25235
 Alpha  occ. eigenvalues --   -0.23314  -0.23142
 Alpha virt. eigenvalues --   -0.06699  -0.06521   0.00186   0.00907   0.02222
 Alpha virt. eigenvalues --    0.02684   0.04131   0.04833   0.04969   0.05646
 Alpha virt. eigenvalues --    0.06865   0.07680   0.07985   0.08240   0.08712

 Mulliken charges:
               1
     1  Mg   0.966691
     2  C   -0.041314
     3  C   -0.128641
     4  C   -0.109175
     5  C   -0.042300
     6  N   -0.332988
     7  C   -0.011586
     8  C   -0.074582
     9  C   -0.075996
    10  C    0.063481
    11  C    0.034891
    12  C    0.028162
    13  C   -0.107558
    14  H    0.025845
    15  N   -0.466201
    16  C    0.186097
    17  C   -0.152890
    18  C   -0.065579
    19  C    0.142373
    20  C    0.072145
    21  C    0.052369
    22  O   -0.253956
    23  C    0.003732
    24  N   -0.331073
    25  C    0.128589
    26  C   -0.083427
    27  C   -0.090960
    28  C    0.027346
    29  C    0.020537
    30  C    0.009891
    31  C   -0.034505
    32  N   -0.438590
    33  C    0.046473
    34  C   -0.148474
    35  C    0.002716
    36  C    0.157779
    37  C    0.059555
    38  C    0.057870
    39  O   -0.195407
    40  C   -0.117737
    41  C    0.297033
    42  O   -0.238967
    43  O   -0.364112
    44  C    0.141178
    45  H   -0.003364
    46  H   -0.019615
    47  H   -0.017060
    48  H    0.023297
    49  H    0.033045
    50  H    0.024914
    51  H    0.044972
    52  H    0.053798
    53  H    0.020454
    54  H    0.052721
    55  H    0.048453
    56  H    0.048515
    57  H    0.019777
    58  H    0.064667
    59  H    0.059581
    60  H    0.061811
    61  H    0.091222
    62  H    0.055018
    63  H    0.038305
    64  H    0.031516
    65  H    0.030299
    66  H    0.041527
    67  H    0.029066
    68  H    0.042088
    69  H    0.025734
    70  H    0.032294
    71  H    0.043052
    72  H    0.051629
    73  H    0.058412
    74  H    0.037841
    75  H    0.040676
    76  H    0.054913
    77  H    0.057556
    78  H    0.061322
    79  H    0.042826
    80  Mg   0.963213
    81  C   -0.002589
    82  C   -0.069468
    83  C   -0.087134
    84  C   -0.078792
    85  N   -0.252412
    86  C   -0.062561
    87  C   -0.061960
    88  C   -0.088948
    89  C    0.000110
    90  C    0.039643
    91  C    0.009997
    92  C   -0.092382
    93  H    0.048570
    94  N   -0.472816
    95  C    0.161515
    96  C   -0.161760
    97  C   -0.088202
    98  C    0.122132
    99  C    0.059433
   100  C    0.076558
   101  O   -0.197445
   102  C   -0.024164
   103  N   -0.321657
   104  C    0.065103
   105  C   -0.102434
   106  C   -0.113696
   107  C    0.058341
   108  C    0.030258
   109  C   -0.010610
   110  C   -0.052838
   111  N   -0.409973
   112  C    0.090386
   113  C   -0.219157
   114  C   -0.051400
   115  C    0.154925
   116  C    0.095813
   117  C    0.138584
   118  O   -0.197911
   119  C   -0.092917
   120  C    0.252660
   121  O   -0.272182
   122  O   -0.331233
   123  C    0.153310
   124  H   -0.010473
   125  H    0.011826
   126  H    0.003291
   127  H    0.040495
   128  H    0.017907
   129  H    0.039956
   130  H    0.042832
   131  H    0.036503
   132  H    0.031902
   133  H    0.048015
   134  H    0.038866
   135  H    0.037427
   136  H    0.044263
   137  H    0.065888
   138  H    0.040891
   139  H    0.086435
   140  H    0.045198
   141  H    0.050724
   142  H    0.043760
   143  H    0.017439
   144  H    0.041873
   145  H    0.045886
   146  H    0.042454
   147  H    0.037353
   148  H    0.027889
   149  H    0.050484
   150  H    0.034700
   151  H    0.039842
   152  H    0.025424
   153  H    0.052936
   154  H    0.055781
   155  H    0.073405
   156  H    0.049825
   157  H    0.060789
   158  H    0.024300
 Sum of Mulliken charges =  -0.00000

 Dipole moment (field-independent basis, Debye):
    X=              2.4548    Y=             -2.6028    Z=              5.6830  Tot=              6.7154
 Quadrupole moment (field-independent basis, Debye-Ang):
   XX=           -381.5227   YY=           -507.2425   ZZ=           -498.7086
   XY=             37.0715   XZ=            -11.2867   YZ=             -8.8569

 Normal termination of Gaussian 16 at Sun Sep 19 12:20:29 2021.
