 Gaussian 16, Revision A.03,
 Gaussian 16:  ES64L-G16RevA.03 25-Dec-2016

 --------------------------------
 #p wB97XD/Def2SVP td=(nstates=5)
 --------------------------------

 --------------------------------
 TDDFT excited states in gaussian
 --------------------------------
 Symbolic Z-matrix:
 Charge =  0 Multiplicity = 1

                         Standard orientation:
 ---------------------------------------------------------------------
 Center     Atomic      Atomic             Coordinates (Angstroms)
 Number     Number       Type             X           Y           Z
 ---------------------------------------------------------------------
      1         12           0      -18.371543   -0.744947    0.162984
      2          6           0      -18.051288    2.588444   -0.829453
      3          6           0      -17.094549    0.245741    3.274615
      4          6           0      -18.090400   -3.949435    1.085586
      5          6           0      -18.595977   -1.645769   -3.150844
      6          7           0      -17.731016    1.258255    1.195615
      7          6           0      -17.661178    2.422059    0.496250
      8          6           0      -17.106012    3.585360    1.410214
      9          6           0      -16.561769    2.734337    2.665871
     10          6           0      -17.102562    1.324769    2.372820
     11          6           0      -14.996673    2.683934    2.552130
     12          6           0      -18.330840    4.481470    1.823529
     13          6           0      -18.068073    5.627492    2.838123
     14          1           0      -18.879842    6.034771    4.031650
     15          7           0      -17.883640   -1.662856    1.978144
     16          6           0      -17.413327   -1.112869    3.182307
     17          6           0      -17.203217   -2.167425    4.082690
     18          6           0      -17.660597   -3.360266    3.538835
     19          6           0      -17.910795   -3.022044    2.147440
     20          6           0      -16.746659   -1.884683    5.476463
     21          6           0      -17.730336   -4.801555    4.142994
     22          8           0      -18.174136   -5.785154    3.560317
     23          6           0      -17.441093   -5.078096    5.620899
     24          7           0      -18.231861   -2.512089   -0.914342
     25          6           0      -18.268671   -3.706923   -0.283266
     26          6           0      -18.526324   -4.897177   -1.227871
     27          6           0      -18.547873   -4.173381   -2.602797
     28          6           0      -18.578246   -2.699781   -2.238962
     29          6           0      -17.556007   -6.108366   -1.027558
     30          6           0      -19.656131   -4.590171   -3.608202
     31          6           0      -21.013028   -4.098294   -3.330222
     32          7           0      -18.432016    0.223112   -1.645381
     33          6           0      -18.524186   -0.239156   -2.870700
     34          6           0      -18.652410    0.839475   -3.855965
     35          6           0      -18.468378    1.992463   -3.027692
     36          6           0      -18.302478    1.576453   -1.721150
     37          6           0      -19.242911    0.803179   -5.187531
     38          6           0      -18.432265    3.443717   -3.074361
     39          8           0      -18.648573    4.209823   -3.985818
     40          6           0      -18.083674    3.853361   -1.638291
     41          6           0      -16.811837    4.706207   -1.583513
     42          8           0      -15.694645    4.264733   -1.657871
     43          8           0      -17.157951    6.034553   -1.514633
     44          6           0      -15.976764    6.925683   -1.449325
     45          1           0      -16.821392    0.585631    4.274917
     46          1           0      -18.218733   -4.992256    1.383962
     47          1           0      -18.811231   -2.180571   -4.077540
     48          1           0      -16.273908    4.118332    0.949460
     49          1           0      -16.857335    3.123327    3.641055
     50          1           0      -14.561995    1.739116    2.227401
     51          1           0      -14.524760    2.694122    3.534932
     52          1           0      -14.573882    3.462702    1.917736
     53          1           0      -19.103633    3.814153    2.204117
     54          1           0      -18.756696    4.878690    0.901740
     55          1           0      -17.890713    6.496878    2.204345
     56          1           0      -17.137860    5.280603    3.286393
     57          1           0      -16.533804   -0.839242    5.701328
     58          1           0      -15.950012   -2.590533    5.715431
     59          1           0      -17.612991   -2.144242    6.085524
     60          1           0      -16.399300   -4.922595    5.901445
     61          1           0      -17.800667   -6.041643    5.982342
     62          1           0      -18.071202   -4.391658    6.186777
     63          1           0      -19.521299   -5.148865   -0.861809
     64          1           0      -17.559924   -4.371119   -3.018686
     65          1           0      -17.215116   -6.168624    0.005480
     66          1           0      -16.682809   -5.977479   -1.667232
     67          1           0      -18.029283   -7.067779   -1.237479
     68          1           0      -19.622959   -5.675834   -3.522489
     69          1           0      -19.334639   -4.361478   -4.624478
     70          1           0      -21.118774   -3.086168   -3.720438
     71          1           0      -21.244919   -4.165357   -2.267466
     72          1           0      -21.770135   -4.663680   -3.874384
     73          1           0      -19.927998   -0.044577   -5.162542
     74          1           0      -18.619031    0.575327   -6.051943
     75          1           0      -19.731292    1.765905   -5.334585
     76          1           0      -18.928063    4.418339   -1.242066
     77          1           0      -16.209609    7.843283   -1.989270
     78          1           0      -15.098959    6.601389   -2.008647
     79          1           0      -15.757015    7.207814   -0.420171
     80         12           0       18.224103   -0.689638    0.070213
     81          6           0       16.179625    2.165879    0.291816
     82          6           0       20.972328    1.422415    0.347860
     83          6           0       20.110713   -3.368600   -0.469635
     84          6           0       15.379697   -2.568104   -1.057265
     85          7           0       18.535652    1.508838    0.266383
     86          6           0       17.519761    2.455118    0.461301
     87          6           0       18.118900    3.709807    1.069220
     88          6           0       19.650036    3.582464    0.828149
     89          6           0       19.730098    2.069943    0.461119
     90          6           0       20.276586    4.578875   -0.197198
     91          6           0       17.720738    3.967333    2.563857
     92          6           0       17.644105    5.506941    2.961929
     93          1           0       18.009762    6.540645    1.893398
     94          7           0       20.192263   -0.942545    0.083974
     95          6           0       21.161085    0.024469    0.289927
     96          6           0       22.465094   -0.569272    0.358915
     97          6           0       22.268722   -1.940957   -0.000955
     98          6           0       20.832081   -2.126150   -0.101833
     99          6           0       23.774194    0.244442    0.594133
    100          6           0       23.292722   -3.003950   -0.230778
    101          8           0       22.979819   -4.125963   -0.695703
    102          6           0       24.837724   -2.935938   -0.049448
    103          7           0       17.874191   -2.610199   -0.915191
    104          6           0       18.809183   -3.579028   -0.908600
    105          6           0       18.170404   -4.951356   -1.239269
    106          6           0       16.672335   -4.704272   -1.450226
    107          6           0       16.627611   -3.161170   -1.060436
    108          6           0       18.921558   -5.672048   -2.316920
    109          6           0       15.693032   -5.576799   -0.635979
    110          6           0       15.841257   -5.479097    0.902418
    111          7           0       16.167654   -0.325477   -0.387974
    112          6           0       15.169568   -1.197677   -0.661603
    113          6           0       13.916146   -0.459253   -0.515441
    114          6           0       14.208157    0.874506   -0.114486
    115          6           0       15.622921    0.933237   -0.094391
    116          6           0       12.514538   -1.053231   -0.627617
    117          6           0       13.653352    2.144483    0.230172
    118          8           0       12.511034    2.551246    0.425153
    119          6           0       14.987450    3.112883    0.462150
    120          6           0       14.870259    4.341907   -0.419557
    121          8           0       15.144755    4.348753   -1.603539
    122          8           0       14.515875    5.445557    0.322628
    123          6           0       13.984146    6.617764   -0.364938
    124          1           0       21.749161    2.156870    0.569645
    125          1           0       20.773336   -4.233438   -0.539449
    126          1           0       14.546335   -3.237648   -1.278804
    127          1           0       17.754292    4.581843    0.526537
    128          1           0       20.135098    3.728681    1.792828
    129          1           0       20.753948    3.907777   -0.910450
    130          1           0       21.081413    5.151480    0.265325
    131          1           0       19.632100    5.259484   -0.753484
    132          1           0       18.470684    3.573465    3.249121
    133          1           0       16.784674    3.448838    2.767324
    134          1           0       18.408567    5.683325    3.718783
    135          1           0       16.637536    5.693292    3.335561
    136          1           0       24.548621   -0.191123   -0.038432
    137          1           0       24.130488    0.177207    1.621507
    138          1           0       23.809323    1.321615    0.431838
    139          1           0       25.092391   -2.625959    0.964435
    140          1           0       25.317569   -2.298012   -0.791626
    141          1           0       25.322682   -3.907813    0.034064
    142          1           0       18.402592   -5.589819   -0.387854
    143          1           0       16.544992   -4.694530   -2.533293
    144          1           0       19.564781   -6.462021   -1.928776
    145          1           0       19.487962   -4.958377   -2.915435
    146          1           0       18.285121   -6.144619   -3.065897
    147          1           0       15.958213   -6.590638   -0.936522
    148          1           0       14.665099   -5.362675   -0.930063
    149          1           0       14.875122   -5.122732    1.259180
    150          1           0       16.638881   -4.761722    1.095672
    151          1           0       16.178936   -6.398557    1.380861
    152          1           0       11.844433   -0.696861    0.154210
    153          1           0       12.521825   -2.128700   -0.452713
    154          1           0       12.157684   -0.886279   -1.644296
    155          1           0       14.896866    3.445377    1.496556
    156          1           0       14.569728    6.732656   -1.277455
    157          1           0       14.062076    7.550724    0.193392
    158          1           0       12.923178    6.413017   -0.508423
 ---------------------------------------------------------------------

 SCF Done:  E(RwB97XD) =  -4070.63186117     A.U. after   19 cycles

 Excitation energies and oscillator strengths:

 Excited State   1:      Singlet-A      1.6019 eV  773.99 nm  f=0.4037  <S**2>=0.000
     309 -> 315        0.17291
     311 -> 313        0.68565
     309 <- 315        0.11419
 This state for optimization and/or second-order correction.
 Total Energy, E(TD-HF/TD-DFT) =  -4070.57299266
 Copying the excited state density for this state as the 1-particle RhoCI density.

 Excited State   2:      Singlet-A      1.6938 eV  731.98 nm  f=0.3879  <S**2>=0.000
     310 -> 316       -0.19053
     312 -> 314        0.68143
     310 <- 316       -0.11527

 Excited State   3:      Singlet-A      2.1364 eV  580.34 nm  f=0.1488  <S**2>=0.000
     309 -> 313        0.65484
     311 -> 315       -0.24832

 Excited State   4:      Singlet-A      2.2137 eV  560.08 nm  f=0.1130  <S**2>=0.000
     310 -> 314        0.64264
     312 -> 316        0.27811

 Excited State   5:      Singlet-A      3.2948 eV  376.30 nm  f=0.0030  <S**2>=0.000
     305 -> 313        0.52481
     305 -> 315        0.13536
     305 -> 317       -0.34594
     305 -> 319       -0.20411

 The electronic state is 1-A.
 Alpha  occ. eigenvalues --  -46.95258 -46.95020 -19.30982 -19.29483 -19.25304
 Alpha  occ. eigenvalues --  -19.24466 -19.24402 -19.24182 -19.23817 -19.23423
 Alpha  occ. eigenvalues --  -14.47178 -14.46822 -14.45985 -14.45584 -14.44900
 Alpha  occ. eigenvalues --  -14.43954 -14.43751 -14.43659 -10.43598 -10.42957
 Alpha  occ. eigenvalues --  -10.40168 -10.39607 -10.39490 -10.38455 -10.35643
 Alpha  occ. eigenvalues --  -10.35523 -10.35125 -10.35094 -10.34958 -10.34799
 Alpha  occ. eigenvalues --  -10.34767 -10.34651 -10.34550 -10.34534 -10.34428
 Alpha  occ. eigenvalues --  -10.34342 -10.33909 -10.33834 -10.33733 -10.33707
 Alpha  occ. eigenvalues --  -10.33538 -10.33250 -10.33018 -10.32720 -10.32641
 Alpha  occ. eigenvalues --  -10.32613 -10.32541 -10.32325 -10.32306 -10.32201
 Alpha  occ. eigenvalues --  -10.32107 -10.32038 -10.31967 -10.31820 -10.31695
 Alpha  occ. eigenvalues --  -10.31657 -10.31626 -10.31618 -10.31571 -10.31536
 Alpha  occ. eigenvalues --  -10.31494 -10.31473 -10.31424 -10.31342 -10.31120
 Alpha  occ. eigenvalues --  -10.30979 -10.30894 -10.30876 -10.30646 -10.30579
 Alpha  occ. eigenvalues --  -10.30224 -10.30207 -10.30127 -10.30119 -10.30067
 Alpha  occ. eigenvalues --  -10.29944 -10.29841 -10.29671 -10.29435 -10.29420
 Alpha  occ. eigenvalues --  -10.29316 -10.29292 -10.29073 -10.28902 -10.28741
 Alpha  occ. eigenvalues --  -10.28272  -3.21270  -3.21026  -1.94829  -1.94600
 Alpha  occ. eigenvalues --   -1.94393  -1.94249  -1.94163  -1.93982  -1.18957
 Alpha  occ. eigenvalues --   -1.17610  -1.12622  -1.12475  -1.11678  -1.10931
 Alpha  occ. eigenvalues --   -1.10639  -1.09641  -1.06930  -1.06356  -1.05768
 Alpha  occ. eigenvalues --   -1.05479  -1.05326  -1.05232  -1.04472  -1.04127
 Alpha  occ. eigenvalues --   -0.95765  -0.94147  -0.91252  -0.91042  -0.90482
 Alpha  occ. eigenvalues --   -0.90412  -0.90111  -0.90061  -0.89429  -0.89278
 Alpha  occ. eigenvalues --   -0.89104  -0.88782  -0.88080  -0.87247  -0.85948
 Alpha  occ. eigenvalues --   -0.85701  -0.85483  -0.85224  -0.84269  -0.84087
 Alpha  occ. eigenvalues --   -0.83437  -0.82992  -0.82826  -0.82574  -0.82337
 Alpha  occ. eigenvalues --   -0.81963  -0.80670  -0.80472  -0.79487  -0.78853
 Alpha  occ. eigenvalues --   -0.78676  -0.78480  -0.78017  -0.77762  -0.76936
 Alpha  occ. eigenvalues --   -0.76774  -0.74508  -0.74420  -0.73728  -0.73039
 Alpha  occ. eigenvalues --   -0.71924  -0.71823  -0.71118  -0.71098  -0.70325
 Alpha  occ. eigenvalues --   -0.70284  -0.69521  -0.68996  -0.67305  -0.67208
 Alpha  occ. eigenvalues --   -0.66856  -0.66748  -0.66378  -0.66143  -0.66057
 Alpha  occ. eigenvalues --   -0.65940  -0.64447  -0.63630  -0.62934  -0.62071
 Alpha  occ. eigenvalues --   -0.61449  -0.61418  -0.61298  -0.60793  -0.60528
 Alpha  occ. eigenvalues --   -0.60210  -0.60045  -0.59391  -0.59312  -0.58916
 Alpha  occ. eigenvalues --   -0.58444  -0.57894  -0.57671  -0.57566  -0.57435
 Alpha  occ. eigenvalues --   -0.57196  -0.56784  -0.56735  -0.56522  -0.55903
 Alpha  occ. eigenvalues --   -0.55850  -0.55397  -0.55194  -0.55036  -0.54988
 Alpha  occ. eigenvalues --   -0.54680  -0.54564  -0.54489  -0.54478  -0.54274
 Alpha  occ. eigenvalues --   -0.53997  -0.53914  -0.53270  -0.53029  -0.52954
 Alpha  occ. eigenvalues --   -0.52884  -0.52605  -0.52471  -0.52241  -0.51993
 Alpha  occ. eigenvalues --   -0.51834  -0.51577  -0.51492  -0.51338  -0.51158
 Alpha  occ. eigenvalues --   -0.51132  -0.51111  -0.50931  -0.50868  -0.50705
 Alpha  occ. eigenvalues --   -0.50667  -0.50552  -0.50426  -0.50133  -0.49824
 Alpha  occ. eigenvalues --   -0.49812  -0.49669  -0.49400  -0.49351  -0.49018
 Alpha  occ. eigenvalues --   -0.48609  -0.48579  -0.48314  -0.48254  -0.48034
 Alpha  occ. eigenvalues --   -0.47870  -0.47779  -0.47606  -0.47385  -0.47241
 Alpha  occ. eigenvalues --   -0.47139  -0.46957  -0.46875  -0.46670  -0.46605
 Alpha  occ. eigenvalues --   -0.46411  -0.46316  -0.46145  -0.46089  -0.45983
 Alpha  occ. eigenvalues --   -0.45952  -0.45899  -0.45730  -0.45584  -0.45384
 Alpha  occ. eigenvalues --   -0.45231  -0.45144  -0.45112  -0.44962  -0.44797
 Alpha  occ. eigenvalues --   -0.44519  -0.44486  -0.44392  -0.44296  -0.44277
 Alpha  occ. eigenvalues --   -0.43863  -0.43789  -0.43775  -0.43588  -0.43566
 Alpha  occ. eigenvalues --   -0.43505  -0.42645  -0.42595  -0.42522  -0.42120
 Alpha  occ. eigenvalues --   -0.41985  -0.41512  -0.41473  -0.41151  -0.40697
 Alpha  occ. eigenvalues --   -0.40563  -0.40361  -0.39784  -0.39751  -0.39640
 Alpha  occ. eigenvalues --   -0.39586  -0.39284  -0.38898  -0.38782  -0.38262
 Alpha  occ. eigenvalues --   -0.38237  -0.37971  -0.36867  -0.36222  -0.36030
 Alpha  occ. eigenvalues --   -0.35700  -0.35373  -0.35249  -0.33678  -0.33586
 Alpha  occ. eigenvalues --   -0.33071  -0.32964  -0.32763  -0.32741  -0.32244
 Alpha  occ. eigenvalues --   -0.32226  -0.31643  -0.31296  -0.26035  -0.25696
 Alpha  occ. eigenvalues --   -0.23186  -0.22857
 Alpha virt. eigenvalues --   -0.07604  -0.06692   0.00521   0.00630   0.02009
 Alpha virt. eigenvalues --    0.02519   0.04083   0.04385   0.04676   0.05423
 Alpha virt. eigenvalues --    0.07374   0.07388   0.07771   0.08101   0.08603

 Mulliken charges:
               1
     1  Mg   0.973410
     2  C   -0.006735
     3  C   -0.074175
     4  C   -0.111506
     5  C   -0.060466
     6  N   -0.282009
     7  C   -0.051568
     8  C   -0.080865
     9  C   -0.121290
    10  C    0.038040
    11  C    0.009282
    12  C   -0.013376
    13  C   -0.096432
    14  H    0.058505
    15  N   -0.474740
    16  C    0.176443
    17  C   -0.164401
    18  C   -0.081413
    19  C    0.151436
    20  C    0.071035
    21  C    0.085473
    22  O   -0.233815
    23  C   -0.021547
    24  N   -0.406408
    25  C    0.075750
    26  C   -0.112127
    27  C   -0.035664
    28  C   -0.010155
    29  C    0.035597
    30  C   -0.020916
    31  C   -0.015313
    32  N   -0.411363
    33  C    0.152288
    34  C   -0.157205
    35  C   -0.070579
    36  C    0.151315
    37  C    0.070558
    38  C    0.116386
    39  O   -0.187651
    40  C   -0.074624
    41  C    0.263600
    42  O   -0.227527
    43  O   -0.360647
    44  C    0.124780
    45  H   -0.012640
    46  H    0.022387
    47  H   -0.019468
    48  H    0.047441
    49  H    0.048675
    50  H    0.042578
    51  H    0.025872
    52  H    0.050605
    53  H    0.035435
    54  H    0.032144
    55  H    0.051146
    56  H    0.036257
    57  H    0.044518
    58  H    0.048721
    59  H    0.050207
    60  H    0.058393
    61  H    0.054730
    62  H    0.041256
    63  H    0.041000
    64  H    0.042880
    65  H    0.049050
    66  H    0.031823
    67  H    0.040053
    68  H    0.022758
    69  H    0.034930
    70  H    0.032026
    71  H    0.032770
    72  H    0.035380
    73  H    0.029527
    74  H    0.041883
    75  H    0.063956
    76  H    0.079160
    77  H    0.049944
    78  H    0.069161
    79  H    0.056063
    80  Mg   0.972059
    81  C    0.006892
    82  C   -0.061728
    83  C   -0.062956
    84  C   -0.062968
    85  N   -0.337758
    86  C   -0.003278
    87  C   -0.035320
    88  C   -0.097925
    89  C    0.010251
    90  C    0.027406
    91  C   -0.006668
    92  C   -0.129138
    93  H    0.034116
    94  N   -0.494852
    95  C    0.189898
    96  C   -0.136952
    97  C   -0.054369
    98  C    0.137629
    99  C    0.059039
   100  C    0.036176
   101  O   -0.271626
   102  C   -0.006936
   103  N   -0.340853
   104  C    0.077630
   105  C   -0.129654
   106  C   -0.020150
   107  C    0.012721
   108  C    0.021352
   109  C   -0.019444
   110  C   -0.045898
   111  N   -0.429066
   112  C    0.150646
   113  C   -0.205185
   114  C    0.004396
   115  C    0.122944
   116  C    0.072284
   117  C    0.116741
   118  O   -0.207629
   119  C   -0.128521
   120  C    0.274787
   121  O   -0.237515
   122  O   -0.379813
   123  C    0.133593
   124  H   -0.002964
   125  H    0.023046
   126  H   -0.004365
   127  H    0.030784
   128  H    0.033117
   129  H    0.030663
   130  H    0.034872
   131  H    0.058481
   132  H    0.029776
   133  H    0.037204
   134  H    0.054496
   135  H    0.069142
   136  H    0.037164
   137  H    0.051128
   138  H    0.045650
   139  H    0.030936
   140  H    0.073519
   141  H    0.048597
   142  H    0.037198
   143  H    0.038802
   144  H    0.043477
   145  H    0.041871
   146  H    0.022313
   147  H    0.033278
   148  H    0.039383
   149  H    0.046911
   150  H    0.038520
   151  H    0.043000
   152  H    0.057595
   153  H    0.018510
   154  H    0.059452
   155  H    0.065533
   156  H    0.060265
   157  H    0.053695
   158  H    0.064590
 Sum of Mulliken charges =  -0.00000

 Dipole moment (field-independent basis, Debye):
    X=              3.9161    Y=             -0.2624    Z=              7.7687  Tot=              8.7039
 Quadrupole moment (field-independent basis, Debye-Ang):
   XX=           -384.4181   YY=           -485.8394   ZZ=           -498.9124
   XY=             56.1109   XZ=              8.3106   YZ=             32.7182

 Normal termination of Gaussian 16 at Sat Sep 18 17:33:27 2021.
