 Gaussian 16, Revision A.03,
 Gaussian 16:  ES64L-G16RevA.03 25-Dec-2016

 --------------------------------
 #p wB97XD/Def2SVP td=(nstates=5)
 --------------------------------

 --------------------------------
 TDDFT excited states in gaussian
 --------------------------------
 Symbolic Z-matrix:
 Charge =  0 Multiplicity = 1

                         Standard orientation:
 ---------------------------------------------------------------------
 Center     Atomic      Atomic             Coordinates (Angstroms)
 Number     Number       Type             X           Y           Z
 ---------------------------------------------------------------------
      1         12           0       31.384913    0.457412   -0.704835
      2          6           0       28.825789   -2.014246   -0.567257
      3          6           0       29.016288    2.896911   -0.291064
      4          6           0       33.917447    2.692415    0.210639
      5          6           0       33.779200   -2.109027   -0.533824
      6          7           0       29.110535    0.320497   -0.194605
      7          6           0       28.284449   -0.712446   -0.427751
      8          6           0       26.876757   -0.189982   -0.649110
      9          6           0       26.904646    1.406190   -0.492934
     10          6           0       28.510578    1.542995   -0.464005
     11          6           0       26.246947    2.039760   -1.739448
     12          6           0       25.899192   -0.842092    0.315361
     13          6           0       26.405371   -1.101089    1.754282
     14          1           0       25.838622   -0.184064    2.872379
     15          7           0       31.476629    2.575258   -0.194771
     16          6           0       30.343391    3.350133   -0.076317
     17          6           0       30.807102    4.691745    0.091091
     18          6           0       32.232071    4.698459    0.342195
     19          6           0       32.643698    3.295645    0.082474
     20          6           0       29.867164    5.864175    0.251188
     21          6           0       33.083318    5.842365    0.895595
     22          8           0       32.559145    6.892883    1.212083
     23          6           0       34.499799    5.751131    1.087016
     24          7           0       33.520766    0.311071   -0.127186
     25          6           0       34.314527    1.358417    0.040778
     26          6           0       35.759707    0.980799    0.322527
     27          6           0       35.603187   -0.596366    0.439396
     28          6           0       34.265537   -0.846746   -0.157845
     29          6           0       36.785984    1.433043   -0.827472
     30          6           0       35.797405   -1.066940    1.954008
     31          6           0       36.997625   -1.877979    2.353012
     32          7           0       31.368311   -1.548996   -0.820865
     33          6           0       32.437593   -2.466647   -0.866107
     34          6           0       31.940204   -3.833003   -1.112506
     35          6           0       30.560976   -3.647512   -1.019335
     36          6           0       30.213393   -2.284212   -0.718686
     37          6           0       32.731175   -5.130366   -1.498739
     38          6           0       29.299063   -4.392348   -1.075650
     39          8           0       29.025831   -5.585907   -1.284617
     40          6           0       28.130147   -3.387784   -0.807887
     41          6           0       27.586072   -3.966738    0.452360
     42          8           0       28.208844   -4.125905    1.470798
     43          8           0       26.345614   -4.403775    0.254924
     44          6           0       25.562542   -4.952379    1.416717
     45          1           0       28.275523    3.680851   -0.460954
     46          1           0       34.810813    3.283748    0.421096
     47          1           0       34.586214   -2.824807   -0.360893
     48          1           0       26.730241   -0.561449   -1.663359
     49          1           0       26.429073    1.745044    0.427837
     50          1           0       25.392524    2.629754   -1.408439
     51          1           0       25.855053    1.320864   -2.459430
     52          1           0       26.997563    2.705941   -2.163900
     53          1           0       25.580693   -1.804690   -0.084814
     54          1           0       25.022083   -0.209833    0.456349
     55          1           0       27.460563   -0.922494    1.960639
     56          1           0       26.146273   -2.142070    1.947828
     57          1           0       28.823435    5.549072    0.260894
     58          1           0       30.119749    6.595220   -0.517611
     59          1           0       30.147254    6.378717    1.169703
     60          1           0       34.826073    5.019194    1.826189
     61          1           0       34.881349    6.718279    1.413789
     62          1           0       34.853519    5.439612    0.103598
     63          1           0       36.120967    1.303491    1.298653
     64          1           0       36.508512   -0.933286   -0.065872
     65          1           0       36.251390    2.003147   -1.587831
     66          1           0       37.160703    0.524025   -1.298358
     67          1           0       37.670392    1.977491   -0.492988
     68          1           0       35.013173   -1.761689    2.254901
     69          1           0       35.775748   -0.215744    2.633138
     70          1           0       36.794251   -2.943277    2.462294
     71          1           0       37.200255   -1.428984    3.325910
     72          1           0       37.912450   -1.641610    1.809322
     73          1           0       33.221576   -5.497945   -0.597769
     74          1           0       33.408582   -4.861593   -2.309449
     75          1           0       32.012071   -5.896208   -1.788823
     76          1           0       27.486283   -3.437405   -1.686765
     77          1           0       25.763682   -6.007850    1.601494
     78          1           0       24.489383   -4.843343    1.254855
     79          1           0       25.856676   -4.332994    2.264016
     80         12           0      -31.530412   -0.024802   -0.290336
     81          6           0      -28.168195    0.771982    0.102150
     82          6           0      -30.676160   -3.358881    0.131386
     83          6           0      -34.719035   -0.873094   -0.094656
     84          6           0      -32.312957    3.345242   -0.195688
     85          7           0      -29.684435   -1.146901    0.232696
     86          6           0      -28.406352   -0.627629    0.205241
     87          6           0      -27.346087   -1.685006    0.295221
     88          6           0      -28.168538   -2.995467   -0.081023
     89          6           0      -29.597667   -2.516735    0.137295
     90          6           0      -27.870272   -3.833396   -1.413692
     91          6           0      -26.542212   -1.733385    1.676328
     92          6           0      -27.305543   -1.332015    2.973505
     93          1           0      -27.008048   -2.209444    4.165652
     94          7           0      -32.573167   -1.850331    0.099061
     95          6           0      -32.024000   -3.131845    0.230797
     96          6           0      -33.036588   -4.113869    0.506362
     97          6           0      -34.259148   -3.401786    0.469404
     98          6           0      -33.917718   -1.977206    0.179657
     99          6           0      -32.689661   -5.603475    0.493985
    100          6           0      -35.619015   -4.108320    0.671149
    101          8           0      -35.698519   -5.304501    0.968796
    102          6           0      -36.813918   -3.284791    0.432112
    103          7           0      -33.225438    1.132260   -0.042295
    104          6           0      -34.448358    0.524293   -0.271038
    105          6           0      -35.606082    1.536058   -0.418405
    106          6           0      -34.774740    2.866541   -0.201915
    107          6           0      -33.377159    2.445398   -0.090477
    108          6           0      -36.415890    1.549000   -1.676374
    109          6           0      -35.198816    3.661584    1.134683
    110          6           0      -35.370730    5.132681    0.859364
    111          7           0      -30.475573    1.772291   -0.284534
    112          6           0      -30.937990    3.074692   -0.246813
    113          6           0      -29.794491    4.014176   -0.195897
    114          6           0      -28.664313    3.135086   -0.059143
    115          6           0      -29.149537    1.823333   -0.115364
    116          6           0      -29.764430    5.475981   -0.003351
    117          6           0      -27.208822    3.015415    0.171053
    118          8           0      -26.391844    3.882608    0.378200
    119          6           0      -26.832908    1.500321    0.241857
    120          6           0      -25.806954    1.184414   -0.752695
    121          8           0      -24.659205    0.765329   -0.600858
    122          8           0      -26.253765    1.723781   -1.987466
    123          6           0      -25.377310    1.460805   -3.148923
    124          1           0      -30.344419   -4.392989    0.012845
    125          1           0      -35.788090   -1.042788   -0.237985
    126          1           0      -32.661843    4.378044   -0.249197
    127          1           0      -26.566063   -1.500644   -0.443394
    128          1           0      -27.908193   -3.636257    0.761796
    129          1           0      -27.009948   -3.506327   -1.997347
    130          1           0      -28.675917   -3.794368   -2.146730
    131          1           0      -27.555342   -4.840757   -1.140015
    132          1           0      -25.612468   -1.170836    1.598003
    133          1           0      -26.191726   -2.759977    1.782685
    134          1           0      -28.381062   -1.307376    2.795500
    135          1           0      -27.020537   -0.323348    3.271338
    136          1           0      -33.304480   -6.204307    1.164878
    137          1           0      -31.682276   -5.738350    0.886921
    138          1           0      -32.848562   -5.934540   -0.532565
    139          1           0      -36.885534   -3.081705   -0.635990
    140          1           0      -36.758180   -2.373397    1.028217
    141          1           0      -37.650955   -3.907080    0.748569
    142          1           0      -36.215041    1.465452    0.483165
    143          1           0      -34.852412    3.349572   -1.175932
    144          1           0      -37.011730    2.460937   -1.634935
    145          1           0      -37.135694    0.734074   -1.599460
    146          1           0      -35.767633    1.464084   -2.549334
    147          1           0      -34.426357    3.450567    1.874083
    148          1           0      -36.073028    3.295109    1.674268
    149          1           0      -34.559983    5.661842    1.359566
    150          1           0      -36.218214    5.559450    1.396808
    151          1           0      -35.247735    5.325691   -0.206142
    152          1           0      -30.736382    5.965822    0.071999
    153          1           0      -29.294612    5.883419   -0.897868
    154          1           0      -29.332799    5.530478    0.995860
    155          1           0      -26.459759    1.360577    1.256147
    156          1           0      -26.098436    1.160096   -3.909821
    157          1           0      -24.595587    0.702482   -3.103837
    158          1           0      -25.070355    2.451909   -3.483493
 ---------------------------------------------------------------------

 SCF Done:  E(RwB97XD) =  -4070.57191710     A.U. after   20 cycles

 Excitation energies and oscillator strengths:

 Excited State   1:      Singlet-A      1.6285 eV  761.32 nm  f=0.3487  <S**2>=0.000
     309 -> 315       -0.20689
     311 -> 313        0.67853
     309 <- 315       -0.12523
 This state for optimization and/or second-order correction.
 Total Energy, E(TD-HF/TD-DFT) =  -4070.51206960
 Copying the excited state density for this state as the 1-particle RhoCI density.

 Excited State   2:      Singlet-A      1.6615 eV  746.22 nm  f=0.3727  <S**2>=0.000
     310 -> 316        0.18777
     312 -> 314        0.68151
     310 <- 316        0.11477

 Excited State   3:      Singlet-A      2.1415 eV  578.97 nm  f=0.0715  <S**2>=0.000
     309 -> 313        0.61694
     311 -> 315        0.33154

 Excited State   4:      Singlet-A      2.1479 eV  577.24 nm  f=0.0854  <S**2>=0.000
     310 -> 314        0.62828
     312 -> 316       -0.30701

 Excited State   5:      Singlet-A      3.1856 eV  389.20 nm  f=0.0154  <S**2>=0.000
     308 -> 313        0.65679
     308 -> 317       -0.10732
     311 -> 315       -0.20224

 The electronic state is 1-A.
 Alpha  occ. eigenvalues --  -46.96535 -46.95457 -19.30281 -19.29582 -19.25492
 Alpha  occ. eigenvalues --  -19.24063 -19.23897 -19.23878 -19.23781 -19.23078
 Alpha  occ. eigenvalues --  -14.47006 -14.46847 -14.46790 -14.46552 -14.44741
 Alpha  occ. eigenvalues --  -14.44265 -14.44142 -14.43773 -10.43602 -10.42557
 Alpha  occ. eigenvalues --  -10.39146 -10.39079 -10.38991 -10.38254 -10.36212
 Alpha  occ. eigenvalues --  -10.36105 -10.35691 -10.35388 -10.35214 -10.35026
 Alpha  occ. eigenvalues --  -10.35004 -10.35000 -10.34735 -10.34720 -10.34708
 Alpha  occ. eigenvalues --  -10.34669 -10.34142 -10.34086 -10.33957 -10.33902
 Alpha  occ. eigenvalues --  -10.33399 -10.32992 -10.32948 -10.32937 -10.32800
 Alpha  occ. eigenvalues --  -10.32798 -10.32618 -10.32573 -10.32428 -10.32381
 Alpha  occ. eigenvalues --  -10.32378 -10.32371 -10.32319 -10.32279 -10.32213
 Alpha  occ. eigenvalues --  -10.32208 -10.32186 -10.32116 -10.31888 -10.31723
 Alpha  occ. eigenvalues --  -10.31715 -10.31460 -10.31428 -10.31209 -10.31134
 Alpha  occ. eigenvalues --  -10.31095 -10.31015 -10.30980 -10.30871 -10.30855
 Alpha  occ. eigenvalues --  -10.30829 -10.30744 -10.30671 -10.30533 -10.30329
 Alpha  occ. eigenvalues --  -10.30081 -10.30068 -10.30067 -10.29908 -10.29900
 Alpha  occ. eigenvalues --  -10.29814 -10.29569 -10.29493 -10.29447 -10.29309
 Alpha  occ. eigenvalues --  -10.28977  -3.22329  -3.21426  -1.95873  -1.95476
 Alpha  occ. eigenvalues --   -1.95262  -1.94997  -1.94565  -1.94388  -1.19222
 Alpha  occ. eigenvalues --   -1.16974  -1.12611  -1.12417  -1.11596  -1.11029
 Alpha  occ. eigenvalues --   -1.09889  -1.09114  -1.07064  -1.06588  -1.05726
 Alpha  occ. eigenvalues --   -1.05665  -1.05221  -1.04419  -1.04394  -1.03650
 Alpha  occ. eigenvalues --   -0.94434  -0.93911  -0.91510  -0.91169  -0.90823
 Alpha  occ. eigenvalues --   -0.90667  -0.90155  -0.89887  -0.89563  -0.89014
 Alpha  occ. eigenvalues --   -0.88817  -0.88160  -0.88061  -0.87324  -0.86733
 Alpha  occ. eigenvalues --   -0.86589  -0.86365  -0.85910  -0.84771  -0.84663
 Alpha  occ. eigenvalues --   -0.84517  -0.84278  -0.83044  -0.82798  -0.82200
 Alpha  occ. eigenvalues --   -0.82108  -0.80239  -0.79829  -0.79459  -0.79281
 Alpha  occ. eigenvalues --   -0.78763  -0.78327  -0.78200  -0.78144  -0.77707
 Alpha  occ. eigenvalues --   -0.76905  -0.74839  -0.74633  -0.74127  -0.73707
 Alpha  occ. eigenvalues --   -0.71359  -0.71244  -0.70842  -0.70438  -0.70084
 Alpha  occ. eigenvalues --   -0.70084  -0.68827  -0.68680  -0.68347  -0.67482
 Alpha  occ. eigenvalues --   -0.67147  -0.66903  -0.66764  -0.66516  -0.66019
 Alpha  occ. eigenvalues --   -0.65991  -0.64532  -0.64407  -0.62254  -0.62239
 Alpha  occ. eigenvalues --   -0.61403  -0.61245  -0.60995  -0.60940  -0.60627
 Alpha  occ. eigenvalues --   -0.60276  -0.59805  -0.59513  -0.59243  -0.59199
 Alpha  occ. eigenvalues --   -0.58299  -0.58209  -0.57808  -0.57770  -0.57347
 Alpha  occ. eigenvalues --   -0.57048  -0.56960  -0.56863  -0.56550  -0.56467
 Alpha  occ. eigenvalues --   -0.55806  -0.55797  -0.55383  -0.55004  -0.54864
 Alpha  occ. eigenvalues --   -0.54654  -0.54568  -0.54562  -0.54446  -0.54112
 Alpha  occ. eigenvalues --   -0.53955  -0.53917  -0.53670  -0.53545  -0.53445
 Alpha  occ. eigenvalues --   -0.53046  -0.52751  -0.52592  -0.52372  -0.52234
 Alpha  occ. eigenvalues --   -0.52060  -0.51724  -0.51607  -0.51553  -0.51498
 Alpha  occ. eigenvalues --   -0.51377  -0.51256  -0.51155  -0.50915  -0.50759
 Alpha  occ. eigenvalues --   -0.50502  -0.50468  -0.50190  -0.50171  -0.50099
 Alpha  occ. eigenvalues --   -0.49702  -0.49683  -0.49220  -0.49205  -0.48900
 Alpha  occ. eigenvalues --   -0.48875  -0.48827  -0.48523  -0.48465  -0.48216
 Alpha  occ. eigenvalues --   -0.48192  -0.48145  -0.47729  -0.47661  -0.47536
 Alpha  occ. eigenvalues --   -0.47321  -0.47226  -0.47079  -0.47060  -0.47022
 Alpha  occ. eigenvalues --   -0.46911  -0.46860  -0.46788  -0.46634  -0.46576
 Alpha  occ. eigenvalues --   -0.46254  -0.45907  -0.45863  -0.45592  -0.45486
 Alpha  occ. eigenvalues --   -0.45359  -0.45168  -0.45117  -0.45047  -0.44846
 Alpha  occ. eigenvalues --   -0.44750  -0.44450  -0.44330  -0.44065  -0.43961
 Alpha  occ. eigenvalues --   -0.43958  -0.43676  -0.43583  -0.43443  -0.43340
 Alpha  occ. eigenvalues --   -0.43244  -0.43125  -0.42764  -0.42374  -0.41984
 Alpha  occ. eigenvalues --   -0.41952  -0.41880  -0.41714  -0.41015  -0.40534
 Alpha  occ. eigenvalues --   -0.40435  -0.39964  -0.39891  -0.39403  -0.39374
 Alpha  occ. eigenvalues --   -0.39128  -0.38908  -0.38833  -0.38550  -0.38323
 Alpha  occ. eigenvalues --   -0.37671  -0.37659  -0.37148  -0.36774  -0.36180
 Alpha  occ. eigenvalues --   -0.36073  -0.35602  -0.35573  -0.33581  -0.33502
 Alpha  occ. eigenvalues --   -0.33143  -0.32798  -0.32746  -0.32595  -0.32372
 Alpha  occ. eigenvalues --   -0.32172  -0.31834  -0.31107  -0.26189  -0.26020
 Alpha  occ. eigenvalues --   -0.23108  -0.23024
 Alpha virt. eigenvalues --   -0.07109  -0.07011  -0.00651  -0.00317   0.02358
 Alpha virt. eigenvalues --    0.02720   0.04152   0.04559   0.04588   0.04855
 Alpha virt. eigenvalues --    0.06207   0.07191   0.07459   0.07609   0.08682

 Mulliken charges:
               1
     1  Mg   0.941903
     2  C   -0.038226
     3  C   -0.073360
     4  C   -0.078417
     5  C   -0.055626
     6  N   -0.319941
     7  C   -0.052812
     8  C   -0.003118
     9  C   -0.147410
    10  C    0.056654
    11  C    0.022592
    12  C   -0.011655
    13  C   -0.138126
    14  H    0.013839
    15  N   -0.462102
    16  C    0.167994
    17  C   -0.174979
    18  C   -0.086706
    19  C    0.201849
    20  C    0.084769
    21  C    0.035844
    22  O   -0.236009
    23  C    0.005312
    24  N   -0.322798
    25  C    0.047632
    26  C   -0.151677
    27  C   -0.062465
    28  C    0.046557
    29  C    0.017239
    30  C   -0.028934
    31  C   -0.050497
    32  N   -0.501345
    33  C    0.150932
    34  C   -0.184811
    35  C   -0.035029
    36  C    0.186925
    37  C    0.087866
    38  C    0.097777
    39  O   -0.231082
    40  C   -0.050460
    41  C    0.238159
    42  O   -0.235890
    43  O   -0.346797
    44  C    0.130798
    45  H    0.013627
    46  H   -0.019990
    47  H    0.003325
    48  H    0.035238
    49  H    0.061598
    50  H    0.033400
    51  H    0.044483
    52  H    0.040371
    53  H    0.041198
    54  H    0.041334
    55  H    0.087251
    56  H    0.047513
    57  H    0.029827
    58  H    0.048560
    59  H    0.062078
    60  H    0.066373
    61  H    0.056717
    62  H    0.054690
    63  H    0.040385
    64  H    0.018076
    65  H    0.043566
    66  H    0.031196
    67  H    0.046332
    68  H    0.037498
    69  H    0.032157
    70  H    0.053214
    71  H    0.028094
    72  H    0.026639
    73  H    0.054288
    74  H    0.056613
    75  H    0.063025
    76  H    0.067930
    77  H    0.072773
    78  H    0.059166
    79  H    0.067089
    80  Mg   0.956385
    81  C   -0.040712
    82  C   -0.109724
    83  C   -0.099664
    84  C   -0.098423
    85  N   -0.351129
    86  C    0.005475
    87  C   -0.079443
    88  C   -0.049978
    89  C    0.025456
    90  C    0.014870
    91  C   -0.014040
    92  C   -0.131219
    93  H    0.040647
    94  N   -0.438233
    95  C    0.180536
    96  C   -0.147264
    97  C   -0.106877
    98  C    0.206973
    99  C    0.079819
   100  C    0.051127
   101  O   -0.236302
   102  C   -0.010195
   103  N   -0.369025
   104  C    0.022445
   105  C   -0.081700
   106  C   -0.120645
   107  C    0.043150
   108  C    0.052818
   109  C   -0.004584
   110  C   -0.029189
   111  N   -0.431030
   112  C    0.160342
   113  C   -0.200492
   114  C   -0.051332
   115  C    0.127924
   116  C    0.085795
   117  C    0.113356
   118  O   -0.186393
   119  C   -0.040953
   120  C    0.283650
   121  O   -0.239918
   122  O   -0.406695
   123  C    0.140506
   124  H   -0.005334
   125  H   -0.020524
   126  H   -0.017666
   127  H    0.039126
   128  H    0.033398
   129  H    0.033387
   130  H    0.047821
   131  H    0.043640
   132  H    0.053323
   133  H    0.034491
   134  H    0.067861
   135  H    0.053320
   136  H    0.060289
   137  H    0.036809
   138  H    0.064871
   139  H    0.070816
   140  H    0.065152
   141  H    0.051330
   142  H    0.031714
   143  H    0.032436
   144  H    0.042845
   145  H    0.037348
   146  H    0.047645
   147  H    0.039938
   148  H    0.030712
   149  H    0.027370
   150  H    0.038729
   151  H    0.043348
   152  H    0.019163
   153  H    0.066780
   154  H    0.074751
   155  H    0.069274
   156  H    0.037394
   157  H    0.075532
   158  H    0.056792
 Sum of Mulliken charges =  -0.00000

 Dipole moment (field-independent basis, Debye):
    X=             -3.0442    Y=              1.0600    Z=             -5.2382  Tot=              6.1506
 Quadrupole moment (field-independent basis, Debye-Ang):
   XX=           -111.7170   YY=           -567.0487   ZZ=           -503.8099
   XY=            -58.2741   XZ=             52.3172   YZ=             -5.2959

 Normal termination of Gaussian 16 at Sat Sep 18 16:04:23 2021.
