 Gaussian 16, Revision A.03,
 Gaussian 16:  ES64L-G16RevA.03 25-Dec-2016

 --------------------------------
 #p wB97XD/Def2SVP td=(nstates=5)
 --------------------------------

 --------------------------------
 TDDFT excited states in gaussian
 --------------------------------
 Symbolic Z-matrix:
 Charge =  0 Multiplicity = 1

                         Standard orientation:
 ---------------------------------------------------------------------
 Center     Atomic      Atomic             Coordinates (Angstroms)
 Number     Number       Type             X           Y           Z
 ---------------------------------------------------------------------
      1         12           0       -9.444680   -1.057453    0.427090
      2          6           0      -10.491176    2.055969   -0.580513
      3          6           0       -8.252716    0.432378    3.430297
      4          6           0       -7.888277   -3.921347    1.324527
      5          6           0      -10.267526   -2.391546   -2.538337
      6          7           0       -9.381071    1.022225    1.314243
      7          6           0       -9.875258    2.126233    0.672911
      8          6           0       -9.791908    3.365189    1.567327
      9          6           0       -8.881739    2.810841    2.758399
     10          6           0       -8.825099    1.334240    2.496472
     11          6           0       -7.486473    3.524858    2.889209
     12          6           0      -11.213030    3.884058    2.078178
     13          6           0      -11.585545    5.346964    2.101172
     14          1           0      -10.609414    6.317070    2.665639
     15          7           0       -8.263312   -1.713501    2.173501
     16          6           0       -8.056446   -1.035149    3.323605
     17          6           0       -7.474920   -1.867920    4.322490
     18          6           0       -7.382264   -3.173362    3.744668
     19          6           0       -7.795239   -2.939439    2.328663
     20          6           0       -7.081341   -1.253368    5.626882
     21          6           0       -6.775008   -4.434365    4.335466
     22          8           0       -6.499412   -5.421408    3.646355
     23          6           0       -6.464146   -4.510815    5.819969
     24          7           0       -8.976935   -2.891895   -0.548628
     25          6           0       -8.436078   -3.962964    0.089576
     26          6           0       -8.515820   -5.211146   -0.787756
     27          6           0       -9.451039   -4.731656   -1.962163
     28          6           0       -9.587503   -3.249846   -1.672725
     29          6           0       -7.229612   -5.959806   -1.246420
     30          6           0      -10.822283   -5.506798   -2.144518
     31          6           0      -12.083251   -5.002525   -1.475179
     32          7           0      -10.119544   -0.344853   -1.257934
     33          6           0      -10.567778   -0.983750   -2.386107
     34          6           0      -11.072312   -0.098990   -3.371942
     35          6           0      -11.111919    1.114502   -2.692429
     36          6           0      -10.544967    0.906498   -1.408728
     37          6           0      -11.598949   -0.304094   -4.786342
     38          6           0      -11.440365    2.470070   -2.774227
     39          8           0      -11.881642    3.081227   -3.730006
     40          6           0      -11.035945    3.222265   -1.385205
     41          6           0      -10.059167    4.255874   -1.705214
     42          8           0       -8.909635    4.064062   -2.148799
     43          8           0      -10.528751    5.518624   -1.524093
     44          6           0       -9.780674    6.642142   -2.099282
     45          1           0       -8.007892    0.981978    4.341183
     46          1           0       -7.653722   -4.921383    1.694601
     47          1           0      -10.866774   -2.838592   -3.333347
     48          1           0       -9.377661    4.185361    0.979578
     49          1           0       -9.341338    2.996537    3.729311
     50          1           0       -7.435080    3.968967    3.882713
     51          1           0       -7.451169    4.212038    2.043669
     52          1           0       -6.621817    2.860554    2.898870
     53          1           0      -11.219938    3.502162    3.099215
     54          1           0      -12.021192    3.289680    1.653237
     55          1           0      -12.572564    5.472854    2.546138
     56          1           0      -11.629861    5.648934    1.055396
     57          1           0       -7.441309   -1.951445    6.381787
     58          1           0       -7.618130   -0.318908    5.792290
     59          1           0       -6.017236   -1.061834    5.769223
     60          1           0       -7.240734   -4.088814    6.458561
     61          1           0       -5.440482   -4.178174    5.997299
     62          1           0       -6.473050   -5.579429    6.036769
     63          1           0       -8.966880   -5.947620   -0.122390
     64          1           0       -9.028656   -4.931980   -2.946112
     65          1           0       -7.069115   -5.814736   -2.314638
     66          1           0       -7.411045   -7.017801   -1.057874
     67          1           0       -6.421129   -5.554050   -0.639288
     68          1           0      -10.649237   -6.522978   -1.792830
     69          1           0      -11.075156   -5.562393   -3.203564
     70          1           0      -12.574452   -5.783569   -0.894360
     71          1           0      -12.813182   -4.590135   -2.173036
     72          1           0      -11.745839   -4.201739   -0.817130
     73          1           0      -11.584184   -1.369233   -5.020506
     74          1           0      -10.981482    0.263053   -5.483346
     75          1           0      -12.619999    0.073612   -4.832239
     76          1           0      -11.988536    3.692899   -1.140222
     77          1           0      -10.383354    7.533070   -2.276238
     78          1           0       -9.161912    6.401947   -2.963366
     79          1           0       -9.141475    6.993578   -1.289185
     80         12           0        9.493050   -0.503253   -0.026135
     81          6           0        7.560327    2.405587   -0.073298
     82          6           0       12.137446    1.486793    1.132016
     83          6           0       11.617747   -3.054360   -0.446248
     84          6           0        7.176678   -2.002072   -2.083140
     85          7           0        9.812968    1.733160    0.594776
     86          6           0        8.844517    2.666428    0.395930
     87          6           0        9.363915    4.100605    0.808450
     88          6           0       10.941890    3.807711    0.954476
     89          6           0       11.007611    2.274813    0.849000
     90          6           0       11.647272    4.409202   -0.312665
     91          6           0        8.722627    4.448142    2.202012
     92          6           0        9.182237    5.760783    2.893058
     93          1           0        9.542577    5.993647    4.330167
     94          7           0       11.502491   -0.777270    0.486185
     95          6           0       12.447905    0.130302    0.992343
     96          6           0       13.666791   -0.550176    1.127208
     97          6           0       13.493703   -1.901287    0.858167
     98          6           0       12.159617   -1.962246    0.284171
     99          6           0       14.858161    0.149359    1.694909
    100          6           0       14.498728   -3.097761    0.932726
    101          8           0       14.219252   -4.264774    0.679915
    102          6           0       15.894530   -2.949718    1.544408
    103          7           0        9.430362   -2.206202   -1.208916
    104          6           0       10.374635   -3.165358   -1.083977
    105          6           0        9.989244   -4.502234   -1.747004
    106          6           0        8.627803   -4.121115   -2.391979
    107          6           0        8.309184   -2.761944   -1.795379
    108          6           0       11.104475   -5.125370   -2.650653
    109          6           0        7.468019   -5.146221   -2.262171
    110          6           0        6.817279   -5.237841   -0.947436
    111          7           0        7.680156   -0.001424   -0.846235
    112          6           0        6.870403   -0.674000   -1.630795
    113          6           0        5.616767    0.047205   -1.873474
    114          6           0        5.890596    1.298452   -1.234189
    115          6           0        7.148281    1.239075   -0.666437
    116          6           0        4.309490   -0.479683   -2.242921
    117          6           0        5.296194    2.591208   -0.942492
    118          8           0        4.180195    3.011442   -1.148430
    119          6           0        6.416549    3.364900   -0.236923
    120          6           0        6.748777    4.672522   -0.963329
    121          8           0        7.418557    4.743834   -1.960753
    122          8           0        6.103675    5.714597   -0.341263
    123          6           0        6.384057    7.019436   -0.983418
    124          1           0       12.911172    2.086976    1.613547
    125          1           0       12.199118   -3.978566   -0.417509
    126          1           0        6.565874   -2.736846   -2.610529
    127          1           0        9.207110    4.843302    0.025786
    128          1           0       11.395677    4.204470    1.863494
    129          1           0       11.985985    3.697982   -1.065336
    130          1           0       12.636563    4.798752   -0.071296
    131          1           0       11.056332    5.163571   -0.831711
    132          1           0        8.900068    3.597045    2.858912
    133          1           0        7.641542    4.450343    2.060297
    134          1           0        8.434528    6.490973    2.582066
    135          1           0       10.126307    5.931644    2.377197
    136          1           0       14.722218    1.207430    1.920347
    137          1           0       15.716855   -0.092967    1.067295
    138          1           0       15.004216   -0.338589    2.658980
    139          1           0       16.564558   -2.316788    0.962443
    140          1           0       16.378948   -3.890704    1.805639
    141          1           0       15.748347   -2.506686    2.529703
    142          1           0        9.880661   -5.082389   -0.831061
    143          1           0        8.872799   -3.951267   -3.440423
    144          1           0       12.095849   -4.844899   -2.296366
    145          1           0       10.989217   -4.754096   -3.669310
    146          1           0       11.089143   -6.215458   -2.649079
    147          1           0        7.981716   -6.078392   -2.495162
    148          1           0        6.750039   -4.992134   -3.067923
    149          1           0        6.061397   -4.457345   -0.861882
    150          1           0        7.551317   -5.202048   -0.142683
    151          1           0        6.246751   -6.160768   -0.839334
    152          1           0        4.326863   -1.518207   -1.911521
    153          1           0        4.039634   -0.573541   -3.294928
    154          1           0        3.572228    0.138387   -1.731633
    155          1           0        6.081485    3.578029    0.778703
    156          1           0        5.487091    7.634680   -0.915057
    157          1           0        6.513932    7.004028   -2.065751
    158          1           0        7.176638    7.550951   -0.457727
 ---------------------------------------------------------------------

 SCF Done:  E(RwB97XD) =  -4070.64715830     A.U. after   19 cycles

 Excitation energies and oscillator strengths:

 Excited State   1:      Singlet-A      1.6603 eV  746.74 nm  f=0.4345  <S**2>=0.000
     310 -> 316        0.18385
     311 -> 313        0.68386
     310 <- 316        0.11620
 This state for optimization and/or second-order correction.
 Total Energy, E(TD-HF/TD-DFT) =  -4070.58614232
 Copying the excited state density for this state as the 1-particle RhoCI density.

 Excited State   2:      Singlet-A      1.6930 eV  732.35 nm  f=0.3734  <S**2>=0.000
     309 -> 315        0.19051
     312 -> 314        0.68098
     309 <- 315        0.11529

 Excited State   3:      Singlet-A      2.1339 eV  581.02 nm  f=0.1606  <S**2>=0.000
     310 -> 313        0.66020
     311 -> 316       -0.24129

 Excited State   4:      Singlet-A      2.2136 eV  560.10 nm  f=0.1147  <S**2>=0.000
     309 -> 314        0.64241
     312 -> 315       -0.27841

 Excited State   5:      Singlet-A      3.4311 eV  361.36 nm  f=0.0000  <S**2>=0.000
     312 -> 313        0.70689

 The electronic state is 1-A.
 Alpha  occ. eigenvalues --  -46.95321 -46.94970 -19.30940 -19.30134 -19.25260
 Alpha  occ. eigenvalues --  -19.24426 -19.23825 -19.23753 -19.23525 -19.23327
 Alpha  occ. eigenvalues --  -14.46779 -14.46584 -14.45995 -14.45541 -14.44040
 Alpha  occ. eigenvalues --  -14.43966 -14.43704 -14.43608 -10.43554 -10.42630
 Alpha  occ. eigenvalues --  -10.40129 -10.39256 -10.38409 -10.38393 -10.35486
 Alpha  occ. eigenvalues --  -10.35210 -10.35045 -10.34955 -10.34769 -10.34597
 Alpha  occ. eigenvalues --  -10.34495 -10.34376 -10.34286 -10.34030 -10.34004
 Alpha  occ. eigenvalues --  -10.33999 -10.33860 -10.33767 -10.33654 -10.33489
 Alpha  occ. eigenvalues --  -10.32868 -10.32688 -10.32629 -10.32582 -10.32492
 Alpha  occ. eigenvalues --  -10.32414 -10.32409 -10.32393 -10.32188 -10.31993
 Alpha  occ. eigenvalues --  -10.31965 -10.31920 -10.31906 -10.31657 -10.31649
 Alpha  occ. eigenvalues --  -10.31605 -10.31572 -10.31488 -10.31482 -10.31443
 Alpha  occ. eigenvalues --  -10.31438 -10.31296 -10.31252 -10.31068 -10.30945
 Alpha  occ. eigenvalues --  -10.30853 -10.30745 -10.30691 -10.30529 -10.30194
 Alpha  occ. eigenvalues --  -10.30174 -10.30060 -10.30001 -10.29970 -10.29891
 Alpha  occ. eigenvalues --  -10.29795 -10.29761 -10.29644 -10.29468 -10.29244
 Alpha  occ. eigenvalues --  -10.29121 -10.28973 -10.28829 -10.28751 -10.28516
 Alpha  occ. eigenvalues --  -10.28217  -3.21372  -3.20976  -1.94945  -1.94551
 Alpha  occ. eigenvalues --   -1.94458  -1.94387  -1.94113  -1.93932  -1.18914
 Alpha  occ. eigenvalues --   -1.17881  -1.12583  -1.12411  -1.11999  -1.11591
 Alpha  occ. eigenvalues --   -1.10888  -1.07874  -1.07276  -1.06881  -1.06573
 Alpha  occ. eigenvalues --   -1.06040  -1.05723  -1.05381  -1.05277  -1.04423
 Alpha  occ. eigenvalues --   -0.95716  -0.94460  -0.91196  -0.90833  -0.90434
 Alpha  occ. eigenvalues --   -0.90032  -0.89999  -0.89931  -0.89602  -0.89383
 Alpha  occ. eigenvalues --   -0.89252  -0.89056  -0.88246  -0.88017  -0.86091
 Alpha  occ. eigenvalues --   -0.85906  -0.85541  -0.85430  -0.84448  -0.84225
 Alpha  occ. eigenvalues --   -0.83665  -0.83400  -0.82987  -0.82783  -0.82292
 Alpha  occ. eigenvalues --   -0.82161  -0.80425  -0.80239  -0.79438  -0.79288
 Alpha  occ. eigenvalues --   -0.78904  -0.78428  -0.78034  -0.77976  -0.77307
 Alpha  occ. eigenvalues --   -0.76734  -0.75413  -0.74365  -0.73681  -0.73398
 Alpha  occ. eigenvalues --   -0.71870  -0.71443  -0.71089  -0.71052  -0.70243
 Alpha  occ. eigenvalues --   -0.69971  -0.69008  -0.68956  -0.67426  -0.67262
 Alpha  occ. eigenvalues --   -0.66985  -0.66710  -0.66613  -0.66329  -0.66082
 Alpha  occ. eigenvalues --   -0.65890  -0.64400  -0.64100  -0.62087  -0.62026
 Alpha  occ. eigenvalues --   -0.61677  -0.61369  -0.61250  -0.60937  -0.60482
 Alpha  occ. eigenvalues --   -0.60163  -0.60142  -0.59749  -0.59263  -0.59165
 Alpha  occ. eigenvalues --   -0.58394  -0.58117  -0.57521  -0.57381  -0.57199
 Alpha  occ. eigenvalues --   -0.57146  -0.56882  -0.56664  -0.56479  -0.55869
 Alpha  occ. eigenvalues --   -0.55856  -0.55153  -0.55096  -0.54991  -0.54964
 Alpha  occ. eigenvalues --   -0.54628  -0.54507  -0.54439  -0.54382  -0.54054
 Alpha  occ. eigenvalues --   -0.53946  -0.53887  -0.53269  -0.52977  -0.52852
 Alpha  occ. eigenvalues --   -0.52565  -0.52414  -0.52408  -0.52203  -0.52069
 Alpha  occ. eigenvalues --   -0.51782  -0.51688  -0.51535  -0.51347  -0.51283
 Alpha  occ. eigenvalues --   -0.51092  -0.51031  -0.50888  -0.50826  -0.50651
 Alpha  occ. eigenvalues --   -0.50604  -0.50558  -0.50385  -0.50374  -0.50051
 Alpha  occ. eigenvalues --   -0.49766  -0.49651  -0.49385  -0.49358  -0.48974
 Alpha  occ. eigenvalues --   -0.48969  -0.48681  -0.48529  -0.48294  -0.47991
 Alpha  occ. eigenvalues --   -0.47970  -0.47807  -0.47772  -0.47678  -0.47538
 Alpha  occ. eigenvalues --   -0.47188  -0.47105  -0.46910  -0.46828  -0.46827
 Alpha  occ. eigenvalues --   -0.46559  -0.46324  -0.46268  -0.46049  -0.45906
 Alpha  occ. eigenvalues --   -0.45745  -0.45711  -0.45676  -0.45539  -0.45449
 Alpha  occ. eigenvalues --   -0.45184  -0.45170  -0.45103  -0.45047  -0.44804
 Alpha  occ. eigenvalues --   -0.44762  -0.44444  -0.44353  -0.44229  -0.44049
 Alpha  occ. eigenvalues --   -0.43801  -0.43726  -0.43670  -0.43535  -0.43317
 Alpha  occ. eigenvalues --   -0.43100  -0.42904  -0.42546  -0.42364  -0.42086
 Alpha  occ. eigenvalues --   -0.41817  -0.41643  -0.41416  -0.41331  -0.40637
 Alpha  occ. eigenvalues --   -0.40331  -0.40303  -0.40030  -0.39753  -0.39595
 Alpha  occ. eigenvalues --   -0.39249  -0.39153  -0.38739  -0.38538  -0.38193
 Alpha  occ. eigenvalues --   -0.37918  -0.37528  -0.36822  -0.36424  -0.36174
 Alpha  occ. eigenvalues --   -0.35325  -0.35279  -0.34943  -0.33541  -0.33414
 Alpha  occ. eigenvalues --   -0.33138  -0.33030  -0.32908  -0.32679  -0.32325
 Alpha  occ. eigenvalues --   -0.32179  -0.32133  -0.31237  -0.25647  -0.25620
 Alpha  occ. eigenvalues --   -0.23149  -0.22806
 Alpha virt. eigenvalues --   -0.07336  -0.06644   0.00677   0.00852   0.02433
 Alpha virt. eigenvalues --    0.02569   0.04434   0.04680   0.05053   0.05466
 Alpha virt. eigenvalues --    0.07018   0.07433   0.08127   0.08684   0.08912

 Mulliken charges:
               1
     1  Mg   0.974959
     2  C   -0.004276
     3  C   -0.064551
     4  C   -0.065528
     5  C   -0.074906
     6  N   -0.330649
     7  C    0.000746
     8  C   -0.084408
     9  C   -0.117947
    10  C    0.051618
    11  C    0.025223
    12  C    0.010991
    13  C   -0.102375
    14  H    0.032863
    15  N   -0.356559
    16  C    0.128939
    17  C   -0.163629
    18  C   -0.075758
    19  C    0.100378
    20  C    0.082250
    21  C    0.043377
    22  O   -0.247162
    23  C   -0.017046
    24  N   -0.351472
    25  C    0.050246
    26  C   -0.080524
    27  C   -0.041481
    28  C    0.061674
    29  C    0.035314
    30  C   -0.057930
    31  C   -0.043015
    32  N   -0.478626
    33  C    0.099410
    34  C   -0.189052
    35  C    0.040987
    36  C    0.138302
    37  C    0.096920
    38  C    0.037782
    39  O   -0.207994
    40  C   -0.056003
    41  C    0.260172
    42  O   -0.280682
    43  O   -0.359908
    44  C    0.146564
    45  H   -0.010833
    46  H    0.017011
    47  H   -0.000639
    48  H    0.049319
    49  H    0.042374
    50  H    0.031456
    51  H    0.050865
    52  H    0.041306
    53  H    0.012199
    54  H    0.032078
    55  H    0.055714
    56  H    0.054372
    57  H    0.030286
    58  H    0.036756
    59  H    0.063837
    60  H    0.053688
    61  H    0.071545
    62  H    0.050074
    63  H    0.036103
    64  H    0.036829
    65  H    0.036512
    66  H    0.039987
    67  H    0.051555
    68  H    0.029455
    69  H    0.029240
    70  H    0.038216
    71  H    0.037208
    72  H    0.036025
    73  H    0.026251
    74  H    0.066992
    75  H    0.060756
    76  H    0.060465
    77  H    0.053110
    78  H    0.075811
    79  H    0.036847
    80  Mg   0.973110
    81  C   -0.006935
    82  C   -0.074251
    83  C   -0.111318
    84  C   -0.060347
    85  N   -0.281951
    86  C   -0.051575
    87  C   -0.080785
    88  C   -0.121350
    89  C    0.037864
    90  C    0.009367
    91  C   -0.013327
    92  C   -0.096362
    93  H    0.058139
    94  N   -0.474558
    95  C    0.176220
    96  C   -0.164551
    97  C   -0.081506
    98  C    0.151222
    99  C    0.071216
   100  C    0.085450
   101  O   -0.233914
   102  C   -0.021477
   103  N   -0.406435
   104  C    0.075607
   105  C   -0.111986
   106  C   -0.035717
   107  C   -0.010162
   108  C    0.035616
   109  C   -0.020923
   110  C   -0.015427
   111  N   -0.411383
   112  C    0.152212
   113  C   -0.156781
   114  C   -0.070483
   115  C    0.151463
   116  C    0.070479
   117  C    0.116367
   118  O   -0.186964
   119  C   -0.074856
   120  C    0.263913
   121  O   -0.227595
   122  O   -0.360677
   123  C    0.124799
   124  H   -0.012884
   125  H    0.022276
   126  H   -0.019070
   127  H    0.047380
   128  H    0.048505
   129  H    0.042571
   130  H    0.025687
   131  H    0.050502
   132  H    0.035387
   133  H    0.032139
   134  H    0.051080
   135  H    0.036279
   136  H    0.044347
   137  H    0.048563
   138  H    0.050015
   139  H    0.058280
   140  H    0.054613
   141  H    0.041147
   142  H    0.040971
   143  H    0.042863
   144  H    0.048924
   145  H    0.031761
   146  H    0.040009
   147  H    0.022669
   148  H    0.035155
   149  H    0.032311
   150  H    0.032582
   151  H    0.035635
   152  H    0.029776
   153  H    0.042437
   154  H    0.064582
   155  H    0.079024
   156  H    0.049985
   157  H    0.069247
   158  H    0.055805
 Sum of Mulliken charges =  -0.00000

 Dipole moment (field-independent basis, Debye):
    X=              1.8304    Y=             -0.1090    Z=              6.3172  Tot=              6.5779
 Quadrupole moment (field-independent basis, Debye-Ang):
   XX=           -424.4119   YY=           -479.9780   ZZ=           -495.3170
   XY=             44.1548   XZ=            -13.9312   YZ=             35.9843

 Normal termination of Gaussian 16 at Mon Sep 20 18:47:09 2021.
