 Gaussian 16, Revision A.03,
 Gaussian 16:  ES64L-G16RevA.03 25-Dec-2016

 --------------------------------
 #p wB97XD/Def2SVP td=(nstates=5)
 --------------------------------

 --------------------------------
 TDDFT excited states in gaussian
 --------------------------------
 Symbolic Z-matrix:
 Charge =  0 Multiplicity = 1

                         Standard orientation:
 ---------------------------------------------------------------------
 Center     Atomic      Atomic             Coordinates (Angstroms)
 Number     Number       Type             X           Y           Z
 ---------------------------------------------------------------------
      1         12           0      -16.318910   -0.863953    0.075542
      2          6           0      -18.159667    2.110096    0.929268
      3          6           0      -13.695532    1.180318   -0.694322
      4          6           0      -14.720245   -3.608289   -1.003510
      5          6           0      -19.198117   -2.632885    0.439145
      6          7           0      -15.966395    1.486246    0.175307
      7          6           0      -16.875926    2.411163    0.599232
      8          6           0      -16.167778    3.709293    0.692635
      9          6           0      -14.776194    3.464873    0.046012
     10          6           0      -14.752935    1.940971   -0.253415
     11          6           0      -14.591399    4.289987   -1.267188
     12          6           0      -16.081205    4.314778    2.071275
     13          6           0      -15.586101    5.743924    2.224105
     14          1           0      -16.405149    6.645908    3.048431
     15          7           0      -14.452667   -1.178341   -0.620608
     16          6           0      -13.515997   -0.168293   -0.974499
     17          6           0      -12.273945   -0.865309   -1.358022
     18          6           0      -12.622372   -2.203480   -1.521730
     19          6           0      -14.023248   -2.371446   -1.094543
     20          6           0      -11.007220   -0.096806   -1.671561
     21          6           0      -11.753870   -3.399919   -1.966882
     22          8           0      -12.211357   -4.510093   -2.296944
     23          6           0      -10.293328   -3.199522   -1.965032
     24          7           0      -16.881191   -2.869486   -0.313037
     25          6           0      -16.094667   -3.839580   -0.731852
     26          6           0      -16.825043   -5.201088   -0.892828
     27          6           0      -18.151137   -4.894766   -0.193297
     28          6           0      -18.060919   -3.402688    0.030948
     29          6           0      -17.004946   -5.583414   -2.400751
     30          6           0      -18.440847   -5.650187    1.084117
     31          6           0      -19.873509   -6.184018    1.260517
     32          7           0      -18.231279   -0.382017    0.663975
     33          6           0      -19.302196   -1.242130    0.771707
     34          6           0      -20.515556   -0.537670    1.285274
     35          6           0      -20.035378    0.756204    1.309711
     36          6           0      -18.701685    0.831217    0.890272
     37          6           0      -21.800071   -1.126180    1.773819
     38          6           0      -20.449458    2.114931    1.627314
     39          8           0      -21.531424    2.482573    2.071040
     40          6           0      -19.254462    3.069024    1.400287
     41          6           0      -19.741442    4.146095    0.576700
     42          8           0      -19.966292    4.110001   -0.657100
     43          8           0      -19.776077    5.305895    1.289533
     44          6           0      -19.972552    6.551380    0.580403
     45          1           0      -12.820796    1.811490   -0.862841
     46          1           0      -14.263649   -4.464592   -1.503921
     47          1           0      -20.098996   -3.233561    0.298861
     48          1           0      -16.762719    4.352617    0.045671
     49          1           0      -13.955476    3.735181    0.710660
     50          1           0      -13.726500    4.924795   -1.462297
     51          1           0      -15.460503    4.947261   -1.289516
     52          1           0      -14.744263    3.730029   -2.190173
     53          1           0      -15.369432    3.774111    2.695330
     54          1           0      -16.965704    4.095675    2.668760
     55          1           0      -15.511003    6.230915    1.252993
     56          1           0      -14.700471    5.671626    2.854866
     57          1           0      -10.505435   -0.414042   -2.585476
     58          1           0      -10.265233   -0.120002   -0.873682
     59          1           0      -11.152915    0.964231   -1.875721
     60          1           0      -10.002612   -2.797929   -0.994202
     61          1           0      -10.163221   -2.450234   -2.745115
     62          1           0       -9.848634   -4.191122   -2.040681
     63          1           0      -16.225032   -5.931009   -0.348334
     64          1           0      -19.051072   -5.023967   -0.793888
     65          1           0      -18.052349   -5.554919   -2.699681
     66          1           0      -16.679700   -6.606165   -2.591339
     67          1           0      -16.441767   -4.833024   -2.955798
     68          1           0      -18.189674   -5.063525    1.967197
     69          1           0      -17.619555   -6.362331    1.157475
     70          1           0      -19.801730   -7.064863    1.897787
     71          1           0      -20.397605   -6.323847    0.314565
     72          1           0      -20.349093   -5.339091    1.758086
     73          1           0      -21.876841   -1.196599    2.858990
     74          1           0      -21.923691   -2.049433    1.208479
     75          1           0      -22.633553   -0.569772    1.343282
     76          1           0      -19.095321    3.535447    2.372473
     77          1           0      -19.966312    6.462011   -0.506236
     78          1           0      -19.274209    7.309304    0.934272
     79          1           0      -20.936846    7.004906    0.811136
     80         12           0       16.723444   -0.587031    0.250487
     81          6           0       15.512068    2.354327   -1.069702
     82          6           0       18.566736    1.354687    2.616980
     83          6           0       18.197467   -3.311053    1.331982
     84          6           0       15.036863   -2.425572   -2.186469
     85          7           0       16.944810    1.603856    0.656201
     86          6           0       16.333378    2.604854    0.016099
     87          6           0       16.686278    3.951186    0.728506
     88          6           0       17.783016    3.561574    1.822405
     89          6           0       17.818125    2.029389    1.662406
     90          6           0       19.201559    4.038300    1.576215
     91          6           0       15.478659    4.727781    1.274594
     92          6           0       15.495995    6.175483    0.813559
     93          1           0       14.821432    7.279010    1.641392
     94          7           0       18.119656   -0.918916    1.819826
     95          6           0       18.710372   -0.049419    2.690792
     96          6           0       19.521037   -0.698816    3.621391
     97          6           0       19.551527   -2.078991    3.217011
     98          6           0       18.578805   -2.167154    2.073511
     99          6           0       20.244822    0.003976    4.760729
    100          6           0       20.397511   -3.217375    3.763585
    101          8           0       20.394180   -4.304407    3.153914
    102          6           0       21.303731   -3.035906    4.912141
    103          7           0       16.584745   -2.529849   -0.334525
    104          6           0       17.254905   -3.552427    0.305006
    105          6           0       17.012364   -4.980319   -0.310865
    106          6           0       15.775259   -4.646231   -1.249290
    107          6           0       15.801548   -3.107192   -1.283806
    108          6           0       18.150284   -5.745806   -1.094827
    109          6           0       14.375900   -5.351535   -0.946486
    110          6           0       13.590655   -4.770527    0.199606
    111          7           0       15.645535   -0.196496   -1.377264
    112          6           0       15.006230   -0.999329   -2.302675
    113          6           0       14.291925   -0.251811   -3.255021
    114          6           0       14.443707    1.053141   -2.772249
    115          6           0       15.276096    1.061404   -1.615206
    116          6           0       13.503164   -0.886555   -4.319871
    117          6           0       14.124484    2.374092   -3.156482
    118          8           0       13.546102    2.741941   -4.180975
    119          6           0       14.784439    3.341348   -2.041201
    120          6           0       15.682803    4.276238   -2.695525
    121          8           0       16.780488    4.035217   -3.143400
    122          8           0       15.090773    5.453997   -2.851087
    123          6           0       15.765402    6.480226   -3.586982
    124          1           0       19.165415    1.958248    3.301741
    125          1           0       18.606117   -4.293040    1.577983
    126          1           0       14.527537   -3.038970   -2.932713
    127          1           0       17.179132    4.474320   -0.090341
    128          1           0       17.469049    4.070569    2.734381
    129          1           0       19.314931    4.699708    0.716746
    130          1           0       19.851060    3.190348    1.360563
    131          1           0       19.624044    4.433595    2.500478
    132          1           0       15.369728    4.706649    2.359072
    133          1           0       14.578726    4.231483    0.912161
    134          1           0       14.921913    6.197960   -0.113446
    135          1           0       16.546441    6.433440    0.680267
    136          1           0       19.889709    1.025872    4.894253
    137          1           0       21.289810    0.138505    4.480575
    138          1           0       20.244180   -0.607053    5.662588
    139          1           0       22.078850   -3.803052    4.919470
    140          1           0       20.707034   -3.189887    5.811755
    141          1           0       21.769964   -2.051628    4.875529
    142          1           0       16.572356   -5.672049    0.408176
    143          1           0       15.974078   -5.056396   -2.238624
    144          1           0       19.041215   -5.119283   -1.078809
    145          1           0       17.914556   -5.729648   -2.159653
    146          1           0       18.394777   -6.763719   -0.789845
    147          1           0       14.615894   -6.368679   -0.637740
    148          1           0       13.736602   -5.464455   -1.821239
    149          1           0       12.536927   -4.911313   -0.038555
    150          1           0       13.750889   -3.744573    0.528656
    151          1           0       13.864428   -5.349255    1.081789
    152          1           0       13.055117   -1.861425   -4.129240
    153          1           0       13.938867   -0.862350   -5.317981
    154          1           0       12.692918   -0.165991   -4.428246
    155          1           0       13.975410    3.888428   -1.557563
    156          1           0       16.399845    7.098247   -2.950633
    157          1           0       14.994995    7.143037   -3.980576
    158          1           0       16.386044    6.032247   -4.363158
 ---------------------------------------------------------------------

 SCF Done:  E(RwB97XD) =  -4070.63194964     A.U. after   19 cycles

 Excitation energies and oscillator strengths:

 Excited State   1:      Singlet-A      1.6476 eV  752.50 nm  f=0.4248  <S**2>=0.000
     309 -> 316       -0.17805
     311 -> 313        0.68410
     309 <- 316       -0.11435
 This state for optimization and/or second-order correction.
 Total Energy, E(TD-HF/TD-DFT) =  -4070.57139994
 Copying the excited state density for this state as the 1-particle RhoCI density.

 Excited State   2:      Singlet-A      1.6935 eV  732.11 nm  f=0.3685  <S**2>=0.000
     310 -> 315        0.20444
     312 -> 314        0.67897
     310 <- 315        0.12248

 Excited State   3:      Singlet-A      2.1651 eV  572.64 nm  f=0.1544  <S**2>=0.000
     309 -> 313        0.65107
     311 -> 316        0.25708

 Excited State   4:      Singlet-A      2.2627 eV  547.96 nm  f=0.0704  <S**2>=0.000
     310 -> 314        0.61592
     312 -> 315       -0.33991

 Excited State   5:      Singlet-A      3.7090 eV  334.28 nm  f=0.0000  <S**2>=0.000
     312 -> 313        0.70708

 The electronic state is 1-A.
 Alpha  occ. eigenvalues --  -46.94843 -46.94085 -19.30407 -19.30062 -19.24078
 Alpha  occ. eigenvalues --  -19.23825 -19.23702 -19.23676 -19.23586 -19.23343
 Alpha  occ. eigenvalues --  -14.46943 -14.46838 -14.46478 -14.45713 -14.44390
 Alpha  occ. eigenvalues --  -14.44376 -14.44190 -14.43610 -10.42999 -10.42141
 Alpha  occ. eigenvalues --  -10.39223 -10.38891 -10.38577 -10.38482 -10.35613
 Alpha  occ. eigenvalues --  -10.35292 -10.35208 -10.34975 -10.34956 -10.34856
 Alpha  occ. eigenvalues --  -10.34793 -10.34607 -10.34588 -10.34561 -10.34463
 Alpha  occ. eigenvalues --  -10.34440 -10.34188 -10.34086 -10.33465 -10.33198
 Alpha  occ. eigenvalues --  -10.33100 -10.33028 -10.32661 -10.32538 -10.32537
 Alpha  occ. eigenvalues --  -10.32486 -10.32454 -10.32378 -10.32356 -10.32170
 Alpha  occ. eigenvalues --  -10.32140 -10.32068 -10.32037 -10.32019 -10.31788
 Alpha  occ. eigenvalues --  -10.31722 -10.31695 -10.31684 -10.31668 -10.31493
 Alpha  occ. eigenvalues --  -10.31436 -10.31432 -10.31283 -10.31257 -10.31114
 Alpha  occ. eigenvalues --  -10.31032 -10.30964 -10.30769 -10.30575 -10.30344
 Alpha  occ. eigenvalues --  -10.30309 -10.30227 -10.30215 -10.30093 -10.30068
 Alpha  occ. eigenvalues --  -10.29961 -10.29846 -10.29843 -10.29840 -10.29773
 Alpha  occ. eigenvalues --  -10.29674 -10.29560 -10.29471 -10.28819 -10.28716
 Alpha  occ. eigenvalues --  -10.28646  -3.20880  -3.20278  -1.94480  -1.93997
 Alpha  occ. eigenvalues --   -1.93873  -1.93861  -1.93425  -1.93255  -1.20144
 Alpha  occ. eigenvalues --   -1.18312  -1.11717  -1.11280  -1.11134  -1.10772
 Alpha  occ. eigenvalues --   -1.10006  -1.08159  -1.07772  -1.06655  -1.06617
 Alpha  occ. eigenvalues --   -1.05804  -1.05380  -1.05090  -1.04631  -1.04236
 Alpha  occ. eigenvalues --   -0.95161  -0.94095  -0.91954  -0.91327  -0.91189
 Alpha  occ. eigenvalues --   -0.90697  -0.90415  -0.90256  -0.89629  -0.89541
 Alpha  occ. eigenvalues --   -0.89494  -0.89009  -0.88777  -0.88579  -0.86629
 Alpha  occ. eigenvalues --   -0.86569  -0.85957  -0.85800  -0.84882  -0.84821
 Alpha  occ. eigenvalues --   -0.84529  -0.84371  -0.83199  -0.83195  -0.82864
 Alpha  occ. eigenvalues --   -0.82615  -0.80633  -0.80361  -0.79648  -0.79374
 Alpha  occ. eigenvalues --   -0.79301  -0.78881  -0.78485  -0.77930  -0.77262
 Alpha  occ. eigenvalues --   -0.77182  -0.75486  -0.74990  -0.73930  -0.73471
 Alpha  occ. eigenvalues --   -0.71608  -0.71460  -0.71227  -0.70878  -0.70042
 Alpha  occ. eigenvalues --   -0.69796  -0.69138  -0.68531  -0.68331  -0.67388
 Alpha  occ. eigenvalues --   -0.67373  -0.67109  -0.66966  -0.66619  -0.66567
 Alpha  occ. eigenvalues --   -0.66400  -0.64537  -0.64348  -0.62469  -0.62393
 Alpha  occ. eigenvalues --   -0.62035  -0.61900  -0.61493  -0.61042  -0.60763
 Alpha  occ. eigenvalues --   -0.60543  -0.60365  -0.60353  -0.59715  -0.59625
 Alpha  occ. eigenvalues --   -0.58552  -0.58473  -0.58144  -0.57699  -0.57522
 Alpha  occ. eigenvalues --   -0.57143  -0.56636  -0.56371  -0.56343  -0.55962
 Alpha  occ. eigenvalues --   -0.55831  -0.55501  -0.55419  -0.55178  -0.55130
 Alpha  occ. eigenvalues --   -0.54883  -0.54748  -0.54496  -0.54285  -0.54067
 Alpha  occ. eigenvalues --   -0.53912  -0.53802  -0.53720  -0.53640  -0.53330
 Alpha  occ. eigenvalues --   -0.53128  -0.52721  -0.52451  -0.52317  -0.52265
 Alpha  occ. eigenvalues --   -0.52222  -0.51975  -0.51864  -0.51651  -0.51586
 Alpha  occ. eigenvalues --   -0.51466  -0.51205  -0.51124  -0.51007  -0.50917
 Alpha  occ. eigenvalues --   -0.50603  -0.50374  -0.50313  -0.50269  -0.50112
 Alpha  occ. eigenvalues --   -0.49881  -0.49759  -0.49756  -0.49335  -0.49296
 Alpha  occ. eigenvalues --   -0.49162  -0.48977  -0.48857  -0.48501  -0.48470
 Alpha  occ. eigenvalues --   -0.48358  -0.48156  -0.47996  -0.47969  -0.47513
 Alpha  occ. eigenvalues --   -0.47488  -0.47395  -0.47104  -0.47091  -0.47015
 Alpha  occ. eigenvalues --   -0.46908  -0.46564  -0.46465  -0.46344  -0.45887
 Alpha  occ. eigenvalues --   -0.45879  -0.45834  -0.45633  -0.45608  -0.45483
 Alpha  occ. eigenvalues --   -0.45338  -0.45248  -0.45067  -0.44657  -0.44534
 Alpha  occ. eigenvalues --   -0.44465  -0.44353  -0.43981  -0.43970  -0.43674
 Alpha  occ. eigenvalues --   -0.43647  -0.43571  -0.43509  -0.43470  -0.43379
 Alpha  occ. eigenvalues --   -0.43214  -0.43058  -0.42979  -0.42955  -0.42768
 Alpha  occ. eigenvalues --   -0.42428  -0.42045  -0.41815  -0.41157  -0.40909
 Alpha  occ. eigenvalues --   -0.40713  -0.40153  -0.39842  -0.39708  -0.39224
 Alpha  occ. eigenvalues --   -0.39219  -0.38678  -0.38381  -0.38161  -0.38018
 Alpha  occ. eigenvalues --   -0.37916  -0.37667  -0.36276  -0.35885  -0.35844
 Alpha  occ. eigenvalues --   -0.35495  -0.35431  -0.35167  -0.33780  -0.33719
 Alpha  occ. eigenvalues --   -0.32990  -0.32763  -0.32757  -0.32602  -0.32534
 Alpha  occ. eigenvalues --   -0.32439  -0.32269  -0.31992  -0.26093  -0.26006
 Alpha  occ. eigenvalues --   -0.23336  -0.22726
 Alpha virt. eigenvalues --   -0.07512  -0.06511   0.00097   0.00450   0.02487
 Alpha virt. eigenvalues --    0.02787   0.04535   0.04618   0.06126   0.06165
 Alpha virt. eigenvalues --    0.06680   0.07876   0.08128   0.08200   0.08922

 Mulliken charges:
               1
     1  Mg   0.974513
     2  C    0.002915
     3  C   -0.074067
     4  C   -0.058883
     5  C   -0.108594
     6  N   -0.330707
     7  C   -0.063325
     8  C    0.015617
     9  C   -0.121679
    10  C    0.063829
    11  C    0.011197
    12  C    0.011751
    13  C   -0.119974
    14  H    0.035278
    15  N   -0.515732
    16  C    0.190037
    17  C   -0.128876
    18  C   -0.091712
    19  C    0.167180
    20  C    0.036572
    21  C    0.055281
    22  O   -0.254792
    23  C    0.008607
    24  N   -0.326308
    25  C   -0.014109
    26  C   -0.060034
    27  C   -0.104867
    28  C    0.037494
    29  C    0.034231
    30  C    0.005216
    31  C   -0.035324
    32  N   -0.421114
    33  C    0.133090
    34  C   -0.209221
    35  C   -0.009036
    36  C    0.152658
    37  C    0.108959
    38  C    0.073389
    39  O   -0.209209
    40  C   -0.032131
    41  C    0.264695
    42  O   -0.283618
    43  O   -0.351478
    44  C    0.134868
    45  H   -0.012303
    46  H    0.030627
    47  H    0.003559
    48  H    0.033964
    49  H    0.037525
    50  H    0.041083
    51  H    0.017671
    52  H    0.035963
    53  H    0.014253
    54  H    0.025731
    55  H    0.056621
    56  H    0.056699
    57  H    0.040436
    58  H    0.054025
    59  H    0.039030
    60  H    0.053153
    61  H    0.060539
    62  H    0.061904
    63  H    0.043748
    64  H    0.028155
    65  H    0.033576
    66  H    0.048015
    67  H    0.054539
    68  H    0.023049
    69  H    0.008844
    70  H    0.052172
    71  H    0.038564
    72  H    0.041142
    73  H    0.077436
    74  H    0.017104
    75  H    0.049452
    76  H    0.080831
    77  H    0.066868
    78  H    0.047342
    79  H    0.046095
    80  Mg   0.992339
    81  C   -0.044808
    82  C   -0.105129
    83  C   -0.051490
    84  C   -0.104154
    85  N   -0.349845
    86  C   -0.028250
    87  C   -0.021312
    88  C   -0.162807
    89  C    0.116001
    90  C    0.006195
    91  C    0.037888
    92  C   -0.145888
    93  H    0.028782
    94  N   -0.425594
    95  C    0.160306
    96  C   -0.175183
    97  C   -0.074110
    98  C    0.171355
    99  C    0.066545
   100  C    0.038184
   101  O   -0.260123
   102  C    0.004519
   103  N   -0.396127
   104  C    0.027496
   105  C   -0.070175
   106  C   -0.076042
   107  C    0.087135
   108  C    0.029241
   109  C   -0.031252
   110  C   -0.058208
   111  N   -0.470312
   112  C    0.132167
   113  C   -0.134490
   114  C   -0.037985
   115  C    0.195475
   116  C    0.072405
   117  C    0.096070
   118  O   -0.219471
   119  C   -0.078183
   120  C    0.235520
   121  O   -0.251447
   122  O   -0.328113
   123  C    0.135819
   124  H   -0.002067
   125  H    0.021905
   126  H   -0.004693
   127  H    0.033220
   128  H    0.042968
   129  H    0.043852
   130  H    0.040446
   131  H    0.035226
   132  H    0.039536
   133  H    0.029974
   134  H    0.063157
   135  H    0.056204
   136  H    0.042425
   137  H    0.057109
   138  H    0.056365
   139  H    0.055951
   140  H    0.067048
   141  H    0.045031
   142  H    0.038413
   143  H    0.027442
   144  H    0.039911
   145  H    0.027363
   146  H    0.056826
   147  H    0.029226
   148  H    0.032954
   149  H    0.037723
   150  H    0.047601
   151  H    0.028762
   152  H    0.045969
   153  H    0.055619
   154  H    0.045302
   155  H    0.065463
   156  H    0.042576
   157  H    0.055505
   158  H    0.066743
 Sum of Mulliken charges =  -0.00000

 Dipole moment (field-independent basis, Debye):
    X=              5.0901    Y=             -0.6206    Z=              5.4040  Tot=              7.4496
 Quadrupole moment (field-independent basis, Debye-Ang):
   XX=           -641.7899   YY=           -471.3886   ZZ=           -513.2027
   XY=             49.7370   XZ=             65.3851   YZ=             13.6681

 Normal termination of Gaussian 16 at Mon Sep 20 03:40:40 2021.
