 Gaussian 16, Revision A.03,
 Gaussian 16:  ES64L-G16RevA.03 25-Dec-2016

 --------------------------------
 #p wB97XD/Def2SVP td=(nstates=5)
 --------------------------------

 --------------------------------
 TDDFT excited states in gaussian
 --------------------------------
 Symbolic Z-matrix:
 Charge =  0 Multiplicity = 1

                         Standard orientation:
 ---------------------------------------------------------------------
 Center     Atomic      Atomic             Coordinates (Angstroms)
 Number     Number       Type             X           Y           Z
 ---------------------------------------------------------------------
      1         12           0       -0.604360    0.118690   -0.323739
      2          6           0        2.807269   -0.186891    0.276938
      3          6           0       -0.843531   -3.332422   -0.086461
      4          6           0       -3.905098    0.292604   -0.333576
      5          6           0       -0.319550    3.556314   -0.040625
      6          7           0        0.770289   -1.544885    0.208384
      7          6           0        2.145005   -1.446914    0.275113
      8          6           0        2.821518   -2.784063    0.343428
      9          6           0        1.662870   -3.754660   -0.157342
     10          6           0        0.438566   -2.867649    0.025816
     11          6           0        1.775408   -4.577170   -1.527709
     12          6           0        3.480438   -3.147231    1.754082
     13          6           0        2.794650   -2.593216    3.038295
     14          1           0        2.730615   -3.577157    4.181694
     15          7           0       -2.179883   -1.310249   -0.106059
     16          6           0       -2.060164   -2.703740   -0.034853
     17          6           0       -3.340850   -3.335598    0.127129
     18          6           0       -4.280855   -2.278550    0.081048
     19          6           0       -3.500762   -1.017671   -0.096696
     20          6           0       -3.467672   -4.856843    0.031397
     21          6           0       -5.801988   -2.537519    0.171719
     22          8           0       -6.263802   -3.663174    0.384768
     23          6           0       -6.668432   -1.373301   -0.067039
     24          7           0       -1.874947    1.730723   -0.077996
     25          6           0       -3.207883    1.544035   -0.403435
     26          6           0       -3.987212    2.870927   -0.536524
     27          6           0       -2.803619    3.865632   -0.193226
     28          6           0       -1.612985    3.026865   -0.045340
     29          6           0       -4.670625    3.196235   -1.827091
     30          6           0       -3.049034    4.686251    1.172345
     31          6           0       -2.743052    6.149794    0.988232
     32          7           0        0.948285    1.497448   -0.148870
     33          6           0        0.906359    2.875530   -0.045753
     34          6           0        2.277130    3.410344    0.120905
     35          6           0        3.071699    2.218481    0.251000
     36          6           0        2.212119    1.126332    0.084778
     37          6           0        2.741709    4.779415    0.411871
     38          6           0        4.402122    1.642135    0.540083
     39          8           0        5.430531    2.201899    0.842448
     40          6           0        4.289610    0.083610    0.526900
     41          6           0        5.231373   -0.485597   -0.437776
     42          8           0        6.182790   -1.246914   -0.261099
     43          8           0        5.052663    0.225787   -1.653183
     44          6           0        5.879530   -0.238592   -2.787621
     45          1           0       -0.838129   -4.411280   -0.258278
     46          1           0       -4.962995    0.470100   -0.537451
     47          1           0       -0.330475    4.647710   -0.041171
     48          1           0        3.666655   -2.814619   -0.344167
     49          1           0        1.658818   -4.485229    0.651970
     50          1           0        2.730533   -4.504763   -2.047593
     51          1           0        1.069913   -4.254202   -2.293151
     52          1           0        1.747620   -5.644708   -1.307604
     53          1           0        4.540965   -2.897635    1.756811
     54          1           0        3.491362   -4.235826    1.807790
     55          1           0        1.792489   -2.227508    2.812541
     56          1           0        3.355450   -1.738609    3.415774
     57          1           0       -4.279331   -5.269597    0.631350
     58          1           0       -2.577968   -5.316651    0.460838
     59          1           0       -3.653570   -5.071397   -1.021251
     60          1           0       -6.604862   -1.105750   -1.121358
     61          1           0       -6.374521   -0.554610    0.590569
     62          1           0       -7.674699   -1.720078    0.167891
     63          1           0       -4.645578    2.948417    0.329037
     64          1           0       -2.666007    4.396220   -1.135352
     65          1           0       -4.959288    4.244800   -1.752557
     66          1           0       -5.609145    2.641987   -1.838330
     67          1           0       -4.024517    2.957494   -2.672701
     68          1           0       -2.428235    4.209973    1.931095
     69          1           0       -4.026579    4.582905    1.645026
     70          1           0       -1.843279    6.376144    1.559807
     71          1           0       -3.451690    6.791384    1.513017
     72          1           0       -2.497948    6.347295   -0.055129
     73          1           0        1.964198    5.542216    0.474525
     74          1           0        3.370844    5.064526   -0.430623
     75          1           0        3.103493    4.648150    1.431468
     76          1           0        4.535287   -0.214676    1.545832
     77          1           0        5.151857   -0.263020   -3.599600
     78          1           0        6.386222   -1.203220   -2.757017
     79          1           0        6.496792    0.623634   -3.040602
 ---------------------------------------------------------------------

 SCF Done:  E(RwB97XD) =  -2035.30562047     A.U. after   20 cycles

 Excitation energies and oscillator strengths:

 Excited State   1:      Singlet-A      1.6615 eV  746.21 nm  f=0.3701  <S**2>=0.000
     155 ->158         0.18785
     156 ->157         0.68149
     155 <-158         0.11480
 This state for optimization and/or second-order correction.
 Total Energy, E(TD-HF/TD-DFT) =  -2035.24456086
 Copying the excited state density for this state as the 1-particle RhoCI density.

 Excited State   2:      Singlet-A      2.1479 eV  577.23 nm  f=0.0864  <S**2>=0.000
     155 ->157         0.62820
     156 ->158        -0.30712

 Excited State   3:      Singlet-A      3.4236 eV  362.14 nm  f=0.0612  <S**2>=0.000
     153 ->157        -0.15607
     154 ->157         0.62224
     156 ->158         0.23468

 Excited State   4:      Singlet-A      3.4390 eV  360.52 nm  f=0.3147  <S**2>=0.000
     153 ->157         0.43815
     154 ->157        -0.10472
     155 ->157         0.19970
     156 ->158         0.49194

 Excited State   5:      Singlet-A      3.6348 eV  341.10 nm  f=0.4782  <S**2>=0.000
     153 ->157         0.50029
     154 ->157         0.26991
     155 ->157        -0.24133
     156 ->158        -0.31894

 The electronic state is 1-A.
 Alpha  occ. eigenvalues --  -46.95455 -19.29582 -19.25493 -19.24064 -19.23879
 Alpha  occ. eigenvalues --  -14.46849 -14.46789 -14.44264 -14.43776 -10.43604
 Alpha  occ. eigenvalues --  -10.39147 -10.39080 -10.35691 -10.35215 -10.35027
 Alpha  occ. eigenvalues --  -10.34735 -10.34670 -10.34142 -10.34087 -10.33400
 Alpha  occ. eigenvalues --  -10.32949 -10.32800 -10.32620 -10.32573 -10.32382
 Alpha  occ. eigenvalues --  -10.32379 -10.32319 -10.32279 -10.32116 -10.31723
 Alpha  occ. eigenvalues --  -10.31428 -10.31210 -10.31095 -10.31016 -10.30871
 Alpha  occ. eigenvalues --  -10.30830 -10.30745 -10.30082 -10.30069 -10.29907
 Alpha  occ. eigenvalues --  -10.29901 -10.29569 -10.29448  -3.21425  -1.94997
 Alpha  occ. eigenvalues --   -1.94563  -1.94386  -1.16975  -1.12612  -1.11597
 Alpha  occ. eigenvalues --   -1.09114  -1.07064  -1.05727  -1.05222  -1.04395
 Alpha  occ. eigenvalues --   -0.94435  -0.91510  -0.91170  -0.89887  -0.89564
 Alpha  occ. eigenvalues --   -0.88818  -0.88160  -0.86733  -0.86366  -0.84664
 Alpha  occ. eigenvalues --   -0.84278  -0.82799  -0.82109  -0.80239  -0.79460
 Alpha  occ. eigenvalues --   -0.78764  -0.78145  -0.77707  -0.74634  -0.74127
 Alpha  occ. eigenvalues --   -0.71360  -0.71244  -0.70085  -0.68828  -0.68347
 Alpha  occ. eigenvalues --   -0.66904  -0.66517  -0.65992  -0.64532  -0.62255
 Alpha  occ. eigenvalues --   -0.61404  -0.60940  -0.60277  -0.59514  -0.59200
 Alpha  occ. eigenvalues --   -0.58299  -0.57770  -0.57348  -0.57049  -0.56551
 Alpha  occ. eigenvalues --   -0.55797  -0.54865  -0.54654  -0.54562  -0.54112
 Alpha  occ. eigenvalues --   -0.53918  -0.53545  -0.53047  -0.52751  -0.52372
 Alpha  occ. eigenvalues --   -0.52234  -0.51554  -0.51498  -0.51257  -0.50760
 Alpha  occ. eigenvalues --   -0.50503  -0.50190  -0.50100  -0.49684  -0.49206
 Alpha  occ. eigenvalues --   -0.48875  -0.48465  -0.48217  -0.48145  -0.47661
 Alpha  occ. eigenvalues --   -0.47322  -0.47060  -0.46911  -0.46861  -0.46635
 Alpha  occ. eigenvalues --   -0.46576  -0.45864  -0.45360  -0.45168  -0.45047
 Alpha  occ. eigenvalues --   -0.44750  -0.44451  -0.44066  -0.43961  -0.43676
 Alpha  occ. eigenvalues --   -0.43583  -0.43125  -0.42374  -0.41881  -0.41016
 Alpha  occ. eigenvalues --   -0.40436  -0.39964  -0.39404  -0.38908  -0.38551
 Alpha  occ. eigenvalues --   -0.37660  -0.37149  -0.36775  -0.35574  -0.33502
 Alpha  occ. eigenvalues --   -0.33145  -0.32799  -0.32173  -0.31835  -0.26021
 Alpha  occ. eigenvalues --   -0.23025
 Alpha virt. eigenvalues --   -0.07011  -0.00318   0.02719   0.04558   0.04855
 Alpha virt. eigenvalues --    0.06207   0.07459   0.08682   0.09463   0.10664
 Alpha virt. eigenvalues --    0.11391   0.12064   0.12857   0.12997   0.13769

 Mulliken charges:
               1
     1  Mg   0.956566
     2  C   -0.040815
     3  C   -0.109706
     4  C   -0.099732
     5  C   -0.098552
     6  N   -0.351179
     7  C    0.005633
     8  C   -0.079531
     9  C   -0.050015
    10  C    0.025503
    11  C    0.014889
    12  C   -0.013907
    13  C   -0.131301
    14  H    0.040652
    15  N   -0.438407
    16  C    0.180473
    17  C   -0.147205
    18  C   -0.107032
    19  C    0.207188
    20  C    0.079934
    21  C    0.051258
    22  O   -0.236324
    23  C   -0.010328
    24  N   -0.369034
    25  C    0.022475
    26  C   -0.081681
    27  C   -0.120602
    28  C    0.043154
    29  C    0.052819
    30  C   -0.004604
    31  C   -0.029178
    32  N   -0.431051
    33  C    0.160602
    34  C   -0.200446
    35  C   -0.051356
    36  C    0.127693
    37  C    0.085793
    38  C    0.113335
    39  O   -0.186395
    40  C   -0.041025
    41  C    0.283629
    42  O   -0.239871
    43  O   -0.406694
    44  C    0.140505
    45  H   -0.005338
    46  H   -0.020505
    47  H   -0.017677
    48  H    0.039137
    49  H    0.033414
    50  H    0.033386
    51  H    0.047820
    52  H    0.043638
    53  H    0.053286
    54  H    0.034482
    55  H    0.067875
    56  H    0.053333
    57  H    0.060247
    58  H    0.036772
    59  H    0.064845
    60  H    0.070838
    61  H    0.065190
    62  H    0.051339
    63  H    0.031711
    64  H    0.032432
    65  H    0.042847
    66  H    0.037344
    67  H    0.047641
    68  H    0.039939
    69  H    0.030708
    70  H    0.027368
    71  H    0.038725
    72  H    0.043347
    73  H    0.019166
    74  H    0.066782
    75  H    0.074752
    76  H    0.069311
    77  H    0.037395
    78  H    0.075532
    79  H    0.056790
 Sum of Mulliken charges =  -0.00000

 Dipole moment (field-independent basis, Debye):
    X=             -3.7896    Y=              2.1626    Z=             -3.6710  Tot=              5.7021
 Quadrupole moment (field-independent basis, Debye-Ang):
   XX=           -294.5074   YY=           -240.6180   ZZ=           -247.0849
   XY=            -37.0135   XZ=             -7.8244   YZ=              5.3618

 Normal termination of Gaussian 16 at Sun Sep 19 17:04:28 2021.
