 Gaussian 16, Revision A.03,
 Gaussian 16:  ES64L-G16RevA.03 25-Dec-2016

 --------------------------------
 #p wB97XD/Def2SVP td=(nstates=5)
 --------------------------------

 --------------------------------
 TDDFT excited states in gaussian
 --------------------------------
 Symbolic Z-matrix:
 Charge =  0 Multiplicity = 1

                         Standard orientation:
 ---------------------------------------------------------------------
 Center     Atomic      Atomic             Coordinates (Angstroms)
 Number     Number       Type             X           Y           Z
 ---------------------------------------------------------------------
      1         12           0       13.080251    0.133552    0.269811
      2          6           0        9.689940   -0.487299   -0.192520
      3          6           0       13.399814    0.639512   -3.104319
      4          6           0       16.443195    0.414274    0.745244
      5          6           0       12.554090   -0.681492    3.689194
      6          7           0       11.718807    0.048539   -1.447046
      7          6           0       10.360983   -0.105640   -1.350490
      8          6           0        9.802723    0.076829   -2.764011
      9          6           0       11.011331    0.127132   -3.681621
     10          6           0       12.128411    0.322634   -2.662854
     11          6           0       11.268055   -0.999478   -4.646156
     12          6           0        8.776441    1.293667   -2.949197
     13          6           0        8.371417    1.626163   -4.421288
     14          1           0        7.114505    0.940275   -5.017773
     15          7           0       14.651065    0.623175   -0.994958
     16          6           0       14.592589    0.760943   -2.342973
     17          6           0       15.939518    1.001045   -2.791528
     18          6           0       16.814829    0.927500   -1.668304
     19          6           0       16.002749    0.623615   -0.577191
     20          6           0       16.222224    1.253367   -4.240386
     21          6           0       18.369344    0.997000   -1.704558
     22          8           0       19.051656    0.588474   -0.781993
     23          6           0       19.128234    1.432079   -2.865878
     24          7           0       14.228221   -0.087243    1.886829
     25          6           0       15.607491    0.118537    1.887146
     26          6           0       16.226387   -0.037879    3.287044
     27          6           0       14.948676   -0.095786    4.191650
     28          6           0       13.828539   -0.253787    3.176666
     29          6           0       17.286462   -1.049880    3.431963
     30          6           0       14.684661    1.088078    5.277415
     31          6           0       14.568076    0.765365    6.770102
     32          7           0       11.432115   -0.537254    1.556553
     33          6           0       11.413309   -0.827877    2.891850
     34          6           0       10.108111   -1.204724    3.319185
     35          6           0        9.331493   -1.012310    2.113240
     36          6           0       10.223924   -0.688827    1.053009
     37          6           0        9.755554   -1.560407    4.713193
     38          6           0        7.981777   -0.996874    1.597835
     39          8           0        6.883704   -1.140791    2.098468
     40          6           0        8.190409   -0.648147    0.008916
     41          6           0        7.477372   -1.619031   -0.859855
     42          8           0        7.781916   -2.787873   -0.953612
     43          8           0        6.465478   -1.054059   -1.541558
     44          6           0        5.831570   -1.873380   -2.644748
     45          1           0       13.498190    0.854432   -4.170685
     46          1           0       17.524436    0.502590    0.868636
     47          1           0       12.595346   -0.868245    4.764481
     48          1           0        9.257260   -0.860828   -2.869744
     49          1           0       10.926182    0.990352   -4.341226
     50          1           0       12.113105   -1.467493   -4.142162
     51          1           0       11.463934   -0.648859   -5.659569
     52          1           0       10.477796   -1.750309   -4.628664
     53          1           0        9.341652    2.120779   -2.519113
     54          1           0        7.869605    1.102261   -2.376724
     55          1           0        9.158833    1.359662   -5.125193
     56          1           0        8.237631    2.705497   -4.493564
     57          1           0       15.377602    1.334480   -4.925299
     58          1           0       16.765821    0.375379   -4.587723
     59          1           0       16.894575    2.095671   -4.404581
     60          1           0       18.899218    1.026726   -3.850909
     61          1           0       20.212150    1.380259   -2.764041
     62          1           0       18.945272    2.506402   -2.861620
     63          1           0       16.660361    0.959686    3.360368
     64          1           0       15.095575   -1.085153    4.624567
     65          1           0       18.283108   -0.689559    3.688274
     66          1           0       17.356900   -1.585970    2.485162
     67          1           0       17.099404   -1.780756    4.218583
     68          1           0       13.752707    1.580098    4.999718
     69          1           0       15.393034    1.917111    5.298754
     70          1           0       13.551499    0.775298    7.164124
     71          1           0       15.261420    1.308454    7.411682
     72          1           0       14.826913   -0.286308    6.893702
     73          1           0       10.514253   -2.241734    5.097525
     74          1           0        8.748273   -1.966479    4.801911
     75          1           0        9.959414   -0.684845    5.330419
     76          1           0        7.703636    0.315242   -0.139359
     77          1           0        4.867351   -1.380047   -2.765145
     78          1           0        5.742409   -2.904987   -2.304849
     79          1           0        6.445820   -1.726751   -3.533295
     80         12           0      -12.572950   -0.485867   -0.425430
     81          6           0      -12.286174    2.888748    0.274058
     82          6           0       -9.069646   -0.584744   -0.982124
     83          6           0      -12.668731   -3.908453   -0.562888
     84          6           0      -15.877288   -0.474848    0.579674
     85          7           0      -10.937212    1.036659   -0.476434
     86          6           0      -11.058279    2.342534   -0.050054
     87          6           0       -9.683115    3.094075    0.104061
     88          6           0       -8.709310    2.096093   -0.683276
     89          6           0       -9.595087    0.733677   -0.792390
     90          6           0       -8.126764    2.530806   -2.081870
     91          6           0       -9.240545    3.328386    1.505538
     92          6           0       -9.035858    4.736739    2.029779
     93          1           0       -7.990244    4.895919    3.145177
     94          7           0      -11.075413   -2.037352   -0.827145
     95          6           0       -9.709988   -1.803173   -1.076459
     96          6           0       -9.063513   -3.035420   -1.398762
     97          6           0      -10.090296   -4.074512   -1.123581
     98          6           0      -11.371512   -3.374266   -0.799055
     99          6           0       -7.560467   -3.174647   -1.661814
    100          6           0       -9.758073   -5.573435   -1.225253
    101          8           0       -8.672486   -6.077504   -1.498277
    102          6           0      -10.739880   -6.523629   -0.636617
    103          7           0      -14.074801   -2.070211    0.143889
    104          6           0      -13.886979   -3.352428   -0.197115
    105          6           0      -15.028180   -4.142912    0.441275
    106          6           0      -16.168565   -3.067115    0.760018
    107          6           0      -15.346598   -1.736698    0.453004
    108          6           0      -15.593397   -5.180468   -0.592347
    109          6           0      -16.840740   -3.032454    2.193725
    110          6           0      -18.313591   -3.372637    2.365781
    111          7           0      -13.901920    0.951708    0.226427
    112          6           0      -15.250725    0.826375    0.573549
    113          6           0      -15.758605    2.087692    1.019486
    114          6           0      -14.635205    2.967145    0.935201
    115          6           0      -13.545290    2.184066    0.387907
    116          6           0      -17.136629    2.422239    1.496829
    117          6           0      -14.166627    4.282516    1.088295
    118          8           0      -14.783664    5.256496    1.470695
    119          6           0      -12.624936    4.281285    0.752595
    120          6           0      -12.331130    5.439650   -0.105618
    121          8           0      -11.771819    6.452495    0.299281
    122          8           0      -12.799278    5.213065   -1.391307
    123          6           0      -12.575704    6.360437   -2.299365
    124          1           0       -8.013654   -0.730827   -1.216924
    125          1           0      -12.628552   -4.989801   -0.712331
    126          1           0      -16.909877   -0.500078    0.933694
    127          1           0       -9.730620    4.046195   -0.423295
    128          1           0       -7.901754    1.847241    0.006154
    129          1           0       -8.318528    3.598383   -2.189151
    130          1           0       -8.537053    1.988106   -2.933584
    131          1           0       -7.062491    2.298864   -2.066549
    132          1           0       -8.253143    2.872845    1.594385
    133          1           0       -9.956212    2.888707    2.199405
    134          1           0       -9.969669    5.055608    2.491916
    135          1           0       -8.706698    5.439000    1.264231
    136          1           0       -6.885827   -2.324512   -1.563152
    137          1           0       -7.547516   -3.615845   -2.658142
    138          1           0       -7.284174   -4.037856   -1.057155
    139          1           0      -11.544078   -6.920251   -1.254855
    140          1           0      -11.142482   -6.166032    0.311204
    141          1           0      -10.174681   -7.425649   -0.399139
    142          1           0      -14.725964   -4.664701    1.349582
    143          1           0      -16.932017   -3.088448   -0.016876
    144          1           0      -15.632200   -6.142258   -0.080942
    145          1           0      -15.028545   -5.274864   -1.520639
    146          1           0      -16.595017   -4.933766   -0.945227
    147          1           0      -16.656474   -2.016443    2.542122
    148          1           0      -16.310984   -3.791605    2.770852
    149          1           0      -18.611887   -2.873256    3.287938
    150          1           0      -18.410774   -4.446589    2.526302
    151          1           0      -19.037331   -3.060822    1.613480
    152          1           0      -17.117758    3.485255    1.738544
    153          1           0      -17.350279    1.772181    2.344745
    154          1           0      -17.929508    2.284863    0.761373
    155          1           0      -12.154551    4.465863    1.718985
    156          1           0      -13.429687    7.036855   -2.265317
    157          1           0      -12.352815    5.927979   -3.274738
    158          1           0      -11.673469    6.913357   -2.039470
 ---------------------------------------------------------------------

 SCF Done:  E(RwB97XD) =  -4070.59588468     A.U. after   20 cycles

 Excitation energies and oscillator strengths:

 Excited State   1:      Singlet-A      1.6383 eV  756.78 nm  f=0.4483  <S**2>=0.000
     310 -> 316       -0.18378
     312 -> 314        0.68047
     310 <- 316       -0.11718
 This state for optimization and/or second-order correction.
 Total Energy, E(TD-HF/TD-DFT) =  -4070.53567763
 Copying the excited state density for this state as the 1-particle RhoCI density.

 Excited State   2:      Singlet-A      1.6663 eV  744.09 nm  f=0.3378  <S**2>=0.000
     309 -> 315        0.17788
     311 -> 313        0.68121
     309 <- 315        0.11296

 Excited State   3:      Singlet-A      2.1186 eV  585.21 nm  f=0.1557  <S**2>=0.000
     309 -> 313        0.64899
     311 -> 315       -0.25661

 Excited State   4:      Singlet-A      2.1630 eV  573.21 nm  f=0.0916  <S**2>=0.000
     310 -> 314        0.63066
     312 -> 316        0.30293

 Excited State   5:      Singlet-A      3.0612 eV  405.01 nm  f=0.0077  <S**2>=0.000
     307 -> 313        0.68076

 The electronic state is 1-A.
 Alpha  occ. eigenvalues --  -46.96753 -46.94243 -19.30285 -19.29669 -19.24712
 Alpha  occ. eigenvalues --  -19.24120 -19.24117 -19.23741 -19.23227 -19.23227
 Alpha  occ. eigenvalues --  -14.48087 -14.47352 -14.46633 -14.46488 -14.44635
 Alpha  occ. eigenvalues --  -14.44348 -14.43706 -14.43044 -10.42915 -10.41825
 Alpha  occ. eigenvalues --  -10.39566 -10.39225 -10.38697 -10.38083 -10.37208
 Alpha  occ. eigenvalues --  -10.36160 -10.35899 -10.35690 -10.35680 -10.35613
 Alpha  occ. eigenvalues --  -10.35188 -10.35157 -10.35137 -10.34718 -10.34485
 Alpha  occ. eigenvalues --  -10.34468 -10.34026 -10.34015 -10.33880 -10.33764
 Alpha  occ. eigenvalues --  -10.33635 -10.33452 -10.33003 -10.32957 -10.32699
 Alpha  occ. eigenvalues --  -10.32673 -10.32670 -10.32506 -10.32473 -10.32271
 Alpha  occ. eigenvalues --  -10.32263 -10.32234 -10.32223 -10.32189 -10.32134
 Alpha  occ. eigenvalues --  -10.32126 -10.31851 -10.31650 -10.31603 -10.31519
 Alpha  occ. eigenvalues --  -10.31470 -10.31342 -10.31256 -10.31247 -10.31212
 Alpha  occ. eigenvalues --  -10.31151 -10.31015 -10.30991 -10.30970 -10.30932
 Alpha  occ. eigenvalues --  -10.30911 -10.30899 -10.30798 -10.30754 -10.30141
 Alpha  occ. eigenvalues --  -10.30079 -10.30029 -10.30008 -10.29824 -10.29652
 Alpha  occ. eigenvalues --  -10.29615 -10.29407 -10.29339 -10.29326 -10.29256
 Alpha  occ. eigenvalues --  -10.28826  -3.22448  -3.20319  -1.96058  -1.95538
 Alpha  occ. eigenvalues --   -1.95410  -1.93931  -1.93445  -1.93297  -1.18046
 Alpha  occ. eigenvalues --   -1.17634  -1.13212  -1.12254  -1.11889  -1.11760
 Alpha  occ. eigenvalues --   -1.09621  -1.08953  -1.07255  -1.06730  -1.06148
 Alpha  occ. eigenvalues --   -1.05993  -1.05355  -1.04570  -1.04432  -1.03742
 Alpha  occ. eigenvalues --   -0.94474  -0.94420  -0.91403  -0.91178  -0.91095
 Alpha  occ. eigenvalues --   -0.90591  -0.90297  -0.89984  -0.89584  -0.89515
 Alpha  occ. eigenvalues --   -0.89016  -0.88935  -0.88667  -0.87764  -0.86555
 Alpha  occ. eigenvalues --   -0.86373  -0.85664  -0.85621  -0.84755  -0.84577
 Alpha  occ. eigenvalues --   -0.84400  -0.84106  -0.83367  -0.82767  -0.82734
 Alpha  occ. eigenvalues --   -0.82661  -0.80782  -0.79733  -0.79720  -0.79223
 Alpha  occ. eigenvalues --   -0.79073  -0.78868  -0.78082  -0.77861  -0.77397
 Alpha  occ. eigenvalues --   -0.77116  -0.75430  -0.74790  -0.74222  -0.73817
 Alpha  occ. eigenvalues --   -0.71326  -0.71278  -0.70906  -0.70853  -0.70252
 Alpha  occ. eigenvalues --   -0.69920  -0.69023  -0.68953  -0.67561  -0.67478
 Alpha  occ. eigenvalues --   -0.67386  -0.67384  -0.67219  -0.66711  -0.66640
 Alpha  occ. eigenvalues --   -0.66227  -0.64927  -0.63454  -0.62549  -0.62233
 Alpha  occ. eigenvalues --   -0.61726  -0.61663  -0.61384  -0.61001  -0.60983
 Alpha  occ. eigenvalues --   -0.60837  -0.59986  -0.59729  -0.59257  -0.58842
 Alpha  occ. eigenvalues --   -0.58485  -0.58353  -0.57862  -0.57769  -0.57343
 Alpha  occ. eigenvalues --   -0.57321  -0.56736  -0.56636  -0.56512  -0.55789
 Alpha  occ. eigenvalues --   -0.55711  -0.55427  -0.55125  -0.55108  -0.54923
 Alpha  occ. eigenvalues --   -0.54732  -0.54633  -0.54563  -0.54321  -0.54243
 Alpha  occ. eigenvalues --   -0.54054  -0.53973  -0.53766  -0.53272  -0.53199
 Alpha  occ. eigenvalues --   -0.52939  -0.52789  -0.52776  -0.52471  -0.52281
 Alpha  occ. eigenvalues --   -0.52278  -0.52086  -0.51857  -0.51638  -0.51404
 Alpha  occ. eigenvalues --   -0.51381  -0.51285  -0.51100  -0.51073  -0.50931
 Alpha  occ. eigenvalues --   -0.50775  -0.50578  -0.50493  -0.50195  -0.50153
 Alpha  occ. eigenvalues --   -0.49774  -0.49713  -0.49661  -0.49391  -0.49073
 Alpha  occ. eigenvalues --   -0.49068  -0.48894  -0.48796  -0.48547  -0.48528
 Alpha  occ. eigenvalues --   -0.48522  -0.48449  -0.48198  -0.48038  -0.48014
 Alpha  occ. eigenvalues --   -0.47856  -0.47727  -0.47578  -0.47144  -0.47095
 Alpha  occ. eigenvalues --   -0.47051  -0.47033  -0.46763  -0.46578  -0.46427
 Alpha  occ. eigenvalues --   -0.46347  -0.46208  -0.46002  -0.45941  -0.45671
 Alpha  occ. eigenvalues --   -0.45589  -0.45499  -0.45299  -0.44900  -0.44815
 Alpha  occ. eigenvalues --   -0.44675  -0.44673  -0.44282  -0.44100  -0.43998
 Alpha  occ. eigenvalues --   -0.43746  -0.43514  -0.43496  -0.43360  -0.43244
 Alpha  occ. eigenvalues --   -0.43172  -0.42843  -0.42314  -0.42262  -0.42116
 Alpha  occ. eigenvalues --   -0.41821  -0.41557  -0.41465  -0.41295  -0.41205
 Alpha  occ. eigenvalues --   -0.40718  -0.40196  -0.39868  -0.39790  -0.39339
 Alpha  occ. eigenvalues --   -0.39229  -0.39125  -0.38914  -0.38733  -0.38305
 Alpha  occ. eigenvalues --   -0.38100  -0.37761  -0.36455  -0.36264  -0.36240
 Alpha  occ. eigenvalues --   -0.36062  -0.35406  -0.34999  -0.33931  -0.33275
 Alpha  occ. eigenvalues --   -0.33199  -0.33129  -0.32409  -0.32248  -0.32230
 Alpha  occ. eigenvalues --   -0.31922  -0.31768  -0.31237  -0.26475  -0.26144
 Alpha  occ. eigenvalues --   -0.23907  -0.22948
 Alpha virt. eigenvalues --   -0.08019  -0.07178  -0.00349   0.00018   0.02135
 Alpha virt. eigenvalues --    0.02658   0.04396   0.04811   0.05533   0.06460
 Alpha virt. eigenvalues --    0.07126   0.07306   0.07490   0.07903   0.08414

 Mulliken charges:
               1
     1  Mg   0.970177
     2  C    0.027036
     3  C   -0.088580
     4  C   -0.071863
     5  C   -0.105465
     6  N   -0.331706
     7  C   -0.006746
     8  C   -0.044253
     9  C   -0.151786
    10  C    0.059818
    11  C    0.050739
    12  C    0.000348
    13  C   -0.115474
    14  H    0.028870
    15  N   -0.488225
    16  C    0.172363
    17  C   -0.166713
    18  C   -0.057406
    19  C    0.125989
    20  C    0.053251
    21  C    0.071587
    22  O   -0.233705
    23  C   -0.004403
    24  N   -0.422904
    25  C    0.060795
    26  C   -0.086721
    27  C   -0.053555
    28  C    0.048487
    29  C    0.042944
    30  C   -0.002804
    31  C   -0.069051
    32  N   -0.373955
    33  C    0.159918
    34  C   -0.166659
    35  C   -0.076268
    36  C    0.113139
    37  C    0.102498
    38  C    0.145466
    39  O   -0.193250
    40  C   -0.138446
    41  C    0.241200
    42  O   -0.254235
    43  O   -0.372585
    44  C    0.133553
    45  H   -0.016258
    46  H    0.028748
    47  H    0.001782
    48  H    0.035351
    49  H    0.021825
    50  H    0.039236
    51  H    0.043574
    52  H    0.038574
    53  H    0.034545
    54  H    0.060810
    55  H    0.043753
    56  H    0.059055
    57  H    0.039652
    58  H    0.049918
    59  H    0.047214
    60  H    0.056556
    61  H    0.050172
    62  H    0.049729
    63  H    0.038427
    64  H    0.031825
    65  H    0.040613
    66  H    0.046735
    67  H    0.027986
    68  H    0.036107
    69  H    0.035568
    70  H    0.039415
    71  H    0.045820
    72  H    0.018548
    73  H    0.034887
    74  H    0.072753
    75  H    0.044411
    76  H    0.067257
    77  H    0.062280
    78  H    0.082176
    79  H    0.059543
    80  Mg   0.930217
    81  C    0.060672
    82  C   -0.053332
    83  C   -0.067768
    84  C   -0.064628
    85  N   -0.367815
    86  C   -0.017680
    87  C   -0.066837
    88  C   -0.122727
    89  C    0.087767
    90  C    0.030055
    91  C    0.037132
    92  C   -0.149564
    93  H    0.025722
    94  N   -0.454772
    95  C    0.135270
    96  C   -0.149518
    97  C   -0.136708
    98  C    0.177585
    99  C    0.084191
   100  C    0.092251
   101  O   -0.239558
   102  C   -0.062642
   103  N   -0.335515
   104  C    0.120496
   105  C   -0.138865
   106  C   -0.048794
   107  C    0.022596
   108  C    0.006372
   109  C   -0.011630
   110  C   -0.052418
   111  N   -0.425304
   112  C    0.118148
   113  C   -0.169536
   114  C   -0.018368
   115  C    0.076906
   116  C    0.078442
   117  C    0.069177
   118  O   -0.202586
   119  C   -0.060218
   120  C    0.246528
   121  O   -0.245802
   122  O   -0.384142
   123  C    0.135068
   124  H   -0.012506
   125  H   -0.019790
   126  H   -0.002754
   127  H    0.034734
   128  H    0.041056
   129  H    0.043142
   130  H    0.048177
   131  H    0.043232
   132  H    0.040047
   133  H    0.043319
   134  H    0.068769
   135  H    0.058851
   136  H    0.057257
   137  H    0.057634
   138  H    0.064197
   139  H    0.068298
   140  H    0.055909
   141  H    0.048804
   142  H    0.055302
   143  H    0.030042
   144  H    0.036221
   145  H    0.039745
   146  H    0.030959
   147  H    0.041463
   148  H    0.028867
   149  H    0.036957
   150  H    0.037519
   151  H    0.038278
   152  H    0.062901
   153  H    0.045494
   154  H    0.046764
   155  H    0.066615
   156  H    0.069581
   157  H    0.052360
   158  H    0.054690
 Sum of Mulliken charges =  -0.00000

 Dipole moment (field-independent basis, Debye):
    X=              2.4427    Y=             -0.3578    Z=             -4.8252  Tot=              5.4201
 Quadrupole moment (field-independent basis, Debye-Ang):
   XX=           -420.0624   YY=           -552.1799   ZZ=           -465.4297
   XY=            120.8523   XZ=              4.6539   YZ=            -31.6354

 Normal termination of Gaussian 16 at Mon Sep 20 04:10:32 2021.
