 Gaussian 16, Revision A.03,
 Gaussian 16:  ES64L-G16RevA.03 25-Dec-2016

 --------------------------------
 #p wB97XD/Def2SVP td=(nstates=5)
 --------------------------------

 --------------------------------
 TDDFT excited states in gaussian
 --------------------------------
 Symbolic Z-matrix:
 Charge =  0 Multiplicity = 1

                         Standard orientation:
 ---------------------------------------------------------------------
 Center     Atomic      Atomic             Coordinates (Angstroms)
 Number     Number       Type             X           Y           Z
 ---------------------------------------------------------------------
      1         12           0       16.488556   -0.545605    0.286074
      2          6           0       15.484946    2.400226   -1.310956
      3          6           0       18.006867    1.203971    2.610609
      4          6           0       18.057876   -3.408328    1.356516
      5          6           0       15.302021   -2.401010   -2.473476
      6          7           0       16.602251    1.532390    0.618256
      7          6           0       16.087222    2.598064   -0.086588
      8          6           0       16.254195    3.909792    0.669521
      9          6           0       17.258284    3.496868    1.793100
     10          6           0       17.212218    2.009236    1.746113
     11          6           0       18.647636    4.096696    1.813730
     12          6           0       14.920396    4.565799    1.150016
     13          6           0       15.078050    5.899873    1.887689
     14          1           0       14.231730    7.053400    1.369409
     15          7           0       17.964352   -1.040705    1.818496
     16          6           0       18.343903   -0.161211    2.768837
     17          6           0       19.133326   -0.843722    3.756232
     18          6           0       19.247250   -2.181069    3.339041
     19          6           0       18.409921   -2.247961    2.110519
     20          6           0       19.753809   -0.163414    4.958210
     21          6           0       19.931960   -3.333425    3.997986
     22          8           0       20.116252   -4.475299    3.497970
     23          6           0       20.446203   -3.202268    5.426386
     24          7           0       16.670880   -2.561094   -0.461665
     25          6           0       17.425264   -3.516109    0.130362
     26          6           0       17.139420   -4.949127   -0.575383
     27          6           0       15.899514   -4.623425   -1.480112
     28          6           0       15.877663   -3.128925   -1.446015
     29          6           0       18.435942   -5.409193   -1.349788
     30          6           0       14.568256   -5.112864   -0.801350
     31          6           0       14.269256   -4.704278    0.632670
     32          7           0       15.494190   -0.128705   -1.566485
     33          6           0       15.097034   -1.006261   -2.537689
     34          6           0       14.489875   -0.257989   -3.538052
     35          6           0       14.598479    1.116984   -3.181446
     36          6           0       15.224025    1.145318   -1.962799
     37          6           0       13.922589   -0.714721   -4.835709
     38          6           0       14.342356    2.526561   -3.554915
     39          8           0       13.868944    3.063773   -4.549718
     40          6           0       14.829822    3.412147   -2.281088
     41          6           0       15.636351    4.576995   -2.733217
     42          8           0       16.434489    4.566335   -3.716986
     43          8           0       15.226680    5.625377   -2.031892
     44          6           0       15.551099    6.903844   -2.635174
     45          1           0       18.432046    1.727321    3.469692
     46          1           0       18.520594   -4.335082    1.704089
     47          1           0       14.834384   -3.016119   -3.243855
     48          1           0       16.631356    4.601242   -0.084210
     49          1           0       16.893798    3.727945    2.794617
     50          1           0       18.792843    5.021543    1.255489
     51          1           0       19.364212    3.345924    1.479543
     52          1           0       18.957026    4.140916    2.858151
     53          1           0       14.367363    3.859109    1.769293
     54          1           0       14.277203    4.732741    0.286611
     55          1           0       16.013509    6.391811    1.621792
     56          1           0       14.982432    5.770372    2.966141
     57          1           0       19.666842    0.923023    4.965431
     58          1           0       20.839892   -0.219749    5.027169
     59          1           0       19.357997   -0.518299    5.910281
     60          1           0       21.290655   -2.513729    5.414362
     61          1           0       20.969358   -4.099742    5.755681
     62          1           0       19.661002   -2.972699    6.147612
     63          1           0       16.946899   -5.700799    0.190157
     64          1           0       16.166557   -5.002497   -2.466546
     65          1           0       19.327196   -4.841339   -1.082175
     66          1           0       18.365878   -5.313565   -2.433445
     67          1           0       18.733774   -6.433580   -1.130782
     68          1           0       14.723153   -6.188533   -0.885893
     69          1           0       13.660351   -4.872336   -1.353658
     70          1           0       15.156625   -4.266936    1.090784
     71          1           0       13.817459   -5.463982    1.269576
     72          1           0       13.455553   -3.990422    0.504380
     73          1           0       13.172160   -1.500590   -4.746281
     74          1           0       14.767330   -1.140970   -5.376069
     75          1           0       13.522448    0.106144   -5.429944
     76          1           0       13.897841    3.790756   -1.862159
     77          1           0       14.696019    7.577328   -2.565012
     78          1           0       15.802505    6.887979   -3.695398
     79          1           0       16.374834    7.309660   -2.047007
     80         12           0      -16.145910   -0.825409    0.107756
     81          6           0      -18.183937    2.075913    0.607921
     82          6           0      -13.593483    1.209778   -0.958563
     83          6           0      -14.320071   -3.507156   -0.831585
     84          6           0      -19.106024   -2.735780    0.279701
     85          7           0      -15.942088    1.377300   -0.123126
     86          6           0      -16.852621    2.396420    0.197649
     87          6           0      -16.188493    3.733677   -0.008182
     88          6           0      -14.980540    3.367745   -0.969960
     89          6           0      -14.847776    1.836920   -0.718583
     90          6           0      -15.414633    3.706976   -2.440451
     91          6           0      -15.840316    4.490250    1.322122
     92          6           0      -16.194927    5.887546    1.216749
     93          1           0      -16.221934    6.689662    2.613390
     94          7           0      -14.145800   -1.021744   -0.611019
     95          6           0      -13.262912   -0.073082   -0.945454
     96          6           0      -12.012498   -0.685581   -1.274268
     97          6           0      -12.185779   -2.053720   -1.267739
     98          6           0      -13.636283   -2.291917   -0.823624
     99          6           0      -10.786582    0.143190   -1.773638
    100          6           0      -11.147086   -3.165978   -1.519541
    101          8           0      -11.505590   -4.316248   -1.501817
    102          6           0       -9.684282   -2.832505   -1.694747
    103          7           0      -16.735856   -2.795683   -0.488103
    104          6           0      -15.734078   -3.736023   -0.702122
    105          6           0      -16.290751   -5.122057   -0.664029
    106          6           0      -17.833144   -4.884646   -0.283713
    107          6           0      -17.904351   -3.388838   -0.085517
    108          6           0      -16.039509   -5.889742   -1.917747
    109          6           0      -18.428148   -5.708837    0.985822
    110          6           0      -19.547493   -6.643264    0.746543
    111          7           0      -18.230379   -0.480002    0.431965
    112          6           0      -19.273832   -1.377540    0.461363
    113          6           0      -20.543116   -0.604292    0.813277
    114          6           0      -20.144641    0.735595    0.992598
    115          6           0      -18.736697    0.767465    0.697231
    116          6           0      -21.943098   -1.226373    0.906008
    117          6           0      -20.676680    2.047766    1.203811
    118          8           0      -21.847433    2.418824    1.445595
    119          6           0      -19.475084    2.997168    0.799975
    120          6           0      -19.426163    4.093091    1.906712
    121          8           0      -18.586484    4.034384    2.823629
    122          8           0      -20.328381    5.066498    1.630583
    123          6           0      -20.406684    5.998383    2.807681
    124          1           0      -12.712981    1.844102   -1.083220
    125          1           0      -13.744714   -4.392403   -1.112824
    126          1           0      -20.054072   -3.250025    0.449849
    127          1           0      -16.882361    4.316715   -0.613328
    128          1           0      -14.084333    3.937839   -0.727792
    129          1           0      -16.131005    2.999876   -2.857952
    130          1           0      -14.522005    3.784476   -3.059728
    131          1           0      -15.872061    4.696574   -2.450354
    132          1           0      -14.751922    4.516184    1.380383
    133          1           0      -16.248434    3.985864    2.198307
    134          1           0      -17.234583    6.007424    0.911569
    135          1           0      -15.483513    6.353810    0.534696
    136          1           0       -9.997453   -0.153075   -1.082606
    137          1           0      -10.903187    1.224479   -1.702291
    138          1           0      -10.585807   -0.087036   -2.819874
    139          1           0       -9.115055   -3.727735   -1.945282
    140          1           0       -9.520682   -2.468918   -0.680328
    141          1           0       -9.602043   -2.067295   -2.466569
    142          1           0      -15.759573   -5.565606    0.178327
    143          1           0      -18.415525   -5.183494   -1.154920
    144          1           0      -15.310959   -6.646196   -1.628804
    145          1           0      -15.530832   -5.302753   -2.682313
    146          1           0      -16.920121   -6.334791   -2.381512
    147          1           0      -18.838034   -4.907248    1.600212
    148          1           0      -17.585576   -6.152546    1.514516
    149          1           0      -20.444031   -6.329340    1.280488
    150          1           0      -19.119402   -7.486655    1.287249
    151          1           0      -19.667688   -6.912403   -0.303734
    152          1           0      -22.392191   -1.083792   -0.076252
    153          1           0      -22.563885   -0.747674    1.663293
    154          1           0      -21.846801   -2.271473    1.200372
    155          1           0      -19.790888    3.394202   -0.163803
    156          1           0      -20.933126    5.599460    3.674603
    157          1           0      -20.841771    6.973180    2.589702
    158          1           0      -19.372601    6.235333    3.058744
 ---------------------------------------------------------------------

 SCF Done:  E(RwB97XD) =  -4070.58876505     A.U. after   19 cycles

 Excitation energies and oscillator strengths:

 Excited State   1:      Singlet-A      1.6681 eV  743.26 nm  f=0.4256  <S**2>=0.000
     310 -> 316       -0.16939
     311 -> 313        0.67950
     310 <- 316       -0.11041
 This state for optimization and/or second-order correction.
 Total Energy, E(TD-HF/TD-DFT) =  -4070.52746319
 Copying the excited state density for this state as the 1-particle RhoCI density.

 Excited State   2:      Singlet-A      1.6771 eV  739.28 nm  f=0.3208  <S**2>=0.000
     309 -> 315        0.18989
     312 -> 314        0.67298
     309 <- 315        0.11425

 Excited State   3:      Singlet-A      2.0913 eV  592.87 nm  f=0.1642  <S**2>=0.000
     310 -> 313        0.66094
     311 -> 316        0.23078

 Excited State   4:      Singlet-A      2.2164 eV  559.39 nm  f=0.0062  <S**2>=0.000
     309 -> 314        0.55056
     312 -> 315       -0.43362

 Excited State   5:      Singlet-A      3.0732 eV  403.43 nm  f=0.0089  <S**2>=0.000
     308 -> 313        0.67866

 The electronic state is 1-A.
 Alpha  occ. eigenvalues --  -46.95776 -46.95762 -19.31908 -19.31357 -19.24696
 Alpha  occ. eigenvalues --  -19.24528 -19.24275 -19.24075 -19.23767 -19.23517
 Alpha  occ. eigenvalues --  -14.47571 -14.46870 -14.46480 -14.46478 -14.44418
 Alpha  occ. eigenvalues --  -14.43970 -14.43711 -14.42646 -10.43561 -10.43125
 Alpha  occ. eigenvalues --  -10.39855 -10.39658 -10.38887 -10.38885 -10.36260
 Alpha  occ. eigenvalues --  -10.35793 -10.35436 -10.35392 -10.35344 -10.35272
 Alpha  occ. eigenvalues --  -10.35227 -10.35063 -10.34935 -10.34932 -10.34802
 Alpha  occ. eigenvalues --  -10.34431 -10.34111 -10.34058 -10.33277 -10.33112
 Alpha  occ. eigenvalues --  -10.33045 -10.32999 -10.32962 -10.32766 -10.32650
 Alpha  occ. eigenvalues --  -10.32591 -10.32439 -10.32413 -10.32409 -10.32406
 Alpha  occ. eigenvalues --  -10.32217 -10.32195 -10.32167 -10.32041 -10.32032
 Alpha  occ. eigenvalues --  -10.31959 -10.31950 -10.31875 -10.31866 -10.31854
 Alpha  occ. eigenvalues --  -10.31849 -10.31425 -10.31387 -10.31084 -10.31032
 Alpha  occ. eigenvalues --  -10.30827 -10.30555 -10.30502 -10.30493 -10.30473
 Alpha  occ. eigenvalues --  -10.30434 -10.30374 -10.30343 -10.30273 -10.30108
 Alpha  occ. eigenvalues --  -10.30093 -10.29781 -10.29771 -10.29583 -10.29303
 Alpha  occ. eigenvalues --  -10.29208 -10.29003 -10.28912 -10.28805 -10.28761
 Alpha  occ. eigenvalues --  -10.28317  -3.21621  -3.21564  -1.95216  -1.95143
 Alpha  occ. eigenvalues --   -1.94712  -1.94668  -1.94601  -1.94530  -1.20340
 Alpha  occ. eigenvalues --   -1.18203  -1.13977  -1.11047  -1.10696  -1.10038
 Alpha  occ. eigenvalues --   -1.09294  -1.08151  -1.07561  -1.06440  -1.06120
 Alpha  occ. eigenvalues --   -1.05378  -1.05056  -1.04675  -1.04519  -1.03414
 Alpha  occ. eigenvalues --   -0.93844  -0.93154  -0.91544  -0.91250  -0.90845
 Alpha  occ. eigenvalues --   -0.90588  -0.90403  -0.90032  -0.90027  -0.89485
 Alpha  occ. eigenvalues --   -0.89149  -0.89113  -0.87645  -0.87367  -0.86770
 Alpha  occ. eigenvalues --   -0.86272  -0.85725  -0.85655  -0.84825  -0.84542
 Alpha  occ. eigenvalues --   -0.84454  -0.83867  -0.83354  -0.82688  -0.82619
 Alpha  occ. eigenvalues --   -0.82368  -0.80931  -0.80198  -0.79553  -0.79455
 Alpha  occ. eigenvalues --   -0.79313  -0.78431  -0.78113  -0.77373  -0.77238
 Alpha  occ. eigenvalues --   -0.76865  -0.74773  -0.74140  -0.73769  -0.73401
 Alpha  occ. eigenvalues --   -0.71936  -0.71144  -0.70790  -0.70412  -0.69771
 Alpha  occ. eigenvalues --   -0.69742  -0.69400  -0.68305  -0.67516  -0.67255
 Alpha  occ. eigenvalues --   -0.67003  -0.66880  -0.66731  -0.66564  -0.66418
 Alpha  occ. eigenvalues --   -0.66274  -0.64756  -0.64027  -0.63129  -0.61943
 Alpha  occ. eigenvalues --   -0.61797  -0.61278  -0.61058  -0.60591  -0.60422
 Alpha  occ. eigenvalues --   -0.60202  -0.59570  -0.59372  -0.59298  -0.59019
 Alpha  occ. eigenvalues --   -0.58276  -0.58013  -0.57983  -0.57778  -0.57438
 Alpha  occ. eigenvalues --   -0.57434  -0.57342  -0.57024  -0.56394  -0.56244
 Alpha  occ. eigenvalues --   -0.55945  -0.55895  -0.55464  -0.55298  -0.55154
 Alpha  occ. eigenvalues --   -0.54953  -0.54860  -0.54606  -0.54536  -0.54522
 Alpha  occ. eigenvalues --   -0.54381  -0.53840  -0.53700  -0.53571  -0.53235
 Alpha  occ. eigenvalues --   -0.52968  -0.52572  -0.52474  -0.52473  -0.52292
 Alpha  occ. eigenvalues --   -0.52158  -0.52091  -0.52065  -0.51582  -0.51456
 Alpha  occ. eigenvalues --   -0.51127  -0.51033  -0.50874  -0.50860  -0.50548
 Alpha  occ. eigenvalues --   -0.50544  -0.50503  -0.50316  -0.50142  -0.50072
 Alpha  occ. eigenvalues --   -0.49941  -0.49765  -0.49344  -0.49269  -0.49189
 Alpha  occ. eigenvalues --   -0.48748  -0.48516  -0.48501  -0.48451  -0.48341
 Alpha  occ. eigenvalues --   -0.48132  -0.47986  -0.47934  -0.47821  -0.47745
 Alpha  occ. eigenvalues --   -0.47417  -0.47277  -0.47139  -0.46675  -0.46511
 Alpha  occ. eigenvalues --   -0.46439  -0.46408  -0.46275  -0.46262  -0.46006
 Alpha  occ. eigenvalues --   -0.45853  -0.45727  -0.45694  -0.45408  -0.45379
 Alpha  occ. eigenvalues --   -0.45204  -0.45184  -0.44981  -0.44880  -0.44761
 Alpha  occ. eigenvalues --   -0.44624  -0.44371  -0.44262  -0.44051  -0.43944
 Alpha  occ. eigenvalues --   -0.43864  -0.43820  -0.43431  -0.43380  -0.43202
 Alpha  occ. eigenvalues --   -0.43014  -0.42825  -0.42678  -0.42440  -0.42103
 Alpha  occ. eigenvalues --   -0.41694  -0.41574  -0.41191  -0.40750  -0.40667
 Alpha  occ. eigenvalues --   -0.40437  -0.39904  -0.39764  -0.39428  -0.39214
 Alpha  occ. eigenvalues --   -0.39159  -0.38968  -0.38924  -0.38626  -0.38393
 Alpha  occ. eigenvalues --   -0.38065  -0.36766  -0.36181  -0.36032  -0.36005
 Alpha  occ. eigenvalues --   -0.35815  -0.35185  -0.35099  -0.34217  -0.33928
 Alpha  occ. eigenvalues --   -0.33372  -0.33234  -0.33018  -0.32624  -0.32227
 Alpha  occ. eigenvalues --   -0.32134  -0.31453  -0.30687  -0.26194  -0.26045
 Alpha  occ. eigenvalues --   -0.23649  -0.22005
 Alpha virt. eigenvalues --   -0.07777  -0.05883  -0.00598   0.00589   0.01930
 Alpha virt. eigenvalues --    0.02089   0.04476   0.04477   0.04885   0.05075
 Alpha virt. eigenvalues --    0.06562   0.07088   0.07275   0.07781   0.08314

 Mulliken charges:
               1
     1  Mg   0.940754
     2  C    0.025618
     3  C   -0.076059
     4  C   -0.054439
     5  C   -0.071331
     6  N   -0.396408
     7  C   -0.020384
     8  C   -0.029410
     9  C   -0.089430
    10  C    0.104802
    11  C    0.044347
    12  C    0.022513
    13  C   -0.128896
    14  H    0.030635
    15  N   -0.379742
    16  C    0.094856
    17  C   -0.112194
    18  C   -0.048657
    19  C    0.101688
    20  C    0.053297
    21  C    0.041203
    22  O   -0.259284
    23  C   -0.009009
    24  N   -0.351708
    25  C    0.069145
    26  C   -0.145276
    27  C   -0.029844
    28  C    0.039027
    29  C    0.014258
    30  C   -0.014308
    31  C   -0.051373
    32  N   -0.418209
    33  C    0.151482
    34  C   -0.204331
    35  C   -0.041228
    36  C    0.088684
    37  C    0.077108
    38  C    0.161874
    39  O   -0.201958
    40  C   -0.129250
    41  C    0.263346
    42  O   -0.280546
    43  O   -0.330265
    44  C    0.127195
    45  H   -0.027624
    46  H    0.024895
    47  H   -0.001147
    48  H    0.031533
    49  H    0.031550
    50  H    0.056352
    51  H    0.033619
    52  H    0.025714
    53  H    0.024379
    54  H    0.044873
    55  H    0.046571
    56  H    0.062196
    57  H    0.028567
    58  H    0.048724
    59  H    0.055080
    60  H    0.043789
    61  H    0.044723
    62  H    0.064176
    63  H    0.043805
    64  H    0.030774
    65  H    0.043579
    66  H    0.032475
    67  H    0.040163
    68  H    0.029622
    69  H    0.030875
    70  H    0.055292
    71  H    0.043823
    72  H    0.033748
    73  H    0.035153
    74  H    0.042905
    75  H    0.057903
    76  H    0.081976
    77  H    0.053437
    78  H    0.078578
    79  H    0.049631
    80  Mg   0.943004
    81  C    0.041606
    82  C   -0.129160
    83  C   -0.076241
    84  C   -0.077239
    85  N   -0.336189
    86  C   -0.017603
    87  C   -0.079625
    88  C   -0.155206
    89  C    0.135801
    90  C    0.022033
    91  C    0.093460
    92  C   -0.136455
    93  H    0.008967
    94  N   -0.446327
    95  C    0.165807
    96  C   -0.153410
    97  C   -0.107785
    98  C    0.164997
    99  C    0.056843
   100  C    0.032490
   101  O   -0.217403
   102  C    0.006178
   103  N   -0.392488
   104  C    0.060530
   105  C   -0.103391
   106  C   -0.058512
   107  C    0.088861
   108  C    0.029677
   109  C   -0.034566
   110  C   -0.028604
   111  N   -0.416605
   112  C    0.095594
   113  C   -0.195828
   114  C   -0.011699
   115  C    0.105164
   116  C    0.075071
   117  C    0.122599
   118  O   -0.234932
   119  C   -0.139059
   120  C    0.281232
   121  O   -0.275164
   122  O   -0.340435
   123  C    0.131703
   124  H   -0.010018
   125  H    0.029180
   126  H   -0.008261
   127  H    0.017225
   128  H    0.025385
   129  H    0.050752
   130  H    0.035193
   131  H    0.035653
   132  H    0.016146
   133  H    0.073578
   134  H    0.051844
   135  H    0.043287
   136  H    0.051626
   137  H    0.037611
   138  H    0.072694
   139  H    0.062104
   140  H    0.066197
   141  H    0.055674
   142  H    0.043009
   143  H    0.031512
   144  H    0.039706
   145  H    0.045906
   146  H    0.038580
   147  H    0.026800
   148  H    0.028154
   149  H    0.044926
   150  H    0.030289
   151  H    0.041872
   152  H    0.063118
   153  H    0.057575
   154  H    0.033394
   155  H    0.090045
   156  H    0.070041
   157  H    0.052434
   158  H    0.059080
 Sum of Mulliken charges =  -0.00000

 Dipole moment (field-independent basis, Debye):
    X=              4.3329    Y=              0.3797    Z=              4.9552  Tot=              6.5934
 Quadrupole moment (field-independent basis, Debye-Ang):
   XX=           -654.2153   YY=           -476.3366   ZZ=           -519.8876
   XY=             54.8146   XZ=            140.2079   YZ=             20.3710

 Normal termination of Gaussian 16 at Sun Sep 19 01:57:45 2021.
