 Gaussian 16, Revision A.03,
 Gaussian 16:  ES64L-G16RevA.03 25-Dec-2016

 --------------------------------
 #p wB97XD/Def2SVP td=(nstates=5)
 --------------------------------

 --------------------------------
 TDDFT excited states in gaussian
 --------------------------------
 Symbolic Z-matrix:
 Charge =  0 Multiplicity = 1

                         Standard orientation:
 ---------------------------------------------------------------------
 Center     Atomic      Atomic             Coordinates (Angstroms)
 Number     Number       Type             X           Y           Z
 ---------------------------------------------------------------------
      1         12           0       -9.741977   -0.860334    0.468114
      2          6           0       -9.184244    2.732843   -0.300992
      3          6           0       -7.693076   -0.277093    3.092185
      4          6           0      -10.055737   -3.989984    0.861143
      5          6           0      -11.113227   -1.101058   -2.808415
      6          7           0       -8.558955    0.999754    1.232977
      7          6           0       -8.647476    2.333065    0.870184
      8          6           0       -8.009143    3.309160    1.865067
      9          6           0       -7.157591    2.288619    2.681584
     10          6           0       -7.811224    0.894554    2.337556
     11          6           0       -5.691444    2.298265    2.382876
     12          6           0       -8.975691    4.215166    2.699240
     13          6           0       -8.489722    5.562756    3.117041
     14          1           0       -8.942138    6.019293    4.500409
     15          7           0       -9.004254   -2.025498    1.854419
     16          6           0       -8.199047   -1.608043    2.934785
     17          6           0       -8.054087   -2.722913    3.825805
     18          6           0       -8.891803   -3.760712    3.225911
     19          6           0       -9.333235   -3.264981    1.972429
     20          6           0       -7.309065   -2.683116    5.211159
     21          6           0       -9.194883   -5.091120    3.844356
     22          8           0       -9.871613   -5.964169    3.248347
     23          6           0       -8.770260   -5.466005    5.217219
     24          7           0      -10.316905   -2.389599   -0.805006
     25          6           0      -10.389862   -3.658335   -0.397656
     26          6           0      -10.970977   -4.635640   -1.469218
     27          6           0      -11.683227   -3.578785   -2.393189
     28          6           0      -10.965466   -2.253157   -2.018944
     29          6           0       -9.849252   -5.408415   -2.234954
     30          6           0      -13.235776   -3.461241   -2.089076
     31          6           0      -14.110284   -4.732584   -2.106930
     32          7           0      -10.131980    0.508421   -1.206648
     33          6           0      -10.752686    0.239868   -2.421281
     34          6           0      -10.795573    1.442239   -3.220145
     35          6           0      -10.231066    2.441881   -2.417617
     36          6           0       -9.756440    1.824233   -1.227987
     37          6           0      -11.450840    1.611252   -4.549578
     38          6           0       -9.913400    3.863037   -2.369600
     39          8           0      -10.115527    4.804991   -3.124466
     40          6           0       -9.290328    4.062567   -0.891977
     41          6           0       -8.039166    4.774296   -1.088821
     42          8           0       -7.042571    4.371959   -1.709468
     43          8           0       -8.278626    6.101252   -0.873500
     44          6           0       -7.222879    7.043342   -1.064095
     45          1           0       -7.149733    0.014692    3.993545
     46          1           0      -10.188093   -5.069522    0.956851
     47          1           0      -11.558224   -1.234885   -3.796995
     48          1           0       -7.337837    3.952201    1.295506
     49          1           0       -7.349133    2.398102    3.748613
     50          1           0       -5.479717    1.398733    1.804814
     51          1           0       -5.127245    2.211841    3.311372
     52          1           0       -5.300454    3.147963    1.823541
     53          1           0       -9.180569    3.683385    3.627961
     54          1           0       -9.914868    4.276720    2.150114
     55          1           0       -8.914464    6.228806    2.366262
     56          1           0       -7.427743    5.706051    2.917146
     57          1           0       -7.951984   -2.685602    6.090861
     58          1           0       -6.600906   -1.856241    5.257778
     59          1           0       -6.720684   -3.600088    5.160047
     60          1           0       -7.703438   -5.689954    5.195017
     61          1           0       -9.343818   -6.358964    5.467218
     62          1           0       -9.066439   -4.643298    5.867163
     63          1           0      -11.625698   -5.316888   -0.924721
     64          1           0      -11.557794   -3.727965   -3.465193
     65          1           0       -9.944195   -6.454820   -1.943841
     66          1           0       -8.834280   -5.038227   -2.094093
     67          1           0      -10.170038   -5.284389   -3.270247
     68          1           0      -13.688187   -2.828628   -2.852397
     69          1           0      -13.317057   -2.907387   -1.153969
     70          1           0      -14.545775   -4.780020   -1.108946
     71          1           0      -13.393493   -5.544603   -2.232465
     72          1           0      -14.901095   -4.687593   -2.855574
     73          1           0      -12.061069    0.714994   -4.663462
     74          1           0      -10.643602    1.627595   -5.281781
     75          1           0      -12.006187    2.542960   -4.657188
     76          1           0       -9.978836    4.647621   -0.282520
     77          1           0       -6.289733    6.554227   -1.344434
     78          1           0       -7.076981    7.503867   -0.086911
     79          1           0       -7.527748    7.850363   -1.728810
     80         12           0        9.730317   -0.697384    0.067388
     81          6           0        7.816550    2.233696   -0.443168
     82          6           0       12.207569    1.248959    0.988344
     83          6           0       11.669648   -3.313809   -0.502998
     84          6           0        7.113414   -2.403147   -1.626885
     85          7           0        9.833453    1.542033    0.392734
     86          6           0        8.987132    2.491651    0.224632
     87          6           0        9.494582    3.800495    0.864097
     88          6           0       11.094017    3.593885    0.889570
     89          6           0       11.088049    2.023780    0.670682
     90          6           0       11.924625    4.368979   -0.208386
     91          6           0        8.946063    3.949141    2.378005
     92          6           0        8.641104    5.360818    2.975746
     93          1           0        9.492154    6.555064    2.406234
     94          7           0       11.642972   -1.059051    0.419353
     95          6           0       12.513983   -0.081796    0.877022
     96          6           0       13.872291   -0.706406    1.053410
     97          6           0       13.683529   -2.089556    0.634922
     98          6           0       12.318820   -2.283194    0.137412
     99          6           0       15.060574    0.113155    1.520015
    100          6           0       14.707554   -3.202131    0.682859
    101          8           0       14.513388   -4.355741    0.275080
    102          6           0       16.024635   -2.926367    1.286792
    103          7           0        9.389629   -2.698527   -0.866156
    104          6           0       10.402917   -3.536235   -0.992175
    105          6           0        9.868097   -4.985120   -1.383524
    106          6           0        8.335009   -4.622171   -1.777218
    107          6           0        8.259213   -3.154912   -1.363608
    108          6           0       10.707661   -5.690685   -2.499274
    109          6           0        7.189920   -5.464536   -1.125111
    110          6           0        6.407949   -6.376613   -2.035095
    111          7           0        7.721665   -0.282483   -0.684086
    112          6           0        6.826735   -1.108403   -1.334735
    113          6           0        5.721888   -0.365904   -1.778786
    114          6           0        6.092622    0.959705   -1.483649
    115          6           0        7.313897    1.003583   -0.853832
    116          6           0        4.538163   -0.839898   -2.459467
    117          6           0        5.570238    2.269675   -1.540809
    118          8           0        4.473748    2.792719   -1.878917
    119          6           0        6.799576    3.189237   -1.109349
    120          6           0        6.335015    4.290717   -0.228856
    121          8           0        5.821895    4.202116    0.884689
    122          8           0        6.699589    5.519041   -0.865166
    123          6           0        6.330993    6.763674   -0.178575
    124          1           0       12.953091    1.921567    1.418579
    125          1           0       12.309433   -4.189224   -0.627455
    126          1           0        6.281127   -2.950427   -2.075848
    127          1           0        9.363488    4.587945    0.122367
    128          1           0       11.475079    4.009932    1.821569
    129          1           0       11.284833    4.776906   -0.990625
    130          1           0       12.612386    3.706585   -0.733754
    131          1           0       12.435041    5.173186    0.321429
    132          1           0        9.595702    3.425460    3.079485
    133          1           0        8.034993    3.356515    2.463085
    134          1           0        8.767784    5.416083    4.057426
    135          1           0        7.654380    5.645787    2.608576
    136          1           0       15.642557   -0.404397    2.283448
    137          1           0       14.780649    1.092503    1.908174
    138          1           0       15.641479    0.428881    0.653782
    139          1           0       16.529477   -2.107811    0.772984
    140          1           0       16.644387   -3.822150    1.245922
    141          1           0       16.013742   -2.674007    2.347123
    142          1           0        9.803237   -5.654797   -0.526031
    143          1           0        8.197467   -4.536963   -2.856150
    144          1           0       11.465977   -5.011924   -2.889995
    145          1           0        9.913111   -6.024646   -3.166859
    146          1           0       11.100836   -6.607461   -2.061824
    147          1           0        6.475189   -4.760951   -0.697656
    148          1           0        7.594962   -6.045468   -0.296281
    149          1           0        6.972242   -6.341957   -2.966071
    150          1           0        5.436098   -5.914265   -2.211687
    151          1           0        6.377957   -7.409995   -1.691887
    152          1           0        4.141951   -1.660858   -1.862450
    153          1           0        4.706679   -1.383339   -3.389230
    154          1           0        3.802308   -0.037573   -2.516381
    155          1           0        7.249303    3.598542   -2.014521
    156          1           0        6.576942    7.630504   -0.792496
    157          1           0        6.991810    6.892898    0.678786
    158          1           0        5.254550    6.774069   -0.010794
 ---------------------------------------------------------------------

 SCF Done:  E(RwB97XD) =  -4070.57251610     A.U. after   19 cycles

 Excitation energies and oscillator strengths:

 Excited State   1:      Singlet-A      1.6007 eV  774.56 nm  f=0.3876  <S**2>=0.000
     310 -> 316       -0.16171
     312 -> 313        0.68933
     310 <- 316       -0.11298
 This state for optimization and/or second-order correction.
 Total Energy, E(TD-HF/TD-DFT) =  -4070.51369102
 Copying the excited state density for this state as the 1-particle RhoCI density.

 Excited State   2:      Singlet-A      1.7434 eV  711.18 nm  f=0.3677  <S**2>=0.000
     309 -> 315       -0.21770
     311 -> 314        0.67305
     309 <- 315       -0.11924

 Excited State   3:      Singlet-A      2.1249 eV  583.47 nm  f=0.1985  <S**2>=0.000
     310 -> 313        0.66509
     312 -> 316        0.22037

 Excited State   4:      Singlet-A      2.1699 eV  571.37 nm  f=0.0840  <S**2>=0.000
     309 -> 314        0.62709
     311 -> 315        0.30979

 Excited State   5:      Singlet-A      3.1830 eV  389.52 nm  f=0.0051  <S**2>=0.000
     305 -> 313        0.15646
     306 -> 313        0.66705

 The electronic state is 1-A.
 Alpha  occ. eigenvalues --  -46.95722 -46.95077 -19.29827 -19.29183 -19.25154
 Alpha  occ. eigenvalues --  -19.24820 -19.24170 -19.24025 -19.23509 -19.22314
 Alpha  occ. eigenvalues --  -14.46765 -14.46707 -14.46281 -14.45841 -14.44604
 Alpha  occ. eigenvalues --  -14.44119 -14.44036 -14.43171 -10.43163 -10.42793
 Alpha  occ. eigenvalues --  -10.39877 -10.39082 -10.38505 -10.37796 -10.35572
 Alpha  occ. eigenvalues --  -10.35306 -10.35013 -10.34841 -10.34792 -10.34696
 Alpha  occ. eigenvalues --  -10.34620 -10.34613 -10.34608 -10.34599 -10.34539
 Alpha  occ. eigenvalues --  -10.34428 -10.34319 -10.34287 -10.34273 -10.33693
 Alpha  occ. eigenvalues --  -10.33339 -10.33055 -10.32950 -10.32760 -10.32723
 Alpha  occ. eigenvalues --  -10.32721 -10.32548 -10.32503 -10.32375 -10.32349
 Alpha  occ. eigenvalues --  -10.32189 -10.32104 -10.32052 -10.32034 -10.31962
 Alpha  occ. eigenvalues --  -10.31872 -10.31872 -10.31832 -10.31825 -10.31648
 Alpha  occ. eigenvalues --  -10.31641 -10.31563 -10.31557 -10.31482 -10.31372
 Alpha  occ. eigenvalues --  -10.31254 -10.31001 -10.30805 -10.30620 -10.30394
 Alpha  occ. eigenvalues --  -10.30237 -10.30206 -10.30152 -10.30056 -10.29936
 Alpha  occ. eigenvalues --  -10.29750 -10.29687 -10.29665 -10.29654 -10.29475
 Alpha  occ. eigenvalues --  -10.29464 -10.29332 -10.29279 -10.29264 -10.29194
 Alpha  occ. eigenvalues --  -10.28656  -3.21633  -3.21179  -1.95224  -1.94766
 Alpha  occ. eigenvalues --   -1.94738  -1.94581  -1.94302  -1.94166  -1.18511
 Alpha  occ. eigenvalues --   -1.16113  -1.12337  -1.11627  -1.09508  -1.09489
 Alpha  occ. eigenvalues --   -1.08999  -1.08934  -1.07787  -1.07205  -1.06770
 Alpha  occ. eigenvalues --   -1.05883  -1.05542  -1.05510  -1.04431  -1.03503
 Alpha  occ. eigenvalues --   -0.95534  -0.94944  -0.91414  -0.91215  -0.90536
 Alpha  occ. eigenvalues --   -0.90509  -0.89801  -0.89791  -0.89469  -0.89267
 Alpha  occ. eigenvalues --   -0.89232  -0.88849  -0.88633  -0.88020  -0.86439
 Alpha  occ. eigenvalues --   -0.86212  -0.85858  -0.85797  -0.84880  -0.84638
 Alpha  occ. eigenvalues --   -0.83958  -0.83868  -0.83442  -0.82859  -0.82645
 Alpha  occ. eigenvalues --   -0.82629  -0.80930  -0.80359  -0.79639  -0.79230
 Alpha  occ. eigenvalues --   -0.79057  -0.78890  -0.77979  -0.77826  -0.77224
 Alpha  occ. eigenvalues --   -0.77163  -0.75210  -0.75197  -0.74240  -0.72731
 Alpha  occ. eigenvalues --   -0.71056  -0.70933  -0.70490  -0.70430  -0.69998
 Alpha  occ. eigenvalues --   -0.69895  -0.69209  -0.68757  -0.67884  -0.67570
 Alpha  occ. eigenvalues --   -0.67554  -0.67464  -0.66938  -0.66726  -0.66590
 Alpha  occ. eigenvalues --   -0.66301  -0.63851  -0.63256  -0.62588  -0.62539
 Alpha  occ. eigenvalues --   -0.62115  -0.61618  -0.61311  -0.61288  -0.60652
 Alpha  occ. eigenvalues --   -0.60347  -0.60225  -0.59714  -0.59537  -0.59287
 Alpha  occ. eigenvalues --   -0.58956  -0.57750  -0.57674  -0.57427  -0.57403
 Alpha  occ. eigenvalues --   -0.56676  -0.56444  -0.56307  -0.55970  -0.55731
 Alpha  occ. eigenvalues --   -0.55472  -0.55462  -0.55109  -0.55002  -0.54874
 Alpha  occ. eigenvalues --   -0.54617  -0.54552  -0.54404  -0.54297  -0.54181
 Alpha  occ. eigenvalues --   -0.54170  -0.53537  -0.53467  -0.53192  -0.53071
 Alpha  occ. eigenvalues --   -0.53013  -0.52830  -0.52792  -0.52503  -0.52250
 Alpha  occ. eigenvalues --   -0.52076  -0.51826  -0.51665  -0.51630  -0.51501
 Alpha  occ. eigenvalues --   -0.51492  -0.51265  -0.51106  -0.51004  -0.50725
 Alpha  occ. eigenvalues --   -0.50613  -0.50492  -0.50298  -0.50072  -0.49954
 Alpha  occ. eigenvalues --   -0.49903  -0.49717  -0.49627  -0.49556  -0.49376
 Alpha  occ. eigenvalues --   -0.49244  -0.49036  -0.48998  -0.48719  -0.48260
 Alpha  occ. eigenvalues --   -0.48235  -0.48187  -0.48040  -0.47989  -0.47720
 Alpha  occ. eigenvalues --   -0.47507  -0.47278  -0.47193  -0.46881  -0.46853
 Alpha  occ. eigenvalues --   -0.46717  -0.46535  -0.46183  -0.46165  -0.45895
 Alpha  occ. eigenvalues --   -0.45837  -0.45746  -0.45504  -0.45494  -0.45234
 Alpha  occ. eigenvalues --   -0.45020  -0.44914  -0.44907  -0.44615  -0.44555
 Alpha  occ. eigenvalues --   -0.44428  -0.43887  -0.43884  -0.43732  -0.43616
 Alpha  occ. eigenvalues --   -0.43584  -0.43386  -0.43113  -0.43065  -0.42939
 Alpha  occ. eigenvalues --   -0.42642  -0.42524  -0.42524  -0.42451  -0.42227
 Alpha  occ. eigenvalues --   -0.41969  -0.41598  -0.41197  -0.41042  -0.40960
 Alpha  occ. eigenvalues --   -0.40410  -0.40342  -0.39978  -0.39901  -0.39522
 Alpha  occ. eigenvalues --   -0.39400  -0.39061  -0.38389  -0.38236  -0.38104
 Alpha  occ. eigenvalues --   -0.37630  -0.37627  -0.36578  -0.36459  -0.36049
 Alpha  occ. eigenvalues --   -0.35894  -0.35628  -0.35230  -0.34007  -0.33618
 Alpha  occ. eigenvalues --   -0.33265  -0.33222  -0.32608  -0.32291  -0.32096
 Alpha  occ. eigenvalues --   -0.31914  -0.31638  -0.31451  -0.26083  -0.26015
 Alpha  occ. eigenvalues --   -0.23483  -0.23387
 Alpha virt. eigenvalues --   -0.07863  -0.06954  -0.00727   0.01304   0.01826
 Alpha virt. eigenvalues --    0.02518   0.04369   0.04433   0.05088   0.05427
 Alpha virt. eigenvalues --    0.06315   0.06741   0.07827   0.07866   0.08105

 Mulliken charges:
               1
     1  Mg   0.983513
     2  C   -0.013461
     3  C   -0.065484
     4  C   -0.043289
     5  C   -0.083295
     6  N   -0.296599
     7  C   -0.036485
     8  C   -0.083974
     9  C   -0.102237
    10  C   -0.016670
    11  C    0.047522
    12  C    0.043097
    13  C   -0.116495
    14  H    0.053320
    15  N   -0.496745
    16  C    0.190180
    17  C   -0.170690
    18  C   -0.082365
    19  C    0.148069
    20  C    0.071818
    21  C    0.008644
    22  O   -0.275303
    23  C    0.009712
    24  N   -0.391919
    25  C    0.045365
    26  C   -0.110396
    27  C   -0.102398
    28  C    0.088932
    29  C    0.051854
    30  C   -0.033883
    31  C   -0.032684
    32  N   -0.400191
    33  C    0.123219
    34  C   -0.202637
    35  C   -0.039993
    36  C    0.129514
    37  C    0.087822
    38  C    0.156624
    39  O   -0.192270
    40  C   -0.060123
    41  C    0.245593
    42  O   -0.267812
    43  O   -0.350725
    44  C    0.133380
    45  H   -0.007439
    46  H    0.013261
    47  H    0.004712
    48  H    0.034015
    49  H    0.025142
    50  H    0.044891
    51  H    0.034722
    52  H    0.049784
    53  H    0.031765
    54  H    0.030935
    55  H    0.047896
    56  H    0.043676
    57  H    0.067705
    58  H    0.040719
    59  H    0.042798
    60  H    0.063883
    61  H    0.054718
    62  H    0.045541
    63  H    0.046811
    64  H    0.025244
    65  H    0.046003
    66  H    0.060332
    67  H    0.027779
    68  H    0.024568
    69  H    0.033454
    70  H    0.042427
    71  H    0.036069
    72  H    0.048380
    73  H    0.030899
    74  H    0.060139
    75  H    0.064836
    76  H    0.071710
    77  H    0.067303
    78  H    0.033676
    79  H    0.061587
    80  Mg   0.950541
    81  C   -0.001693
    82  C   -0.092635
    83  C   -0.057251
    84  C   -0.097584
    85  N   -0.289338
    86  C   -0.079848
    87  C   -0.022156
    88  C   -0.152099
    89  C    0.044671
    90  C    0.020230
    91  C    0.019260
    92  C   -0.121914
    93  H   -0.003084
    94  N   -0.573403
    95  C    0.230410
    96  C   -0.157513
    97  C   -0.064084
    98  C    0.176440
    99  C    0.067736
   100  C    0.057047
   101  O   -0.243291
   102  C   -0.029447
   103  N   -0.281737
   104  C    0.040549
   105  C   -0.118712
   106  C   -0.082432
   107  C    0.022756
   108  C    0.039340
   109  C   -0.018100
   110  C   -0.035034
   111  N   -0.421105
   112  C    0.154624
   113  C   -0.151972
   114  C   -0.029576
   115  C    0.146318
   116  C    0.092521
   117  C    0.133287
   118  O   -0.250034
   119  C   -0.095397
   120  C    0.288922
   121  O   -0.246900
   122  O   -0.409107
   123  C    0.146637
   124  H   -0.006633
   125  H    0.019212
   126  H   -0.015133
   127  H    0.025085
   128  H    0.043939
   129  H    0.037016
   130  H    0.039675
   131  H    0.043994
   132  H    0.028199
   133  H    0.057517
   134  H    0.065507
   135  H    0.078720
   136  H    0.055663
   137  H    0.031434
   138  H    0.060632
   139  H    0.053882
   140  H    0.050816
   141  H    0.059957
   142  H    0.047616
   143  H    0.034079
   144  H    0.061756
   145  H    0.029081
   146  H    0.039201
   147  H    0.034132
   148  H    0.024929
   149  H    0.022766
   150  H    0.040679
   151  H    0.046527
   152  H    0.029896
   153  H    0.045894
   154  H    0.072557
   155  H    0.082637
   156  H    0.044233
   157  H    0.042113
   158  H    0.066580
 Sum of Mulliken charges =  -0.00000

 Dipole moment (field-independent basis, Debye):
    X=              4.1538    Y=              0.0038    Z=              4.6390  Tot=              6.2269
 Quadrupole moment (field-independent basis, Debye-Ang):
   XX=           -427.0591   YY=           -511.0552   ZZ=           -492.9242
   XY=             36.1510   XZ=              7.5149   YZ=             35.9944

 Normal termination of Gaussian 16 at Sat Sep 18 16:55:45 2021.
