 Gaussian 16, Revision A.03,
 Gaussian 16:  ES64L-G16RevA.03 25-Dec-2016

 --------------------------------
 #p wB97XD/Def2SVP td=(nstates=5)
 --------------------------------

 --------------------------------
 TDDFT excited states in gaussian
 --------------------------------
 Symbolic Z-matrix:
 Charge =  0 Multiplicity = 1

                         Standard orientation:
 ---------------------------------------------------------------------
 Center     Atomic      Atomic             Coordinates (Angstroms)
 Number     Number       Type             X           Y           Z
 ---------------------------------------------------------------------
      1         12           0       24.949256    0.325674   -0.392176
      2          6           0       23.473501   -1.580000    2.216418
      3          6           0       23.421302    3.131703    1.125577
      4          6           0       25.934292    2.144283   -2.915409
      5          6           0       26.090125   -2.627695   -1.831836
      6          7           0       23.564803    0.736693    1.494064
      7          6           0       23.225000   -0.227636    2.410959
      8          6           0       22.509270    0.331043    3.629128
      9          6           0       22.398638    1.848689    3.172231
     10          6           0       23.206590    1.938792    1.868479
     11          6           0       20.942369    2.302216    3.129718
     12          6           0       23.359765    0.131596    4.902865
     13          6           0       22.622443   -0.182891    6.260058
     14          1           0       21.123831    0.182312    6.376693
     15          7           0       24.783655    2.380304   -0.810330
     16          6           0       24.050251    3.332288   -0.101562
     17          6           0       24.208145    4.627979   -0.780950
     18          6           0       25.033846    4.360997   -1.921405
     19          6           0       25.305030    2.911650   -1.867815
     20          6           0       23.550075    5.828466   -0.351692
     21          6           0       25.523478    5.334980   -2.988351
     22          8           0       26.156905    4.934542   -3.977881
     23          6           0       25.411872    6.795222   -2.786970
     24          7           0       25.792304   -0.186760   -2.182710
     25          6           0       26.202978    0.767055   -3.022638
     26          6           0       26.853675    0.147413   -4.301902
     27          6           0       27.067833   -1.332998   -3.853065
     28          6           0       26.282970   -1.433304   -2.582776
     29          6           0       26.021606    0.357869   -5.617891
     30          6           0       28.615450   -1.461698   -3.581898
     31          6           0       29.186701   -1.243652   -2.138466
     32          7           0       24.926723   -1.679471    0.100159
     33          6           0       25.434187   -2.778583   -0.616179
     34          6           0       25.071332   -4.017476    0.115841
     35          6           0       24.274819   -3.576873    1.166296
     36          6           0       24.212659   -2.199529    1.182326
     37          6           0       25.288980   -5.319030   -0.491622
     38          6           0       23.401929   -4.088819    2.219870
     39          8           0       23.144332   -5.258102    2.482780
     40          6           0       22.805459   -2.797430    2.953600
     41          6           0       21.322934   -2.792541    2.910897
     42          8           0       20.623814   -2.230585    2.072710
     43          8           0       20.830718   -3.526267    4.006822
     44          6           0       19.414353   -3.744362    4.195682
     45          1           0       23.201595    4.066256    1.646716
     46          1           0       26.308689    2.696524   -3.780317
     47          1           0       26.536753   -3.475618   -2.354730
     48          1           0       21.526972   -0.116878    3.781531
     49          1           0       22.813948    2.435629    3.990995
     50          1           0       20.718369    3.185530    3.726753
     51          1           0       20.198141    1.555839    3.407574
     52          1           0       20.753671    2.631361    2.107013
     53          1           0       23.997121    0.997283    5.082643
     54          1           0       23.997048   -0.694156    4.584571
     55          1           0       23.061982    0.395732    7.071837
     56          1           0       22.930737   -1.195617    6.519710
     57          1           0       24.329185    6.585389   -0.259092
     58          1           0       22.867786    5.625887    0.473301
     59          1           0       22.871340    5.983024   -1.191054
     60          1           0       24.392468    7.171139   -2.879256
     61          1           0       25.986527    7.310384   -3.556462
     62          1           0       25.676831    7.005440   -1.751173
     63          1           0       27.748582    0.769011   -4.332139
     64          1           0       26.803173   -2.038847   -4.640761
     65          1           0       26.399767    1.222251   -6.163889
     66          1           0       24.974794    0.408284   -5.320061
     67          1           0       26.169129   -0.545423   -6.209602
     68          1           0       29.161693   -0.935510   -4.365000
     69          1           0       28.780047   -2.538360   -3.633789
     70          1           0       30.072465   -0.633037   -2.311188
     71          1           0       29.504315   -2.171155   -1.660321
     72          1           0       28.549695   -0.692298   -1.447696
     73          1           0       24.906223   -5.293109   -1.511082
     74          1           0       24.688317   -6.028705    0.078199
     75          1           0       26.312123   -5.658799   -0.333190
     76          1           0       23.134484   -2.924510    3.985421
     77          1           0       19.068650   -4.702556    3.808564
     78          1           0       18.838279   -2.852285    3.949373
     79          1           0       19.350997   -3.712220    5.283740
     80         12           0      -24.552562    0.592093    0.276668
     81          6           0      -23.298842   -2.428975   -0.927859
     82          6           0      -21.479841    2.047354   -0.293577
     83          6           0      -25.966289    3.352984    1.347722
     84          6           0      -27.909497   -0.749398   -0.185853
     85          7           0      -22.540451   -0.211295   -0.499608
     86          6           0      -22.264017   -1.466849   -0.963066
     87          6           0      -20.833076   -1.587580   -1.351100
     88          6           0      -20.261962   -0.123121   -1.183970
     89          6           0      -21.494271    0.678131   -0.608446
     90          6           0      -18.927832   -0.033147   -0.401124
     91          6           0      -20.638393   -2.119136   -2.791926
     92          6           0      -19.676142   -3.305614   -2.806043
     93          1           0      -18.462362   -3.235646   -3.781157
     94          7           0      -23.805409    2.448896    0.526633
     95          6           0      -22.500086    2.874859    0.285363
     96          6           0      -22.457273    4.262784    0.727250
     97          6           0      -23.769188    4.670794    1.255010
     98          6           0      -24.602457    3.433495    1.128412
     99          6           0      -21.320787    5.124646    0.487591
    100          6           0      -24.073713    6.065071    1.617639
    101          8           0      -23.268060    6.971477    1.581816
    102          6           0      -25.434291    6.550977    1.977622
    103          7           0      -26.571631    1.179466    0.482368
    104          6           0      -26.863134    2.295513    1.225014
    105          6           0      -28.362776    2.452827    1.362672
    106          6           0      -28.922047    1.419558    0.457800
    107          6           0      -27.768538    0.595770    0.163914
    108          6           0      -28.905061    2.451584    2.850537
    109          6           0      -29.418492    2.000404   -0.910618
    110          6           0      -30.519645    1.297537   -1.559646
    111          7           0      -25.480020   -1.228629   -0.386169
    112          6           0      -26.814083   -1.650817   -0.456405
    113          6           0      -26.844830   -3.064054   -0.667806
    114          6           0      -25.520708   -3.416834   -0.900131
    115          6           0      -24.706123   -2.237557   -0.755523
    116          6           0      -28.089082   -3.873012   -0.682572
    117          6           0      -24.671789   -4.481893   -1.260105
    118          8           0      -24.931338   -5.641472   -1.492574
    119          6           0      -23.231686   -3.922712   -1.239405
    120          6           0      -22.420473   -4.719781   -0.305556
    121          8           0      -22.328587   -4.528601    0.918784
    122          8           0      -21.900626   -5.810795   -0.963523
    123          6           0      -20.977256   -6.705420   -0.284698
    124          1           0      -20.466132    2.424253   -0.440872
    125          1           0      -26.573684    4.209052    1.651992
    126          1           0      -28.933034   -1.117094   -0.284193
    127          1           0      -20.371755   -2.103185   -0.508349
    128          1           0      -19.995318    0.350640   -2.128219
    129          1           0      -18.556077   -1.056819   -0.459942
    130          1           0      -18.978755    0.381087    0.605866
    131          1           0      -18.228101    0.608830   -0.935679
    132          1           0      -20.150356   -1.413257   -3.463727
    133          1           0      -21.631773   -2.383109   -3.154259
    134          1           0      -20.337699   -4.059984   -3.231660
    135          1           0      -19.420943   -3.526346   -1.770631
    136          1           0      -20.541647    4.528995    0.011462
    137          1           0      -20.827547    5.523355    1.374577
    138          1           0      -21.608609    5.916414   -0.204941
    139          1           0      -25.709921    5.774721    2.691476
    140          1           0      -26.064157    6.512509    1.088473
    141          1           0      -25.392378    7.533982    2.447212
    142          1           0      -28.536039    3.462883    0.993196
    143          1           0      -29.641343    0.713364    0.872659
    144          1           0      -28.078716    2.520978    3.558200
    145          1           0      -29.620572    1.660851    3.078806
    146          1           0      -29.416300    3.375107    3.120853
    147          1           0      -28.574238    2.069292   -1.596723
    148          1           0      -29.764428    3.026758   -0.789053
    149          1           0      -31.459907    1.690644   -1.171503
    150          1           0      -30.449753    0.216098   -1.438000
    151          1           0      -30.600822    1.623081   -2.597227
    152          1           0      -28.791932   -3.528676    0.075948
    153          1           0      -27.921183   -4.945528   -0.583196
    154          1           0      -28.554838   -3.605259   -1.631029
    155          1           0      -22.695058   -4.098850   -2.171758
    156          1           0      -21.358605   -7.377483    0.484139
    157          1           0      -20.142188   -6.130422    0.114963
    158          1           0      -20.648040   -7.385345   -1.069583
 ---------------------------------------------------------------------

 SCF Done:  E(RwB97XD) =  -4070.57903230     A.U. after   20 cycles

 Excitation energies and oscillator strengths:

 Excited State   1:      Singlet-A      1.6143 eV  768.03 nm  f=0.3641  <S**2>=0.000
     309 -> 315       -0.19428
     311 -> 313        0.68134
     309 <- 315       -0.12116
 This state for optimization and/or second-order correction.
 Total Energy, E(TD-HF/TD-DFT) =  -4070.51970733
 Copying the excited state density for this state as the 1-particle RhoCI density.

 Excited State   2:      Singlet-A      1.6998 eV  729.42 nm  f=0.3732  <S**2>=0.000
     310 -> 316       -0.19452
     312 -> 314        0.67893
     310 <- 316       -0.11677

 Excited State   3:      Singlet-A      2.1298 eV  582.14 nm  f=0.0995  <S**2>=0.000
     309 -> 313        0.63361
     311 -> 315        0.30000

 Excited State   4:      Singlet-A      2.2204 eV  558.38 nm  f=0.0706  <S**2>=0.000
     310 -> 314        0.62145
     312 -> 316        0.32312

 Excited State   5:      Singlet-A      3.2693 eV  379.24 nm  f=0.0024  <S**2>=0.000
     305 -> 313       -0.24663
     306 -> 313        0.52066
     307 -> 313        0.35669

 The electronic state is 1-A.
 Alpha  occ. eigenvalues --  -46.95287 -46.94824 -19.30099 -19.29209 -19.24797
 Alpha  occ. eigenvalues --  -19.24326 -19.24319 -19.23807 -19.23401 -19.22410
 Alpha  occ. eigenvalues --  -14.46928 -14.46730 -14.46554 -14.45834 -14.44911
 Alpha  occ. eigenvalues --  -14.44279 -14.43766 -14.43507 -10.43312 -10.42944
 Alpha  occ. eigenvalues --  -10.39363 -10.39288 -10.38203 -10.37655 -10.35683
 Alpha  occ. eigenvalues --  -10.35653 -10.35590 -10.35407 -10.35151 -10.35087
 Alpha  occ. eigenvalues --  -10.35047 -10.34886 -10.34747 -10.34529 -10.34461
 Alpha  occ. eigenvalues --  -10.34445 -10.34432 -10.34198 -10.33893 -10.33223
 Alpha  occ. eigenvalues --  -10.33207 -10.33151 -10.33099 -10.32967 -10.32905
 Alpha  occ. eigenvalues --  -10.32712 -10.32707 -10.32431 -10.32378 -10.32274
 Alpha  occ. eigenvalues --  -10.32207 -10.32197 -10.32157 -10.32072 -10.31861
 Alpha  occ. eigenvalues --  -10.31691 -10.31576 -10.31437 -10.31414 -10.31413
 Alpha  occ. eigenvalues --  -10.31406 -10.31346 -10.31343 -10.31326 -10.31207
 Alpha  occ. eigenvalues --  -10.31186 -10.31127 -10.31057 -10.30755 -10.30675
 Alpha  occ. eigenvalues --  -10.30399 -10.30391 -10.30361 -10.30336 -10.30299
 Alpha  occ. eigenvalues --  -10.30095 -10.29604 -10.29364 -10.29364 -10.29195
 Alpha  occ. eigenvalues --  -10.29086 -10.29066 -10.28906 -10.28789 -10.28755
 Alpha  occ. eigenvalues --  -10.28672  -3.21225  -3.20814  -1.94816  -1.94409
 Alpha  occ. eigenvalues --   -1.94356  -1.94181  -1.93947  -1.93772  -1.17630
 Alpha  occ. eigenvalues --   -1.16796  -1.12290  -1.12064  -1.11858  -1.11446
 Alpha  occ. eigenvalues --   -1.09422  -1.08900  -1.06991  -1.06795  -1.06084
 Alpha  occ. eigenvalues --   -1.05820  -1.05071  -1.05010  -1.03631  -1.03353
 Alpha  occ. eigenvalues --   -0.94638  -0.93920  -0.92653  -0.91861  -0.91460
 Alpha  occ. eigenvalues --   -0.90995  -0.90522  -0.90237  -0.89649  -0.89293
 Alpha  occ. eigenvalues --   -0.89192  -0.88628  -0.88275  -0.88086  -0.87170
 Alpha  occ. eigenvalues --   -0.86455  -0.86051  -0.85378  -0.85194  -0.84573
 Alpha  occ. eigenvalues --   -0.84504  -0.83852  -0.83381  -0.82793  -0.82748
 Alpha  occ. eigenvalues --   -0.82400  -0.80951  -0.80593  -0.79918  -0.79070
 Alpha  occ. eigenvalues --   -0.79003  -0.78761  -0.78246  -0.77689  -0.77345
 Alpha  occ. eigenvalues --   -0.76725  -0.75404  -0.74086  -0.74029  -0.73274
 Alpha  occ. eigenvalues --   -0.71321  -0.71125  -0.71033  -0.70856  -0.69948
 Alpha  occ. eigenvalues --   -0.69823  -0.69477  -0.68734  -0.68412  -0.67896
 Alpha  occ. eigenvalues --   -0.67294  -0.66922  -0.66697  -0.66626  -0.66417
 Alpha  occ. eigenvalues --   -0.66166  -0.64022  -0.63509  -0.62720  -0.62356
 Alpha  occ. eigenvalues --   -0.61478  -0.61457  -0.61301  -0.61039  -0.60978
 Alpha  occ. eigenvalues --   -0.60006  -0.59934  -0.59830  -0.59385  -0.59133
 Alpha  occ. eigenvalues --   -0.58403  -0.58267  -0.57825  -0.57456  -0.57419
 Alpha  occ. eigenvalues --   -0.57190  -0.57140  -0.56371  -0.56175  -0.56166
 Alpha  occ. eigenvalues --   -0.55930  -0.55741  -0.55282  -0.55147  -0.55091
 Alpha  occ. eigenvalues --   -0.54750  -0.54697  -0.54496  -0.54238  -0.54177
 Alpha  occ. eigenvalues --   -0.54035  -0.53698  -0.53684  -0.53591  -0.53431
 Alpha  occ. eigenvalues --   -0.53218  -0.53217  -0.53191  -0.52756  -0.52485
 Alpha  occ. eigenvalues --   -0.52363  -0.51967  -0.51887  -0.51698  -0.51622
 Alpha  occ. eigenvalues --   -0.51531  -0.51353  -0.51063  -0.50892  -0.50822
 Alpha  occ. eigenvalues --   -0.50779  -0.50487  -0.50429  -0.50415  -0.50315
 Alpha  occ. eigenvalues --   -0.50015  -0.49538  -0.49517  -0.49290  -0.49083
 Alpha  occ. eigenvalues --   -0.48947  -0.48845  -0.48725  -0.48609  -0.48572
 Alpha  occ. eigenvalues --   -0.48249  -0.48173  -0.48015  -0.47925  -0.47675
 Alpha  occ. eigenvalues --   -0.47280  -0.47244  -0.46924  -0.46889  -0.46524
 Alpha  occ. eigenvalues --   -0.46488  -0.46466  -0.46199  -0.46141  -0.45978
 Alpha  occ. eigenvalues --   -0.45977  -0.45812  -0.45594  -0.45544  -0.45420
 Alpha  occ. eigenvalues --   -0.45364  -0.45275  -0.45169  -0.44988  -0.44894
 Alpha  occ. eigenvalues --   -0.44864  -0.44469  -0.44427  -0.43991  -0.43843
 Alpha  occ. eigenvalues --   -0.43676  -0.43653  -0.43542  -0.43373  -0.43338
 Alpha  occ. eigenvalues --   -0.43089  -0.42876  -0.42592  -0.42580  -0.42199
 Alpha  occ. eigenvalues --   -0.42171  -0.41747  -0.41269  -0.41114  -0.40494
 Alpha  occ. eigenvalues --   -0.40453  -0.39696  -0.39655  -0.39350  -0.39304
 Alpha  occ. eigenvalues --   -0.39092  -0.39073  -0.38609  -0.38375  -0.38303
 Alpha  occ. eigenvalues --   -0.38107  -0.37627  -0.36351  -0.36109  -0.35998
 Alpha  occ. eigenvalues --   -0.35740  -0.35511  -0.35204  -0.33604  -0.33178
 Alpha  occ. eigenvalues --   -0.33138  -0.32772  -0.32666  -0.32377  -0.32046
 Alpha  occ. eigenvalues --   -0.31695  -0.31544  -0.31460  -0.26233  -0.25800
 Alpha  occ. eigenvalues --   -0.23381  -0.22577
 Alpha virt. eigenvalues --   -0.07524  -0.06474  -0.00601   0.00217   0.02307
 Alpha virt. eigenvalues --    0.02310   0.04292   0.04458   0.05831   0.06385
 Alpha virt. eigenvalues --    0.06489   0.07093   0.07449   0.07681   0.07932

 Mulliken charges:
               1
     1  Mg   0.959002
     2  C    0.014174
     3  C   -0.115984
     4  C   -0.071843
     5  C   -0.091824
     6  N   -0.268627
     7  C   -0.050125
     8  C   -0.080485
     9  C   -0.081100
    10  C    0.061326
    11  C    0.017832
    12  C   -0.000845
    13  C   -0.101189
    14  H    0.041880
    15  N   -0.420523
    16  C    0.160581
    17  C   -0.187239
    18  C   -0.089522
    19  C    0.146050
    20  C    0.087491
    21  C    0.060856
    22  O   -0.251525
    23  C   -0.004533
    24  N   -0.411640
    25  C    0.041884
    26  C   -0.106389
    27  C   -0.056805
    28  C    0.053256
    29  C    0.041968
    30  C   -0.057123
    31  C   -0.040304
    32  N   -0.481812
    33  C    0.164175
    34  C   -0.192750
    35  C   -0.021504
    36  C    0.160144
    37  C    0.077991
    38  C    0.119448
    39  O   -0.196990
    40  C   -0.104498
    41  C    0.295940
    42  O   -0.245625
    43  O   -0.393134
    44  C    0.148830
    45  H    0.010771
    46  H    0.016620
    47  H   -0.005077
    48  H    0.045943
    49  H    0.028874
    50  H    0.025220
    51  H    0.045306
    52  H    0.027072
    53  H    0.030851
    54  H    0.034376
    55  H    0.044129
    56  H    0.052228
    57  H    0.062345
    58  H    0.037761
    59  H    0.061546
    60  H    0.050625
    61  H    0.063459
    62  H    0.049860
    63  H    0.039313
    64  H    0.036122
    65  H    0.056269
    66  H    0.049502
    67  H    0.029629
    68  H    0.044647
    69  H    0.027422
    70  H    0.033418
    71  H    0.043545
    72  H    0.047352
    73  H    0.057807
    74  H    0.044340
    75  H    0.045830
    76  H    0.074994
    77  H    0.071681
    78  H    0.047338
    79  H    0.039996
    80  Mg   0.953191
    81  C    0.048339
    82  C   -0.057402
    83  C   -0.121891
    84  C   -0.096202
    85  N   -0.342802
    86  C   -0.024000
    87  C   -0.029699
    88  C   -0.145879
    89  C    0.045712
    90  C    0.012164
    91  C    0.023899
    92  C   -0.137475
    93  H    0.039269
    94  N   -0.537294
    95  C    0.201996
    96  C   -0.171477
    97  C   -0.063970
    98  C    0.269719
    99  C    0.097469
   100  C   -0.011552
   101  O   -0.239031
   102  C    0.006774
   103  N   -0.368785
   104  C    0.069669
   105  C   -0.083377
   106  C   -0.081669
   107  C    0.062974
   108  C    0.032037
   109  C    0.003056
   110  C   -0.018636
   111  N   -0.406950
   112  C    0.111701
   113  C   -0.185367
   114  C   -0.015230
   115  C    0.112854
   116  C    0.089657
   117  C    0.108512
   118  O   -0.187593
   119  C   -0.127895
   120  C    0.253808
   121  O   -0.269054
   122  O   -0.361224
   123  C    0.148992
   124  H    0.001506
   125  H   -0.005784
   126  H   -0.002736
   127  H    0.049531
   128  H    0.042584
   129  H    0.038446
   130  H    0.051697
   131  H    0.032385
   132  H    0.051882
   133  H    0.051958
   134  H    0.064272
   135  H    0.053302
   136  H    0.001039
   137  H    0.057456
   138  H    0.064843
   139  H    0.039559
   140  H    0.062493
   141  H    0.058197
   142  H    0.032789
   143  H    0.027080
   144  H    0.034026
   145  H    0.045463
   146  H    0.027816
   147  H    0.039421
   148  H    0.019987
   149  H    0.027118
   150  H    0.029245
   151  H    0.034561
   152  H    0.036174
   153  H    0.067952
   154  H    0.051132
   155  H    0.050979
   156  H    0.058144
   157  H    0.047288
   158  H    0.050859
 Sum of Mulliken charges =  -0.00000

 Dipole moment (field-independent basis, Debye):
    X=             -0.9297    Y=              5.3984    Z=              0.8158  Tot=              5.5383
 Quadrupole moment (field-independent basis, Debye-Ang):
   XX=           -355.6706   YY=           -546.6294   ZZ=           -500.9199
   XY=             41.2000   XZ=             34.1743   YZ=             15.3393

 Normal termination of Gaussian 16 at Sun Sep 19 05:22:42 2021.
