 Gaussian 16, Revision A.03,
 Gaussian 16:  ES64L-G16RevA.03 25-Dec-2016

 --------------------------------
 #p wB97XD/Def2SVP td=(nstates=5)
 --------------------------------

 --------------------------------
 TDDFT excited states in gaussian
 --------------------------------
 Symbolic Z-matrix:
 Charge =  0 Multiplicity = 1

                         Standard orientation:
 ---------------------------------------------------------------------
 Center     Atomic      Atomic             Coordinates (Angstroms)
 Number     Number       Type             X           Y           Z
 ---------------------------------------------------------------------
      1         12           0      -30.529310    0.220465    0.201946
      2          6           0      -27.786234   -1.884120   -0.214933
      3          6           0      -31.932683   -1.082986   -2.655747
      4          6           0      -32.978029    2.512151    0.594756
      5          6           0      -28.790726    1.765486    2.914867
      6          7           0      -29.851093   -1.214872   -1.285107
      7          6           0      -28.725208   -1.978444   -1.257409
      8          6           0      -28.715791   -3.004159   -2.398244
      9          6           0      -30.012784   -2.578634   -3.218655
     10          6           0      -30.652045   -1.542189   -2.288596
     11          6           0      -29.661929   -1.976952   -4.574105
     12          6           0      -28.901875   -4.504578   -1.974262
     13          6           0      -28.295403   -5.556284   -2.866465
     14          1           0      -27.872144   -5.199188   -4.220742
     15          7           0      -32.230942    0.579332   -0.815394
     16          6           0      -32.630090   -0.077312   -1.996698
     17          6           0      -33.968123    0.374547   -2.275142
     18          6           0      -34.337059    1.372616   -1.338111
     19          6           0      -33.157110    1.536049   -0.453633
     20          6           0      -34.725087   -0.002936   -3.530493
     21          6           0      -35.592188    2.118466   -1.156885
     22          8           0      -35.693667    3.085318   -0.432134
     23          6           0      -36.849598    1.786183   -2.039504
     24          7           0      -30.967257    1.843886    1.684995
     25          6           0      -32.005640    2.619122    1.587639
     26          6           0      -31.998566    3.722168    2.688449
     27          6           0      -30.728375    3.462437    3.477830
     28          6           0      -30.044287    2.316839    2.648340
     29          6           0      -32.171807    5.170943    2.029468
     30          6           0      -30.994028    3.124961    4.960202
     31          6           0      -30.894065    4.306109    5.996440
     32          7           0      -28.871659   -0.119186    1.314892
     33          6           0      -28.274678    0.584209    2.390454
     34          6           0      -27.073529   -0.035188    2.803859
     35          6           0      -26.821538   -0.976023    1.716888
     36          6           0      -27.983343   -0.971879    0.893096
     37          6           0      -26.115580    0.490109    3.857436
     38          6           0      -25.818468   -1.865288    1.259444
     39          8           0      -24.729647   -2.184805    1.719931
     40          6           0      -26.503324   -2.603988   -0.069561
     41          6           0      -25.499295   -2.433954   -1.171640
     42          8           0      -25.088724   -1.343256   -1.581835
     43          8           0      -24.955373   -3.675432   -1.616323
     44          6           0      -23.936296   -3.585066   -2.708375
     45          1           0      -32.316669   -1.540066   -3.570914
     46          1           0      -33.703838    3.325647    0.538550
     47          1           0      -28.239973    2.166201    3.768005
     48          1           0      -27.799518   -2.822760   -2.960502
     49          1           0      -30.678893   -3.416435   -3.424369
     50          1           0      -28.626847   -2.186169   -4.842811
     51          1           0      -29.899658   -0.914803   -4.638655
     52          1           0      -30.149009   -2.471523   -5.414525
     53          1           0      -29.971318   -4.683368   -1.868386
     54          1           0      -28.540188   -4.581845   -0.948693
     55          1           0      -29.068365   -6.304142   -3.042116
     56          1           0      -27.429702   -5.990268   -2.366080
     57          1           0      -34.883586    0.838047   -4.205484
     58          1           0      -35.668251   -0.460784   -3.229377
     59          1           0      -34.240575   -0.729112   -4.182995
     60          1           0      -36.690434    2.302498   -2.986531
     61          1           0      -37.734541    2.272913   -1.629314
     62          1           0      -36.919197    0.716081   -2.230962
     63          1           0      -32.898659    3.497985    3.261184
     64          1           0      -30.014065    4.277856    3.374943
     65          1           0      -31.343800    5.821556    2.310568
     66          1           0      -33.038577    5.717853    2.401071
     67          1           0      -32.159775    4.982640    0.955132
     68          1           0      -30.254837    2.370718    5.232336
     69          1           0      -31.976234    2.653751    4.999635
     70          1           0      -29.847393    4.400307    6.287905
     71          1           0      -31.540479    4.294860    6.874215
     72          1           0      -31.098090    5.154691    5.344332
     73          1           0      -26.534064    0.102606    4.785945
     74          1           0      -26.114935    1.579048    3.887663
     75          1           0      -25.052606    0.335952    3.667498
     76          1           0      -26.707537   -3.646829    0.176233
     77          1           0      -23.048782   -3.042231   -2.385183
     78          1           0      -24.233541   -3.144811   -3.660546
     79          1           0      -23.685584   -4.642553   -2.791815
     80         12           0       30.638270   -0.071137   -0.759613
     81          6           0       27.450246   -1.096296    0.416826
     82          6           0       29.028307    2.571551   -2.369378
     83          6           0       33.562578    1.439910   -0.795755
     84          6           0       32.011614   -2.759290    1.312037
     85          7           0       28.437227    0.789334   -0.731128
     86          6           0       27.347657    0.045413   -0.417231
     87          6           0       26.105531    0.710169   -0.982989
     88          6           0       26.606340    1.425010   -2.238144
     89          6           0       28.121636    1.669382   -1.740991
     90          6           0       26.618208    0.656476   -3.560852
     91          6           0       25.423382    1.608625    0.138746
     92          6           0       23.956988    1.429324    0.188426
     93          1           0       23.090190    2.688928    0.380856
     94          7           0       31.264590    1.819016   -1.450577
     95          6           0       30.448288    2.731673   -2.163809
     96          6           0       31.303610    3.825440   -2.550160
     97          6           0       32.650276    3.530663   -2.208944
     98          6           0       32.572293    2.241714   -1.433446
     99          6           0       30.732781    5.041315   -3.273165
    100          6           0       33.821558    4.401025   -2.441589
    101          8           0       33.653219    5.482106   -2.992093
    102          6           0       35.225922    4.159516   -1.994397
    103          7           0       32.553278   -0.599039    0.268946
    104          6           0       33.603524    0.141530   -0.137635
    105          6           0       34.926827   -0.481967    0.341909
    106          6           0       34.469254   -1.942722    0.904936
    107          6           0       32.927673   -1.812733    0.799333
    108          6           0       36.097711   -0.466544   -0.740848
    109          6           0       34.997752   -2.311528    2.326471
    110          6           0       34.032613   -2.096450    3.541832
    111          7           0       29.955901   -1.570248    0.539190
    112          6           0       30.634872   -2.608858    1.237865
    113          6           0       29.595461   -3.588713    1.779423
    114          6           0       28.391032   -2.964653    1.496347
    115          6           0       28.667161   -1.771380    0.737407
    116          6           0       29.717757   -4.926319    2.534457
    117          6           0       26.972248   -3.097182    1.596769
    118          8           0       26.286281   -4.018355    2.042844
    119          6           0       26.412817   -1.834969    1.044412
    120          6           0       25.898688   -1.102732    2.305005
    121          8           0       26.565052   -0.473680    3.124286
    122          8           0       24.500957   -1.352018    2.393791
    123          6           0       23.812940   -0.889780    3.530149
    124          1           0       28.582529    3.365287   -2.972688
    125          1           0       34.510161    1.936620   -1.013449
    126          1           0       32.320575   -3.672042    1.824386
    127          1           0       25.368185   -0.000338   -1.356320
    128          1           0       26.149589    2.359861   -2.560971
    129          1           0       25.966907   -0.217038   -3.568006
    130          1           0       27.633143    0.508868   -3.930744
    131          1           0       26.149124    1.367588   -4.241829
    132          1           0       25.606458    2.656803   -0.097949
    133          1           0       25.897718    1.539202    1.117724
    134          1           0       23.851603    0.727658    1.015093
    135          1           0       23.639097    0.961822   -0.743380
    136          1           0       30.974864    5.055884   -4.335664
    137          1           0       31.053358    5.940444   -2.748989
    138          1           0       29.644150    5.037664   -3.216777
    139          1           0       35.622336    3.316410   -2.560729
    140          1           0       35.359887    3.965654   -0.929468
    141          1           0       35.899784    4.937052   -2.352132
    142          1           0       35.186079    0.133953    1.202768
    143          1           0       34.740837   -2.697267    0.167463
    144          1           0       35.944052    0.325518   -1.473608
    145          1           0       36.377390   -1.398740   -1.233087
    146          1           0       36.988272   -0.368099   -0.118142
    147          1           0       35.937213   -1.812468    2.562680
    148          1           0       35.166407   -3.384077    2.233142
    149          1           0       34.818086   -1.863927    4.261287
    150          1           0       33.457015   -2.950844    3.898592
    151          1           0       33.423435   -1.218491    3.325938
    152          1           0       29.218353   -5.728367    1.992056
    153          1           0       29.045015   -4.670176    3.352382
    154          1           0       30.756143   -5.032458    2.847691
    155          1           0       25.565097   -2.065346    0.399023
    156          1           0       22.747701   -1.123743    3.543404
    157          1           0       23.915551    0.194411    3.552738
    158          1           0       24.308176   -1.373278    4.372690
 ---------------------------------------------------------------------

 SCF Done:  E(RwB97XD) =  -4070.59312937     A.U. after   19 cycles

 Excitation energies and oscillator strengths:

 Excited State   1:      Singlet-A      1.6240 eV  763.46 nm  f=0.3523  <S**2>=0.000
     310 -> 315       -0.20436
     312 -> 314        0.67801
     310 <- 315       -0.12290
 This state for optimization and/or second-order correction.
 Total Energy, E(TD-HF/TD-DFT) =  -4070.53344947
 Copying the excited state density for this state as the 1-particle RhoCI density.

 Excited State   2:      Singlet-A      1.6920 eV  732.79 nm  f=0.3732  <S**2>=0.000
     309 -> 316       -0.17800
     311 -> 313        0.68410
     309 <- 316       -0.11255

 Excited State   3:      Singlet-A      2.1336 eV  581.11 nm  f=0.0543  <S**2>=0.000
     310 -> 314        0.61275
     312 -> 315        0.34221

 Excited State   4:      Singlet-A      2.1733 eV  570.48 nm  f=0.1432  <S**2>=0.000
     309 -> 313        0.64713
     311 -> 316        0.26328

 Excited State   5:      Singlet-A      3.3538 eV  369.68 nm  f=0.4755  <S**2>=0.000
     307 -> 314       -0.33230
     310 -> 314       -0.26927
     312 -> 315        0.53328
     310 <- 314        0.10374

 The electronic state is 1-A.
 Alpha  occ. eigenvalues --  -46.97649 -46.94339 -19.29940 -19.29357 -19.26333
 Alpha  occ. eigenvalues --  -19.24375 -19.24361 -19.23983 -19.23207 -19.22562
 Alpha  occ. eigenvalues --  -14.47282 -14.46980 -14.46505 -14.46249 -14.44855
 Alpha  occ. eigenvalues --  -14.44829 -14.44335 -14.43915 -10.44490 -10.42907
 Alpha  occ. eigenvalues --  -10.39516 -10.38574 -10.38304 -10.38050 -10.35883
 Alpha  occ. eigenvalues --  -10.35841 -10.35707 -10.35450 -10.35449 -10.35349
 Alpha  occ. eigenvalues --  -10.35341 -10.35038 -10.34917 -10.34871 -10.34855
 Alpha  occ. eigenvalues --  -10.34837 -10.34760 -10.34672 -10.34107 -10.33973
 Alpha  occ. eigenvalues --  -10.33563 -10.33482 -10.32826 -10.32815 -10.32789
 Alpha  occ. eigenvalues --  -10.32564 -10.32445 -10.32431 -10.32398 -10.32251
 Alpha  occ. eigenvalues --  -10.32205 -10.32155 -10.32058 -10.32058 -10.31999
 Alpha  occ. eigenvalues --  -10.31932 -10.31870 -10.31840 -10.31785 -10.31770
 Alpha  occ. eigenvalues --  -10.31668 -10.31636 -10.31603 -10.31522 -10.31506
 Alpha  occ. eigenvalues --  -10.31447 -10.31166 -10.31061 -10.31031 -10.30808
 Alpha  occ. eigenvalues --  -10.30783 -10.30659 -10.30464 -10.30285 -10.30281
 Alpha  occ. eigenvalues --  -10.30212 -10.30158 -10.29886 -10.29741 -10.29682
 Alpha  occ. eigenvalues --  -10.29616 -10.29607 -10.29502 -10.29171 -10.29032
 Alpha  occ. eigenvalues --  -10.28498  -3.23353  -3.20447  -1.96869  -1.96515
 Alpha  occ. eigenvalues --   -1.96266  -1.94056  -1.93569  -1.93437  -1.17977
 Alpha  occ. eigenvalues --   -1.15567  -1.13420  -1.11839  -1.11536  -1.10846
 Alpha  occ. eigenvalues --   -1.10802  -1.08001  -1.07204  -1.06199  -1.05948
 Alpha  occ. eigenvalues --   -1.05433  -1.05398  -1.04857  -1.04544  -1.03286
 Alpha  occ. eigenvalues --   -0.96394  -0.94034  -0.91220  -0.91020  -0.90842
 Alpha  occ. eigenvalues --   -0.90613  -0.90354  -0.89791  -0.89671  -0.89407
 Alpha  occ. eigenvalues --   -0.89196  -0.88778  -0.88192  -0.87495  -0.86682
 Alpha  occ. eigenvalues --   -0.86241  -0.85560  -0.84883  -0.84600  -0.84144
 Alpha  occ. eigenvalues --   -0.83545  -0.83450  -0.82797  -0.82336  -0.82226
 Alpha  occ. eigenvalues --   -0.81981  -0.80801  -0.79975  -0.79182  -0.79181
 Alpha  occ. eigenvalues --   -0.78791  -0.78769  -0.77952  -0.77796  -0.77141
 Alpha  occ. eigenvalues --   -0.76999  -0.75116  -0.74733  -0.73817  -0.73609
 Alpha  occ. eigenvalues --   -0.71827  -0.71567  -0.70908  -0.70707  -0.69951
 Alpha  occ. eigenvalues --   -0.69314  -0.69240  -0.68808  -0.67721  -0.67295
 Alpha  occ. eigenvalues --   -0.67184  -0.66966  -0.66905  -0.66684  -0.66617
 Alpha  occ. eigenvalues --   -0.66539  -0.64206  -0.63383  -0.62431  -0.61912
 Alpha  occ. eigenvalues --   -0.61753  -0.61603  -0.61332  -0.61259  -0.60849
 Alpha  occ. eigenvalues --   -0.60542  -0.60258  -0.59743  -0.59313  -0.59000
 Alpha  occ. eigenvalues --   -0.58286  -0.58084  -0.57925  -0.57607  -0.57003
 Alpha  occ. eigenvalues --   -0.56840  -0.56566  -0.56496  -0.55955  -0.55625
 Alpha  occ. eigenvalues --   -0.55382  -0.55287  -0.55152  -0.54962  -0.54890
 Alpha  occ. eigenvalues --   -0.54557  -0.54440  -0.54279  -0.54227  -0.54079
 Alpha  occ. eigenvalues --   -0.53954  -0.53880  -0.53596  -0.53489  -0.53320
 Alpha  occ. eigenvalues --   -0.53235  -0.52902  -0.52510  -0.52468  -0.52140
 Alpha  occ. eigenvalues --   -0.52075  -0.51888  -0.51773  -0.51647  -0.51491
 Alpha  occ. eigenvalues --   -0.51386  -0.51209  -0.51154  -0.51008  -0.50894
 Alpha  occ. eigenvalues --   -0.50580  -0.50412  -0.50305  -0.50167  -0.50058
 Alpha  occ. eigenvalues --   -0.49690  -0.49601  -0.49423  -0.49387  -0.49203
 Alpha  occ. eigenvalues --   -0.49102  -0.49069  -0.48844  -0.48761  -0.48616
 Alpha  occ. eigenvalues --   -0.47999  -0.47888  -0.47815  -0.47785  -0.47752
 Alpha  occ. eigenvalues --   -0.47350  -0.47218  -0.47048  -0.47037  -0.46939
 Alpha  occ. eigenvalues --   -0.46657  -0.46501  -0.46475  -0.46355  -0.46229
 Alpha  occ. eigenvalues --   -0.46084  -0.46012  -0.45816  -0.45785  -0.45430
 Alpha  occ. eigenvalues --   -0.45284  -0.45200  -0.44976  -0.44949  -0.44822
 Alpha  occ. eigenvalues --   -0.44569  -0.44507  -0.44332  -0.43958  -0.43928
 Alpha  occ. eigenvalues --   -0.43762  -0.43479  -0.43460  -0.43295  -0.43187
 Alpha  occ. eigenvalues --   -0.42947  -0.42859  -0.42689  -0.42315  -0.42177
 Alpha  occ. eigenvalues --   -0.41940  -0.41779  -0.41328  -0.41051  -0.40549
 Alpha  occ. eigenvalues --   -0.40486  -0.40165  -0.39868  -0.39808  -0.39615
 Alpha  occ. eigenvalues --   -0.39249  -0.38968  -0.38584  -0.38301  -0.38107
 Alpha  occ. eigenvalues --   -0.37773  -0.37707  -0.37165  -0.36458  -0.36213
 Alpha  occ. eigenvalues --   -0.35914  -0.35600  -0.35552  -0.33852  -0.33519
 Alpha  occ. eigenvalues --   -0.33163  -0.32970  -0.32752  -0.32700  -0.32130
 Alpha  occ. eigenvalues --   -0.31749  -0.31618  -0.31596  -0.26145  -0.25951
 Alpha  occ. eigenvalues --   -0.23390  -0.22820
 Alpha virt. eigenvalues --   -0.07419  -0.06868  -0.00716   0.00251   0.01866
 Alpha virt. eigenvalues --    0.02239   0.02940   0.04328   0.04487   0.06839
 Alpha virt. eigenvalues --    0.06867   0.06895   0.07584   0.07886   0.08426

 Mulliken charges:
               1
     1  Mg   0.981268
     2  C   -0.070996
     3  C   -0.107994
     4  C   -0.077370
     5  C   -0.077076
     6  N   -0.334024
     7  C    0.003225
     8  C   -0.040124
     9  C   -0.140177
    10  C    0.073027
    11  C    0.018702
    12  C    0.018169
    13  C   -0.105741
    14  H    0.036509
    15  N   -0.531781
    16  C    0.234339
    17  C   -0.151085
    18  C   -0.045556
    19  C    0.152466
    20  C    0.051974
    21  C    0.017152
    22  O   -0.224838
    23  C   -0.005281
    24  N   -0.321234
    25  C    0.055916
    26  C   -0.094088
    27  C   -0.043721
    28  C    0.027602
    29  C    0.014749
    30  C   -0.005395
    31  C   -0.042800
    32  N   -0.449373
    33  C    0.125008
    34  C   -0.138823
    35  C   -0.084699
    36  C    0.187814
    37  C    0.059598
    38  C    0.113540
    39  O   -0.211585
    40  C   -0.083731
    41  C    0.288677
    42  O   -0.260482
    43  O   -0.404779
    44  C    0.141043
    45  H    0.004083
    46  H    0.032128
    47  H    0.000478
    48  H    0.043806
    49  H    0.038824
    50  H    0.033321
    51  H    0.049261
    52  H    0.023043
    53  H    0.024375
    54  H    0.025386
    55  H    0.048817
    56  H    0.067379
    57  H    0.063483
    58  H    0.049955
    59  H    0.030828
    60  H    0.053334
    61  H    0.056013
    62  H    0.038198
    63  H    0.048297
    64  H    0.027376
    65  H    0.030056
    66  H    0.045678
    67  H    0.051187
    68  H    0.026165
    69  H    0.026671
    70  H    0.037039
    71  H    0.054575
    72  H    0.027404
    73  H    0.054145
    74  H    0.037493
    75  H    0.064166
    76  H    0.072252
    77  H    0.058587
    78  H    0.054411
    79  H    0.053764
    80  Mg   0.936584
    81  C    0.010995
    82  C   -0.075318
    83  C   -0.029868
    84  C   -0.064532
    85  N   -0.298253
    86  C   -0.021787
    87  C   -0.051701
    88  C   -0.134265
    89  C    0.044148
    90  C    0.038292
    91  C    0.033637
    92  C   -0.117041
    93  H    0.034925
    94  N   -0.490228
    95  C    0.145786
    96  C   -0.165550
    97  C   -0.025034
    98  C    0.111641
    99  C    0.096188
   100  C   -0.007022
   101  O   -0.246450
   102  C    0.014067
   103  N   -0.325758
   104  C    0.063047
   105  C   -0.098295
   106  C   -0.020445
   107  C    0.007463
   108  C    0.005961
   109  C   -0.047091
   110  C   -0.048019
   111  N   -0.422827
   112  C    0.106811
   113  C   -0.210741
   114  C   -0.023502
   115  C    0.161775
   116  C    0.090950
   117  C    0.075801
   118  O   -0.216257
   119  C   -0.055119
   120  C    0.276591
   121  O   -0.229469
   122  O   -0.374854
   123  C    0.144823
   124  H    0.004574
   125  H   -0.047390
   126  H   -0.000863
   127  H    0.012673
   128  H    0.029589
   129  H    0.042141
   130  H    0.047008
   131  H    0.028404
   132  H    0.032672
   133  H    0.056476
   134  H    0.045318
   135  H    0.046277
   136  H    0.058329
   137  H    0.061395
   138  H    0.009490
   139  H    0.040873
   140  H    0.071639
   141  H    0.046891
   142  H    0.050765
   143  H    0.037816
   144  H    0.052398
   145  H    0.033856
   146  H    0.031521
   147  H    0.040205
   148  H    0.030974
   149  H    0.035592
   150  H    0.046421
   151  H    0.060487
   152  H    0.072925
   153  H    0.068001
   154  H    0.038968
   155  H    0.061026
   156  H    0.058055
   157  H    0.041811
   158  H    0.053628
 Sum of Mulliken charges =  -0.00000

 Dipole moment (field-independent basis, Debye):
    X=             -2.9202    Y=             -3.7997    Z=             -4.8582  Tot=              6.8241
 Quadrupole moment (field-independent basis, Debye-Ang):
   XX=            -91.5679   YY=           -526.7818   ZZ=           -484.2614
   XY=            -80.0814   XZ=             54.2962   YZ=             32.9939

 Normal termination of Gaussian 16 at Mon Sep 20 10:05:14 2021.
