 Gaussian 16, Revision A.03,
 Gaussian 16:  ES64L-G16RevA.03 25-Dec-2016

 --------------------------------
 #p wB97XD/Def2SVP td=(nstates=5)
 --------------------------------

 --------------------------------
 TDDFT excited states in gaussian
 --------------------------------
 Symbolic Z-matrix:
 Charge =  0 Multiplicity = 1

                         Standard orientation:
 ---------------------------------------------------------------------
 Center     Atomic      Atomic             Coordinates (Angstroms)
 Number     Number       Type             X           Y           Z
 ---------------------------------------------------------------------
      1         12           0      -31.325843   -0.091624   -0.200722
      2          6           0      -27.884962    0.499940    0.047596
      3          6           0      -30.704911   -3.053161    1.473917
      4          6           0      -34.624922   -0.583925   -0.075336
      5          6           0      -31.814475    3.253093   -1.092068
      6          7           0      -29.380634   -1.070821    0.869444
      7          6           0      -28.102816   -0.678727    0.704163
      8          6           0      -27.100269   -1.590207    1.370294
      9          6           0      -28.061202   -2.829546    1.528962
     10          6           0      -29.489751   -2.329954    1.339243
     11          6           0      -27.758131   -3.879212    0.426626
     12          6           0      -26.480141   -0.929155    2.607803
     13          6           0      -27.362696   -0.084786    3.550469
     14          1           0      -27.237823   -0.396054    5.037211
     15          7           0      -32.492164   -1.587250    0.565796
     16          6           0      -32.025442   -2.758962    1.100006
     17          6           0      -33.100570   -3.758936    1.064266
     18          6           0      -34.324680   -3.038076    0.762979
     19          6           0      -33.822442   -1.681788    0.385260
     20          6           0      -32.933760   -5.213276    1.649733
     21          6           0      -35.753144   -3.584264    0.828069
     22          8           0      -35.952570   -4.751237    1.020841
     23          6           0      -36.919519   -2.665899    0.603013
     24          7           0      -32.997134    1.290892   -0.345592
     25          6           0      -34.326307    0.829349   -0.370515
     26          6           0      -35.373234    1.974090   -0.706377
     27          6           0      -34.397387    3.185933   -1.090767
     28          6           0      -32.956891    2.532120   -0.870697
     29          6           0      -36.541550    1.717791   -1.783947
     30          6           0      -34.595955    4.566343   -0.313579
     31          6           0      -34.260550    5.810327   -1.275876
     32          7           0      -30.130735    1.589066   -0.539030
     33          6           0      -30.470112    2.850762   -0.983484
     34          6           0      -29.253059    3.618356   -1.217698
     35          6           0      -28.168014    2.759745   -0.903981
     36          6           0      -28.764707    1.542676   -0.413224
     37          6           0      -29.159610    4.981093   -1.852596
     38          6           0      -26.688022    2.582867   -0.742242
     39          8           0      -25.787246    3.383651   -0.858206
     40          6           0      -26.505888    1.108349   -0.182309
     41          6           0      -25.702462    0.356553   -1.207672
     42          8           0      -24.461055    0.481044   -1.356710
     43          8           0      -26.510595   -0.578891   -1.837459
     44          6           0      -25.831125   -1.516420   -2.667744
     45          1           0      -30.500710   -4.028973    1.919695
     46          1           0      -35.694659   -0.689579   -0.268754
     47          1           0      -31.973349    4.226851   -1.560324
     48          1           0      -26.325794   -1.914757    0.675598
     49          1           0      -28.043233   -3.371352    2.473626
     50          1           0      -28.715045   -4.344602    0.189103
     51          1           0      -26.969282   -4.556943    0.749898
     52          1           0      -27.473785   -3.537524   -0.569108
     53          1           0      -25.757704   -0.210045    2.222942
     54          1           0      -25.968700   -1.701524    3.182363
     55          1           0      -28.409560   -0.262231    3.305360
     56          1           0      -27.071435    0.959344    3.439866
     57          1           0      -32.972553   -5.280967    2.737278
     58          1           0      -31.993812   -5.640486    1.300160
     59          1           0      -33.632402   -5.961963    1.278054
     60          1           0      -37.869943   -3.150265    0.829396
     61          1           0      -36.971424   -2.279380   -0.415029
     62          1           0      -36.776095   -1.929488    1.394173
     63          1           0      -35.804237    2.113878    0.284272
     64          1           0      -34.459136    3.414470   -2.154359
     65          1           0      -37.398028    1.323687   -1.238171
     66          1           0      -36.224044    1.022120   -2.560200
     67          1           0      -36.773371    2.665058   -2.271250
     68          1           0      -33.858460    4.677772    0.481189
     69          1           0      -35.592144    4.630896    0.124774
     70          1           0      -33.428068    6.394417   -0.883347
     71          1           0      -35.133764    6.458184   -1.346744
     72          1           0      -33.892673    5.616176   -2.282795
     73          1           0      -29.735965    5.680981   -1.248504
     74          1           0      -29.591074    4.948272   -2.853257
     75          1           0      -28.136836    5.356507   -1.881391
     76          1           0      -25.846608    1.236250    0.675943
     77          1           0      -26.544112   -2.256521   -3.030341
     78          1           0      -24.953683   -1.925211   -2.166358
     79          1           0      -25.496193   -1.067438   -3.602765
     80         12           0       31.051586    0.521897   -0.327767
     81          6           0       28.779267   -2.134437    0.156839
     82          6           0       28.843355    2.640290    1.346690
     83          6           0       33.640351    2.700564    0.079769
     84          6           0       33.354286   -1.941284   -1.536143
     85          7           0       29.072088    0.267230    0.581767
     86          6           0       28.367260   -0.879428    0.685279
     87          6           0       27.076840   -0.670243    1.542739
     88          6           0       26.994163    0.925332    1.546387
     89          6           0       28.422521    1.362311    1.086021
     90          6           0       25.987779    1.668969    0.639243
     91          6           0       27.299085   -1.314115    2.963396
     92          6           0       26.026195   -1.968763    3.568262
     93          1           0       25.811349   -1.739124    5.119636
     94          7           0       31.187210    2.545741    0.424989
     95          6           0       30.137986    3.201222    1.012764
     96          6           0       30.594300    4.504180    1.316540
     97          6           0       31.992464    4.581104    1.043867
     98          6           0       32.351628    3.256653    0.434963
     99          6           0       29.748783    5.597566    1.925685
    100          6           0       32.920833    5.680359    1.433747
    101          8           0       32.551735    6.628063    2.108558
    102          6           0       34.327724    5.716227    1.130103
    103          7           0       33.245461    0.315903   -0.596680
    104          6           0       34.044170    1.465195   -0.502747
    105          6           0       35.419935    1.194140   -1.026287
    106          6           0       35.381283   -0.308365   -1.492037
    107          6           0       33.939840   -0.693208   -1.206793
    108          6           0       35.734736    2.195919   -2.144591
    109          6           0       36.563345   -1.179640   -0.922256
    110          6           0       37.436887   -1.873625   -1.922908
    111          7           0       31.101243   -1.637574   -0.686925
    112          6           0       32.084278   -2.433086   -1.222408
    113          6           0       31.567783   -3.797725   -1.466799
    114          6           0       30.287645   -3.692158   -0.861026
    115          6           0       30.038575   -2.381149   -0.500558
    116          6           0       32.287501   -5.022865   -2.008477
    117          6           0       29.167971   -4.486777   -0.430813
    118          8           0       28.985594   -5.711932   -0.505595
    119          6           0       28.130520   -3.571162    0.218425
    120          6           0       26.818220   -3.696185   -0.442895
    121          8           0       25.847154   -4.028206    0.134495
    122          8           0       26.798106   -3.206527   -1.716791
    123          6           0       25.410909   -3.119948   -2.222457
    124          1           0       28.145234    3.349621    1.797082
    125          1           0       34.400021    3.480290    0.153922
    126          1           0       33.915522   -2.826064   -1.845605
    127          1           0       26.245572   -1.147718    1.023686
    128          1           0       27.050897    1.391735    2.529791
    129          1           0       25.741775    1.061366   -0.232365
    130          1           0       26.282461    2.662158    0.300213
    131          1           0       25.076416    1.762695    1.228817
    132          1           0       27.722145   -0.586288    3.656358
    133          1           0       28.059771   -2.077468    2.799558
    134          1           0       26.166246   -3.029028    3.356996
    135          1           0       25.233608   -1.586359    2.924707
    136          1           0       30.095742    6.619477    1.772117
    137          1           0       29.747950    5.352864    2.987519
    138          1           0       28.672561    5.527523    1.767634
    139          1           0       34.413993    5.717322    0.042768
    140          1           0       34.853347    4.882679    1.596839
    141          1           0       34.744488    6.637375    1.537511
    142          1           0       36.146457    1.195768   -0.214074
    143          1           0       35.302228   -0.503907   -2.561662
    144          1           0       35.049369    3.043471   -2.169432
    145          1           0       35.664421    1.735879   -3.130248
    146          1           0       36.657684    2.724812   -1.908671
    147          1           0       36.075713   -1.905835   -0.271893
    148          1           0       37.324479   -0.603293   -0.397597
    149          1           0       37.438679   -2.932476   -1.665597
    150          1           0       38.472552   -1.539348   -1.858861
    151          1           0       37.168021   -1.651238   -2.955598
    152          1           0       32.865289   -5.543755   -1.244705
    153          1           0       32.900721   -4.809390   -2.884876
    154          1           0       31.442320   -5.676179   -2.224802
    155          1           0       27.917023   -3.918607    1.228450
    156          1           0       25.453577   -2.724501   -3.237633
    157          1           0       24.806812   -2.476829   -1.582634
    158          1           0       24.927760   -4.084258   -2.376023
 ---------------------------------------------------------------------

 SCF Done:  E(RwB97XD) =  -4070.58068687     A.U. after   20 cycles

 Excitation energies and oscillator strengths:

 Excited State   1:      Singlet-A      1.6192 eV  765.71 nm  f=0.4060  <S**2>=0.000
     309 -> 315        0.17887
     311 -> 313        0.68467
     309 <- 315        0.11646
 This state for optimization and/or second-order correction.
 Total Energy, E(TD-HF/TD-DFT) =  -4070.52118211
 Copying the excited state density for this state as the 1-particle RhoCI density.

 Excited State   2:      Singlet-A      1.6941 eV  731.88 nm  f=0.3578  <S**2>=0.000
     310 -> 316        0.19920
     312 -> 314        0.67862
     310 <- 316        0.11862

 Excited State   3:      Singlet-A      2.1451 eV  577.98 nm  f=0.1104  <S**2>=0.000
     309 -> 313        0.63986
     311 -> 315       -0.28459

 Excited State   4:      Singlet-A      2.1842 eV  567.64 nm  f=0.1016  <S**2>=0.000
     310 -> 314        0.63340
     312 -> 316       -0.30084

 Excited State   5:      Singlet-A      3.2205 eV  384.99 nm  f=0.0034  <S**2>=0.000
     305 -> 313       -0.13557
     306 -> 313       -0.11686
     308 -> 313        0.65574
     308 -> 318        0.10333

 The electronic state is 1-A.
 Alpha  occ. eigenvalues --  -46.97160 -46.96734 -19.31242 -19.30340 -19.24982
 Alpha  occ. eigenvalues --  -19.24847 -19.24565 -19.24072 -19.23944 -19.22304
 Alpha  occ. eigenvalues --  -14.47601 -14.47271 -14.46839 -14.46407 -14.45129
 Alpha  occ. eigenvalues --  -14.44475 -14.44039 -14.43895 -10.43845 -10.42564
 Alpha  occ. eigenvalues --  -10.39803 -10.39284 -10.38823 -10.37402 -10.36951
 Alpha  occ. eigenvalues --  -10.36301 -10.36008 -10.35946 -10.35879 -10.35699
 Alpha  occ. eigenvalues --  -10.35571 -10.35178 -10.35091 -10.34998 -10.34956
 Alpha  occ. eigenvalues --  -10.34557 -10.34239 -10.34193 -10.33954 -10.33861
 Alpha  occ. eigenvalues --  -10.33797 -10.33554 -10.33519 -10.33246 -10.33109
 Alpha  occ. eigenvalues --  -10.33105 -10.33069 -10.33016 -10.32754 -10.32585
 Alpha  occ. eigenvalues --  -10.32576 -10.32498 -10.32495 -10.32489 -10.32477
 Alpha  occ. eigenvalues --  -10.32443 -10.32276 -10.32190 -10.32162 -10.32138
 Alpha  occ. eigenvalues --  -10.32034 -10.31901 -10.31839 -10.31812 -10.31728
 Alpha  occ. eigenvalues --  -10.31623 -10.31568 -10.31551 -10.30971 -10.30902
 Alpha  occ. eigenvalues --  -10.30812 -10.30751 -10.30732 -10.30384 -10.30324
 Alpha  occ. eigenvalues --  -10.30276 -10.30246 -10.30149 -10.30114 -10.30110
 Alpha  occ. eigenvalues --  -10.29928 -10.29781 -10.29561 -10.29530 -10.29160
 Alpha  occ. eigenvalues --  -10.29127  -3.22804  -3.22579  -1.96397  -1.96123
 Alpha  occ. eigenvalues --   -1.95895  -1.95756  -1.95712  -1.95529  -1.20139
 Alpha  occ. eigenvalues --   -1.18624  -1.13747  -1.12879  -1.11722  -1.11259
 Alpha  occ. eigenvalues --   -1.11219  -1.09243  -1.07173  -1.06793  -1.05958
 Alpha  occ. eigenvalues --   -1.05747  -1.05438  -1.04947  -1.04558  -1.03902
 Alpha  occ. eigenvalues --   -0.94633  -0.94462  -0.91287  -0.90953  -0.90890
 Alpha  occ. eigenvalues --   -0.90294  -0.90119  -0.89955  -0.89585  -0.89260
 Alpha  occ. eigenvalues --   -0.88993  -0.87975  -0.87752  -0.87665  -0.86781
 Alpha  occ. eigenvalues --   -0.86757  -0.86596  -0.85245  -0.84630  -0.84611
 Alpha  occ. eigenvalues --   -0.84398  -0.83802  -0.82890  -0.82748  -0.82521
 Alpha  occ. eigenvalues --   -0.82339  -0.80611  -0.79553  -0.79492  -0.79218
 Alpha  occ. eigenvalues --   -0.78802  -0.78629  -0.78411  -0.78320  -0.77361
 Alpha  occ. eigenvalues --   -0.77277  -0.75155  -0.74789  -0.74497  -0.74036
 Alpha  occ. eigenvalues --   -0.71856  -0.71360  -0.71331  -0.71199  -0.70219
 Alpha  occ. eigenvalues --   -0.69926  -0.69203  -0.68847  -0.68292  -0.67823
 Alpha  occ. eigenvalues --   -0.67650  -0.67009  -0.66849  -0.66839  -0.66651
 Alpha  occ. eigenvalues --   -0.66617  -0.65689  -0.65312  -0.62091  -0.62076
 Alpha  occ. eigenvalues --   -0.62027  -0.61265  -0.60988  -0.60938  -0.60871
 Alpha  occ. eigenvalues --   -0.60279  -0.60151  -0.59710  -0.59332  -0.59052
 Alpha  occ. eigenvalues --   -0.58452  -0.58263  -0.58026  -0.58017  -0.57539
 Alpha  occ. eigenvalues --   -0.57474  -0.57078  -0.57000  -0.56510  -0.56207
 Alpha  occ. eigenvalues --   -0.55649  -0.55493  -0.55316  -0.55134  -0.55094
 Alpha  occ. eigenvalues --   -0.55015  -0.54771  -0.54758  -0.54569  -0.54208
 Alpha  occ. eigenvalues --   -0.53845  -0.53672  -0.53620  -0.53436  -0.53350
 Alpha  occ. eigenvalues --   -0.53280  -0.53025  -0.52824  -0.52642  -0.52475
 Alpha  occ. eigenvalues --   -0.52007  -0.51967  -0.51903  -0.51786  -0.51676
 Alpha  occ. eigenvalues --   -0.51538  -0.51495  -0.51237  -0.51029  -0.50882
 Alpha  occ. eigenvalues --   -0.50591  -0.50564  -0.50322  -0.50294  -0.50102
 Alpha  occ. eigenvalues --   -0.49503  -0.49458  -0.49266  -0.49256  -0.49171
 Alpha  occ. eigenvalues --   -0.48940  -0.48879  -0.48709  -0.48626  -0.48622
 Alpha  occ. eigenvalues --   -0.48267  -0.48255  -0.48247  -0.48002  -0.47680
 Alpha  occ. eigenvalues --   -0.47618  -0.47448  -0.47245  -0.47111  -0.47095
 Alpha  occ. eigenvalues --   -0.47036  -0.46826  -0.46797  -0.46635  -0.46297
 Alpha  occ. eigenvalues --   -0.46173  -0.45991  -0.45892  -0.45805  -0.45597
 Alpha  occ. eigenvalues --   -0.45527  -0.45387  -0.45301  -0.45229  -0.44927
 Alpha  occ. eigenvalues --   -0.44924  -0.44813  -0.44696  -0.44548  -0.44338
 Alpha  occ. eigenvalues --   -0.44240  -0.44165  -0.43923  -0.43696  -0.43630
 Alpha  occ. eigenvalues --   -0.43299  -0.43122  -0.42900  -0.42643  -0.42258
 Alpha  occ. eigenvalues --   -0.42061  -0.41817  -0.41537  -0.41126  -0.41003
 Alpha  occ. eigenvalues --   -0.40849  -0.40584  -0.40075  -0.39920  -0.39656
 Alpha  occ. eigenvalues --   -0.39348  -0.39239  -0.39225  -0.38935  -0.38786
 Alpha  occ. eigenvalues --   -0.38331  -0.38241  -0.36904  -0.36671  -0.36399
 Alpha  occ. eigenvalues --   -0.36130  -0.35751  -0.35383  -0.33711  -0.33554
 Alpha  occ. eigenvalues --   -0.33223  -0.32976  -0.32924  -0.32812  -0.32605
 Alpha  occ. eigenvalues --   -0.31908  -0.31855  -0.31327  -0.26425  -0.25953
 Alpha  occ. eigenvalues --   -0.23364  -0.23210
 Alpha virt. eigenvalues --   -0.07753  -0.06983  -0.00339  -0.00173   0.02187
 Alpha virt. eigenvalues --    0.02334   0.03931   0.04149   0.04415   0.04551
 Alpha virt. eigenvalues --    0.06663   0.07280   0.07904   0.08007   0.08213

 Mulliken charges:
               1
     1  Mg   0.954673
     2  C    0.126566
     3  C   -0.086864
     4  C   -0.102777
     5  C   -0.086829
     6  N   -0.280286
     7  C   -0.106070
     8  C    0.024770
     9  C   -0.115370
    10  C    0.019756
    11  C    0.018060
    12  C    0.021100
    13  C   -0.133122
    14  H    0.032712
    15  N   -0.458921
    16  C    0.175438
    17  C   -0.148369
    18  C   -0.099865
    19  C    0.211671
    20  C    0.047806
    21  C    0.038224
    22  O   -0.200605
    23  C   -0.012982
    24  N   -0.368033
    25  C    0.007542
    26  C   -0.062958
    27  C   -0.084194
    28  C    0.069931
    29  C    0.005018
    30  C   -0.009900
    31  C   -0.094015
    32  N   -0.439652
    33  C    0.138822
    34  C   -0.213500
    35  C   -0.016321
    36  C    0.078998
    37  C    0.071679
    38  C    0.139970
    39  O   -0.173437
    40  C   -0.211047
    41  C    0.295883
    42  O   -0.266929
    43  O   -0.352058
    44  C    0.141319
    45  H    0.007252
    46  H   -0.025093
    47  H   -0.020906
    48  H    0.029489
    49  H    0.028329
    50  H    0.024559
    51  H    0.050178
    52  H    0.027396
    53  H    0.036960
    54  H    0.046199
    55  H    0.070679
    56  H    0.060468
    57  H    0.063292
    58  H    0.025830
    59  H    0.056080
    60  H    0.047004
    61  H    0.080178
    62  H    0.053767
    63  H    0.053703
    64  H    0.040265
    65  H    0.049440
    66  H    0.047508
    67  H    0.050476
    68  H    0.049740
    69  H    0.043974
    70  H    0.038420
    71  H    0.044432
    72  H    0.040030
    73  H    0.037450
    74  H    0.051957
    75  H    0.058888
    76  H    0.085144
    77  H    0.049502
    78  H    0.054976
    79  H    0.046601
    80  Mg   0.930666
    81  C   -0.012403
    82  C   -0.078701
    83  C   -0.029822
    84  C   -0.055237
    85  N   -0.359298
    86  C   -0.011513
    87  C   -0.090339
    88  C   -0.100426
    89  C    0.079549
    90  C    0.033007
    91  C    0.011791
    92  C   -0.107017
    93  H    0.041719
    94  N   -0.446483
    95  C    0.131620
    96  C   -0.166231
    97  C   -0.071372
    98  C    0.121599
    99  C    0.092308
   100  C   -0.000437
   101  O   -0.245902
   102  C    0.011428
   103  N   -0.354274
   104  C    0.049268
   105  C   -0.068719
   106  C   -0.054134
   107  C    0.053258
   108  C    0.028803
   109  C   -0.008410
   110  C   -0.059098
   111  N   -0.368094
   112  C    0.038683
   113  C   -0.158680
   114  C   -0.038442
   115  C    0.117568
   116  C    0.062071
   117  C    0.094542
   118  O   -0.225727
   119  C   -0.017652
   120  C    0.221597
   121  O   -0.212619
   122  O   -0.366516
   123  C    0.140008
   124  H    0.006056
   125  H   -0.031091
   126  H   -0.001360
   127  H    0.038014
   128  H    0.035490
   129  H    0.032290
   130  H    0.046123
   131  H    0.040176
   132  H    0.042475
   133  H    0.036071
   134  H    0.065987
   135  H    0.053280
   136  H    0.070784
   137  H    0.039813
   138  H    0.017367
   139  H    0.051094
   140  H    0.064292
   141  H    0.052274
   142  H    0.047990
   143  H    0.037675
   144  H    0.035142
   145  H    0.041426
   146  H    0.037067
   147  H    0.041961
   148  H    0.039574
   149  H    0.042336
   150  H    0.030762
   151  H    0.032992
   152  H    0.064834
   153  H    0.051565
   154  H    0.065774
   155  H    0.062059
   156  H    0.046747
   157  H    0.053351
   158  H    0.057672
 Sum of Mulliken charges =  -0.00000

 Dipole moment (field-independent basis, Debye):
    X=             -1.9056    Y=              0.4833    Z=             -5.3031  Tot=              5.6558
 Quadrupole moment (field-independent basis, Debye-Ang):
   XX=            -10.8948   YY=           -568.9070   ZZ=           -503.1969
   XY=              4.2796   XZ=            -50.0546   YZ=             -5.4957

 Normal termination of Gaussian 16 at Sun Sep 19 18:15:10 2021.
