 Gaussian 16, Revision A.03,
 Gaussian 16:  ES64L-G16RevA.03 25-Dec-2016

 --------------------------------
 #p wB97XD/Def2SVP td=(nstates=5)
 --------------------------------

 --------------------------------
 TDDFT excited states in gaussian
 --------------------------------
 Symbolic Z-matrix:
 Charge =  0 Multiplicity = 1

                         Standard orientation:
 ---------------------------------------------------------------------
 Center     Atomic      Atomic             Coordinates (Angstroms)
 Number     Number       Type             X           Y           Z
 ---------------------------------------------------------------------
      1         12           0       24.054425   -0.776074    0.341307
      2          6           0       24.146736    2.302119   -1.389614
      3          6           0       24.159996    0.814180    3.228241
      4          6           0       24.864912   -3.756434    1.801921
      5          6           0       24.994555   -2.334397   -2.877851
      6          7           0       24.200920    1.344151    0.814139
      7          6           0       23.981902    2.392137   -0.006252
      8          6           0       23.715105    3.650689    0.842535
      9          6           0       23.694474    3.184045    2.262802
     10          6           0       24.081268    1.679356    2.136474
     11          6           0       24.544541    4.107203    3.228435
     12          6           0       22.498175    4.560669    0.466533
     13          6           0       21.629306    5.317364    1.560374
     14          1           0       21.255226    6.785751    1.310729
     15          7           0       24.208655   -1.401480    2.287106
     16          6           0       24.219121   -0.554008    3.371884
     17          6           0       24.296105   -1.362586    4.555257
     18          6           0       24.548292   -2.744204    4.197465
     19          6           0       24.601979   -2.670550    2.720708
     20          6           0       24.276895   -0.681408    5.863452
     21          6           0       24.662557   -4.013211    5.077806
     22          8           0       24.918950   -5.061564    4.584127
     23          6           0       24.210638   -3.988031    6.501636
     24          7           0       24.880221   -2.747403   -0.464066
     25          6           0       24.966926   -3.785093    0.398195
     26          6           0       25.370584   -5.112584   -0.319655
     27          6           0       25.378899   -4.691209   -1.820948
     28          6           0       25.087235   -3.171298   -1.760867
     29          6           0       26.682151   -5.713579    0.110961
     30          6           0       24.385800   -5.412824   -2.797687
     31          6           0       22.947173   -5.019854   -2.795008
     32          7           0       24.487248   -0.263053   -1.741125
     33          6           0       24.778818   -0.988700   -2.860458
     34          6           0       24.773829   -0.116436   -4.009454
     35          6           0       24.536650    1.195470   -3.521247
     36          6           0       24.415630    1.052298   -2.124080
     37          6           0       25.140968   -0.453355   -5.411548
     38          6           0       24.418902    2.584545   -3.861847
     39          8           0       24.440891    3.195834   -4.923973
     40          6           0       24.111381    3.362699   -2.504545
     41          6           0       25.007264    4.572295   -2.297688
     42          8           0       26.198244    4.505566   -2.134424
     43          8           0       24.229037    5.718879   -2.284525
     44          6           0       25.010541    6.945798   -2.125536
     45          1           0       23.991331    1.243477    4.218436
     46          1           0       25.062404   -4.684052    2.342698
     47          1           0       25.167228   -2.806760   -3.847038
     48          1           0       24.606679    4.213978    0.566991
     49          1           0       22.675171    3.304485    2.630733
     50          1           0       24.871951    4.993622    2.685390
     51          1           0       25.315124    3.485086    3.683623
     52          1           0       23.920016    4.546188    4.006705
     53          1           0       21.799053    3.930151   -0.083357
     54          1           0       22.775572    5.333492   -0.250812
     55          1           0       22.217878    5.234161    2.474245
     56          1           0       20.706409    4.761235    1.725379
     57          1           0       24.957738   -1.249184    6.497231
     58          1           0       23.272316   -0.798511    6.268185
     59          1           0       24.526775    0.374442    5.968897
     60          1           0       25.129273   -3.735484    7.029578
     61          1           0       23.728600   -4.937028    6.738445
     62          1           0       23.527227   -3.177554    6.755925
     63          1           0       24.580602   -5.861658   -0.262032
     64          1           0       26.318028   -4.683928   -2.373307
     65          1           0       27.066438   -5.230164    1.010085
     66          1           0       27.461102   -5.586308   -0.641262
     67          1           0       26.471042   -6.765199    0.303350
     68          1           0       24.412663   -6.487670   -2.618239
     69          1           0       24.820109   -5.371710   -3.796836
     70          1           0       22.692667   -4.562389   -1.838752
     71          1           0       22.158629   -5.766620   -2.890586
     72          1           0       22.833593   -4.371304   -3.664257
     73          1           0       26.153654   -0.834078   -5.541120
     74          1           0       25.273130    0.506741   -5.911021
     75          1           0       24.398440   -1.099040   -5.881239
     76          1           0       23.068193    3.671706   -2.573675
     77          1           0       24.581615    7.094478   -1.135052
     78          1           0       24.597450    7.604622   -2.888982
     79          1           0       26.086945    6.779308   -2.172439
     80         12           0      -24.842308   -0.635692   -0.172810
     81          6           0      -22.896324    2.397001   -0.333234
     82          6           0      -26.654337    0.879697    2.418999
     83          6           0      -26.702714   -3.339754   -0.090183
     84          6           0      -22.717855   -2.070738   -2.549461
     85          7           0      -24.716526    1.454007    0.920003
     86          6           0      -24.016671    2.557357    0.545742
     87          6           0      -24.520968    3.813288    1.237674
     88          6           0      -25.514648    3.249297    2.399415
     89          6           0      -25.625178    1.774719    1.914914
     90          6           0      -25.016028    3.467560    3.849909
     91          6           0      -25.217791    4.809435    0.250401
     92          6           0      -24.593207    6.228764    0.241880
     93          1           0      -25.609589    7.398481    0.766502
     94          7           0      -26.410058   -1.137779    0.962669
     95          6           0      -27.052183   -0.428186    2.033326
     96          6           0      -28.196760   -1.162132    2.623061
     97          6           0      -28.212501   -2.355132    1.828693
     98          6           0      -27.098588   -2.307774    0.866747
     99          6           0      -29.048134   -0.667250    3.794056
    100          6           0      -29.095868   -3.536939    1.959928
    101          8           0      -29.230420   -4.424498    1.124528
    102          6           0      -30.034026   -3.603119    3.181071
    103          7           0      -24.813846   -2.336664   -1.289019
    104          6           0      -25.679943   -3.347936   -1.050825
    105          6           0      -25.305835   -4.620454   -1.758686
    106          6           0      -24.059434   -4.241756   -2.595993
    107          6           0      -23.852629   -2.766933   -2.183430
    108          6           0      -25.148592   -5.825783   -0.855586
    109          6           0      -24.380841   -4.365338   -4.199891
    110          6           0      -23.356534   -5.292453   -5.054013
    111          7           0      -22.983200   -0.097247   -1.053135
    112          6           0      -22.295182   -0.789961   -2.078331
    113          6           0      -21.190041    0.063904   -2.528576
    114          6           0      -21.503123    1.328703   -1.964709
    115          6           0      -22.500837    1.147145   -1.005763
    116          6           0      -20.012736   -0.258955   -3.443754
    117          6           0      -20.929522    2.695437   -1.810467
    118          8           0      -19.911246    3.298310   -2.249903
    119          6           0      -21.917546    3.442084   -0.833117
    120          6           0      -21.115270    4.052339    0.278091
    121          8           0      -20.231485    3.490432    0.860822
    122          8           0      -21.468863    5.364358    0.429818
    123          6           0      -20.499521    6.121743    1.261261
    124          1           0      -27.095208    1.340528    3.305177
    125          1           0      -27.280765   -4.266314   -0.109901
    126          1           0      -22.063941   -2.484178   -3.319812
    127          1           0      -23.652529    4.254853    1.726549
    128          1           0      -26.522437    3.658093    2.321507
    129          1           0      -24.800595    2.514611    4.334096
    130          1           0      -25.758207    4.018474    4.429096
    131          1           0      -24.144803    4.113055    3.961546
    132          1           0      -26.273025    4.943132    0.489945
    133          1           0      -25.162445    4.458336   -0.780365
    134          1           0      -24.405819    6.607891   -0.763072
    135          1           0      -23.625043    6.313318    0.734448
    136          1           0      -29.001702    0.397185    4.026265
    137          1           0      -28.913744   -1.205310    4.732370
    138          1           0      -30.076928   -0.866694    3.492523
    139          1           0      -29.454573   -3.624890    4.103993
    140          1           0      -30.724293   -4.445758    3.128783
    141          1           0      -30.647039   -2.701853    3.178108
    142          1           0      -26.148003   -4.913624   -2.386965
    143          1           0      -23.190281   -4.828011   -2.299155
    144          1           0      -25.958795   -6.549209   -0.950878
    145          1           0      -25.167367   -5.609104    0.212434
    146          1           0      -24.185891   -6.286409   -1.078206
    147          1           0      -24.407179   -3.408998   -4.721195
    148          1           0      -25.362709   -4.795173   -4.396315
    149          1           0      -22.882052   -5.948060   -4.323578
    150          1           0      -22.617270   -4.694712   -5.588794
    151          1           0      -23.893595   -5.983925   -5.702745
    152          1           0      -19.692993    0.606367   -4.024016
    153          1           0      -20.376552   -0.946690   -4.208029
    154          1           0      -19.309404   -0.762950   -2.780715
    155          1           0      -22.313690    4.281493   -1.404012
    156          1           0      -20.390883    5.583869    2.202867
    157          1           0      -21.031393    7.045399    1.488932
    158          1           0      -19.487313    6.279502    0.889007
 ---------------------------------------------------------------------

 SCF Done:  E(RwB97XD) =  -4070.58588865     A.U. after   20 cycles

 Excitation energies and oscillator strengths:

 Excited State   1:      Singlet-A      1.6156 eV  767.43 nm  f=0.3670  <S**2>=0.000
     309 -> 315        0.19317
     311 -> 313        0.68203
     309 <- 315        0.12122
 This state for optimization and/or second-order correction.
 Total Energy, E(TD-HF/TD-DFT) =  -4070.52651726
 Copying the excited state density for this state as the 1-particle RhoCI density.

 Excited State   2:      Singlet-A      1.6417 eV  755.21 nm  f=0.3869  <S**2>=0.000
     310 -> 316        0.19302
     312 -> 314        0.68165
     310 <- 316        0.12002

 Excited State   3:      Singlet-A      2.1192 eV  585.06 nm  f=0.1287  <S**2>=0.000
     309 -> 313        0.64519
     311 -> 315       -0.27991

 Excited State   4:      Singlet-A      2.1319 eV  581.55 nm  f=0.1072  <S**2>=0.000
     310 -> 314        0.64020
     312 -> 316       -0.28534

 Excited State   5:      Singlet-A      3.3483 eV  370.29 nm  f=0.0010  <S**2>=0.000
     306 -> 314       -0.21656
     308 -> 314        0.65067

 The electronic state is 1-A.
 Alpha  occ. eigenvalues --  -46.96310 -46.94880 -19.30884 -19.29959 -19.24932
 Alpha  occ. eigenvalues --  -19.24681 -19.24580 -19.24030 -19.23761 -19.23657
 Alpha  occ. eigenvalues --  -14.47265 -14.46774 -14.46515 -14.46355 -14.45384
 Alpha  occ. eigenvalues --  -14.44086 -14.43847 -14.43369 -10.42942 -10.42671
 Alpha  occ. eigenvalues --  -10.39668 -10.39198 -10.39137 -10.38791 -10.35929
 Alpha  occ. eigenvalues --  -10.35703 -10.35692 -10.35656 -10.35642 -10.35314
 Alpha  occ. eigenvalues --  -10.35121 -10.34970 -10.34946 -10.34931 -10.34920
 Alpha  occ. eigenvalues --  -10.34790 -10.34722 -10.34329 -10.33992 -10.33584
 Alpha  occ. eigenvalues --  -10.33461 -10.33308 -10.33139 -10.33008 -10.32973
 Alpha  occ. eigenvalues --  -10.32932 -10.32809 -10.32728 -10.32546 -10.32535
 Alpha  occ. eigenvalues --  -10.32522 -10.32388 -10.32297 -10.32246 -10.32060
 Alpha  occ. eigenvalues --  -10.32047 -10.32045 -10.31883 -10.31855 -10.31674
 Alpha  occ. eigenvalues --  -10.31649 -10.31380 -10.31297 -10.31295 -10.31205
 Alpha  occ. eigenvalues --  -10.31176 -10.30947 -10.30736 -10.30734 -10.30732
 Alpha  occ. eigenvalues --  -10.30478 -10.30425 -10.30413 -10.30397 -10.30236
 Alpha  occ. eigenvalues --  -10.30205 -10.30028 -10.29966 -10.29953 -10.29742
 Alpha  occ. eigenvalues --  -10.29364 -10.29243 -10.29224 -10.28926 -10.28891
 Alpha  occ. eigenvalues --  -10.28751  -3.22104  -3.20956  -1.95656  -1.95227
 Alpha  occ. eigenvalues --   -1.95053  -1.94545  -1.94082  -1.93946  -1.19137
 Alpha  occ. eigenvalues --   -1.18433  -1.15106  -1.12228  -1.11419  -1.10890
 Alpha  occ. eigenvalues --   -1.10719  -1.09305  -1.06194  -1.05997  -1.05289
 Alpha  occ. eigenvalues --   -1.05113  -1.04646  -1.04493  -1.04082  -1.03851
 Alpha  occ. eigenvalues --   -0.93556  -0.93551  -0.91137  -0.90716  -0.90626
 Alpha  occ. eigenvalues --   -0.90377  -0.90167  -0.90018  -0.89373  -0.89283
 Alpha  occ. eigenvalues --   -0.89093  -0.88961  -0.88011  -0.87564  -0.85959
 Alpha  occ. eigenvalues --   -0.85857  -0.85572  -0.85074  -0.84430  -0.83880
 Alpha  occ. eigenvalues --   -0.83714  -0.83352  -0.82758  -0.82633  -0.82342
 Alpha  occ. eigenvalues --   -0.81727  -0.81101  -0.80242  -0.79037  -0.79030
 Alpha  occ. eigenvalues --   -0.78989  -0.78720  -0.77979  -0.77782  -0.77184
 Alpha  occ. eigenvalues --   -0.76576  -0.74565  -0.74296  -0.73417  -0.73408
 Alpha  occ. eigenvalues --   -0.71704  -0.71174  -0.71167  -0.70673  -0.70186
 Alpha  occ. eigenvalues --   -0.69547  -0.69119  -0.68911  -0.67843  -0.67619
 Alpha  occ. eigenvalues --   -0.66906  -0.66425  -0.66207  -0.66065  -0.66032
 Alpha  occ. eigenvalues --   -0.65981  -0.64358  -0.63663  -0.62855  -0.62022
 Alpha  occ. eigenvalues --   -0.61485  -0.61235  -0.60780  -0.60751  -0.60344
 Alpha  occ. eigenvalues --   -0.60294  -0.59954  -0.59939  -0.59365  -0.59146
 Alpha  occ. eigenvalues --   -0.58165  -0.58024  -0.57824  -0.57309  -0.57272
 Alpha  occ. eigenvalues --   -0.56968  -0.56962  -0.56505  -0.56477  -0.55974
 Alpha  occ. eigenvalues --   -0.55735  -0.55651  -0.55362  -0.55274  -0.54687
 Alpha  occ. eigenvalues --   -0.54642  -0.54535  -0.54270  -0.54154  -0.53652
 Alpha  occ. eigenvalues --   -0.53628  -0.53350  -0.53300  -0.53118  -0.52854
 Alpha  occ. eigenvalues --   -0.52788  -0.52737  -0.52495  -0.52425  -0.52211
 Alpha  occ. eigenvalues --   -0.51991  -0.51930  -0.51906  -0.51723  -0.51421
 Alpha  occ. eigenvalues --   -0.51407  -0.51175  -0.51084  -0.50912  -0.50743
 Alpha  occ. eigenvalues --   -0.50644  -0.50498  -0.50271  -0.50225  -0.50063
 Alpha  occ. eigenvalues --   -0.49957  -0.49624  -0.49552  -0.49431  -0.49153
 Alpha  occ. eigenvalues --   -0.49049  -0.48991  -0.48787  -0.48703  -0.48499
 Alpha  occ. eigenvalues --   -0.48144  -0.47944  -0.47887  -0.47730  -0.47502
 Alpha  occ. eigenvalues --   -0.47439  -0.47348  -0.46919  -0.46756  -0.46692
 Alpha  occ. eigenvalues --   -0.46533  -0.46488  -0.46352  -0.46225  -0.46044
 Alpha  occ. eigenvalues --   -0.45982  -0.45800  -0.45735  -0.45622  -0.45548
 Alpha  occ. eigenvalues --   -0.45287  -0.45198  -0.44957  -0.44884  -0.44782
 Alpha  occ. eigenvalues --   -0.44556  -0.44496  -0.44308  -0.44201  -0.44025
 Alpha  occ. eigenvalues --   -0.43942  -0.43746  -0.43521  -0.43394  -0.43273
 Alpha  occ. eigenvalues --   -0.42784  -0.42721  -0.42617  -0.42459  -0.42395
 Alpha  occ. eigenvalues --   -0.42081  -0.41999  -0.41318  -0.41078  -0.40821
 Alpha  occ. eigenvalues --   -0.40529  -0.40184  -0.40017  -0.39822  -0.39459
 Alpha  occ. eigenvalues --   -0.39348  -0.39313  -0.38976  -0.38536  -0.37895
 Alpha  occ. eigenvalues --   -0.37644  -0.37522  -0.36654  -0.36575  -0.36407
 Alpha  occ. eigenvalues --   -0.35539  -0.35350  -0.35266  -0.33873  -0.33733
 Alpha  occ. eigenvalues --   -0.33010  -0.32979  -0.32611  -0.32607  -0.32493
 Alpha  occ. eigenvalues --   -0.31993  -0.31516  -0.31485  -0.25832  -0.25716
 Alpha  occ. eigenvalues --   -0.23126  -0.22829
 Alpha virt. eigenvalues --   -0.07360  -0.06978   0.00057   0.00315   0.02159
 Alpha virt. eigenvalues --    0.02491   0.04136   0.04272   0.04659   0.06552
 Alpha virt. eigenvalues --    0.06778   0.07033   0.07707   0.07819   0.07888

 Mulliken charges:
               1
     1  Mg   0.948222
     2  C   -0.025472
     3  C   -0.065385
     4  C   -0.063887
     5  C   -0.102249
     6  N   -0.370964
     7  C   -0.015995
     8  C   -0.028101
     9  C   -0.134594
    10  C    0.098552
    11  C    0.020636
    12  C   -0.030310
    13  C   -0.123552
    14  H    0.053536
    15  N   -0.508374
    16  C    0.144543
    17  C   -0.142140
    18  C   -0.082399
    19  C    0.113000
    20  C    0.033012
    21  C    0.056404
    22  O   -0.199145
    23  C   -0.017803
    24  N   -0.306549
    25  C    0.065605
    26  C   -0.068752
    27  C   -0.048023
    28  C    0.007250
    29  C    0.036420
    30  C   -0.047568
    31  C   -0.031080
    32  N   -0.393417
    33  C    0.166239
    34  C   -0.184927
    35  C   -0.031370
    36  C    0.105861
    37  C    0.061920
    38  C    0.130855
    39  O   -0.210204
    40  C   -0.060391
    41  C    0.252582
    42  O   -0.228687
    43  O   -0.379375
    44  C    0.117922
    45  H   -0.017313
    46  H    0.026200
    47  H   -0.005177
    48  H    0.048778
    49  H    0.042233
    50  H    0.042689
    51  H    0.050098
    52  H    0.032131
    53  H    0.030258
    54  H    0.046405
    55  H    0.034826
    56  H    0.055862
    57  H    0.037150
    58  H    0.055389
    59  H    0.058293
    60  H    0.064511
    61  H    0.073653
    62  H    0.037355
    63  H    0.039939
    64  H    0.035207
    65  H    0.044161
    66  H    0.034836
    67  H    0.041312
    68  H    0.023710
    69  H    0.022412
    70  H    0.035766
    71  H    0.033359
    72  H    0.037206
    73  H    0.045442
    74  H    0.051374
    75  H    0.052655
    76  H    0.070894
    77  H    0.051490
    78  H    0.068792
    79  H    0.086260
    80  Mg   0.990543
    81  C   -0.017412
    82  C   -0.078416
    83  C   -0.086393
    84  C   -0.079749
    85  N   -0.298140
    86  C   -0.019976
    87  C   -0.053049
    88  C   -0.107211
    89  C    0.010996
    90  C    0.015723
    91  C    0.043019
    92  C   -0.139063
    93  H   -0.009626
    94  N   -0.512220
    95  C    0.177180
    96  C   -0.130249
    97  C   -0.070929
    98  C    0.182107
    99  C    0.070232
   100  C    0.029566
   101  O   -0.236649
   102  C   -0.016377
   103  N   -0.420594
   104  C    0.093850
   105  C   -0.078889
   106  C   -0.074219
   107  C    0.101860
   108  C    0.012653
   109  C   -0.031816
   110  C   -0.079639
   111  N   -0.424532
   112  C    0.112422
   113  C   -0.186401
   114  C   -0.110823
   115  C    0.145520
   116  C    0.092637
   117  C    0.193579
   118  O   -0.247712
   119  C   -0.086811
   120  C    0.237303
   121  O   -0.215013
   122  O   -0.372190
   123  C    0.133806
   124  H   -0.004515
   125  H    0.020959
   126  H   -0.003317
   127  H    0.041542
   128  H    0.042939
   129  H    0.048250
   130  H    0.034635
   131  H    0.041306
   132  H    0.049089
   133  H    0.046165
   134  H    0.054726
   135  H    0.060331
   136  H    0.047075
   137  H    0.062948
   138  H    0.044854
   139  H    0.052769
   140  H    0.053687
   141  H    0.038455
   142  H    0.046265
   143  H    0.048419
   144  H    0.040269
   145  H    0.042077
   146  H    0.029142
   147  H    0.043064
   148  H    0.034676
   149  H    0.027509
   150  H    0.051968
   151  H    0.040946
   152  H    0.063934
   153  H    0.026459
   154  H    0.068675
   155  H    0.067119
   156  H    0.050114
   157  H    0.052105
   158  H    0.076462
 Sum of Mulliken charges =  -0.00000

 Dipole moment (field-independent basis, Debye):
    X=             -6.8779    Y=             -0.8571    Z=              7.2711  Tot=             10.0453
 Quadrupole moment (field-independent basis, Debye-Ang):
   XX=           -479.4756   YY=           -488.8866   ZZ=           -484.0713
   XY=            -35.0803   XZ=             32.7405   YZ=             50.7781

 Normal termination of Gaussian 16 at Sun Sep 19 02:47:13 2021.
