 Gaussian 16, Revision A.03,
 Gaussian 16:  ES64L-G16RevA.03 25-Dec-2016

 --------------------------------
 #p wB97XD/Def2SVP td=(nstates=5)
 --------------------------------

 --------------------------------
 TDDFT excited states in gaussian
 --------------------------------
 Symbolic Z-matrix:
 Charge =  0 Multiplicity = 1

                         Standard orientation:
 ---------------------------------------------------------------------
 Center     Atomic      Atomic             Coordinates (Angstroms)
 Number     Number       Type             X           Y           Z
 ---------------------------------------------------------------------
      1         12           0       13.526471   -0.755944   -0.125059
      2          6           0       11.920562    2.141787   -1.332695
      3          6           0       15.659951    1.266586    1.655124
      4          6           0       15.159679   -3.463055    1.008386
      5          6           0       11.721858   -2.726683   -2.383984
      6          7           0       13.601445    1.408942    0.173156
      7          6           0       12.922646    2.429400   -0.343261
      8          6           0       13.322872    3.838962    0.139981
      9          6           0       14.700413    3.416146    0.846960
     10          6           0       14.678035    1.907141    0.854514
     11          6           0       15.928693    3.956229    0.155604
     12          6           0       12.265707    4.518384    1.174560
     13          6           0       12.299788    6.049280    1.149181
     14          1           0       10.960384    6.706548    0.727441
     15          7           0       15.105276   -1.099145    1.304458
     16          6           0       15.890627   -0.075326    1.889785
     17          6           0       16.683892   -0.700528    2.923991
     18          6           0       16.544082   -2.077888    2.779330
     19          6           0       15.556349   -2.293595    1.675859
     20          6           0       17.662051    0.048959    3.808815
     21          6           0       17.137817   -3.233261    3.552216
     22          8           0       16.805690   -4.353347    3.294484
     23          6           0       18.082430   -3.024467    4.693553
     24          7           0       13.610361   -2.766940   -0.736563
     25          6           0       14.312682   -3.721793   -0.060750
     26          6           0       13.926733   -5.083523   -0.702227
     27          6           0       12.539378   -4.895138   -1.289325
     28          6           0       12.584832   -3.368076   -1.531787
     29          6           0       14.910406   -5.410361   -1.824905
     30          6           0       11.428352   -5.347238   -0.415692
     31          6           0       11.430053   -4.948158    1.039237
     32          7           0       12.081794   -0.431660   -1.557009
     33          6           0       11.434142   -1.301549   -2.413934
     34          6           0       10.475216   -0.538578   -3.227843
     35          6           0       10.628352    0.794211   -2.807962
     36          6           0       11.581415    0.803828   -1.826353
     37          6           0        9.604237   -1.074949   -4.280291
     38          6           0       10.090223    2.125492   -2.891670
     39          8           0        9.129439    2.589335   -3.573367
     40          6           0       10.928223    3.040644   -1.879098
     41          6           0       11.586527    4.106772   -2.715956
     42          8           0       12.180187    3.865886   -3.725037
     43          8           0       11.510753    5.427554   -2.196612
     44          6           0       12.426021    6.417079   -2.842326
     45          1           0       16.379549    1.891998    2.186471
     46          1           0       15.732526   -4.354266    1.274413
     47          1           0       11.006506   -3.294762   -2.982769
     48          1           0       13.387915    4.520195   -0.709342
     49          1           0       14.617757    3.838746    1.849060
     50          1           0       16.214707    4.852800    0.705329
     51          1           0       15.783618    4.099896   -0.915313
     52          1           0       16.706308    3.235437    0.408126
     53          1           0       12.492041    4.204017    2.193878
     54          1           0       11.255206    4.156874    0.982968
     55          1           0       13.126917    6.234594    0.463584
     56          1           0       12.640050    6.468316    2.095947
     57          1           0       17.337938    1.086977    3.744503
     58          1           0       18.599098   -0.041885    3.260198
     59          1           0       17.632965   -0.291457    4.844086
     60          1           0       17.383433   -2.629878    5.431183
     61          1           0       18.858881   -2.282060    4.510998
     62          1           0       18.523725   -3.973767    4.999112
     63          1           0       13.970199   -5.941909   -0.032761
     64          1           0       12.346860   -5.437339   -2.214503
     65          1           0       14.618144   -5.253852   -2.863314
     66          1           0       15.191642   -6.457501   -1.713558
     67          1           0       15.820197   -4.834751   -1.650685
     68          1           0       11.287162   -6.427265   -0.463312
     69          1           0       10.543014   -4.905605   -0.872738
     70          1           0       10.596358   -4.254820    1.153955
     71          1           0       12.275139   -4.468702    1.534145
     72          1           0       11.173858   -5.827585    1.629848
     73          1           0       10.230584   -1.356840   -5.126586
     74          1           0        8.906840   -0.260798   -4.477187
     75          1           0        9.106620   -1.990919   -3.958911
     76          1           0       10.192420    3.385035   -1.152165
     77          1           0       12.020856    6.736109   -3.802568
     78          1           0       13.435101    6.032192   -2.996588
     79          1           0       12.538881    7.370123   -2.326329
     80         12           0      -13.817069   -0.491582   -0.109248
     81          6           0      -11.623244    1.992930    1.109177
     82          6           0      -16.359760    1.791027   -0.160052
     83          6           0      -15.906134   -2.997792   -0.583387
     84          6           0      -11.237655   -2.861899    0.451173
     85          7           0      -13.910811    1.687043    0.317047
     86          6           0      -12.923216    2.435470    0.767250
     87          6           0      -13.313974    3.892263    0.595607
     88          6           0      -14.890257    3.848361    0.629927
     89          6           0      -15.104563    2.337340    0.243834
     90          6           0      -15.448800    4.330727    2.022444
     91          6           0      -12.850283    4.475685   -0.763832
     92          6           0      -12.749634    6.062699   -0.835683
     93          1           0      -13.123353    6.952761    0.352711
     94          7           0      -15.777866   -0.566538   -0.536261
     95          6           0      -16.710767    0.500394   -0.595300
     96          6           0      -18.015258   -0.049010   -1.032987
     97          6           0      -17.892634   -1.484283   -1.075183
     98          6           0      -16.487306   -1.790392   -0.730299
     99          6           0      -19.202094    0.789523   -1.352982
    100          6           0      -18.908793   -2.637944   -1.432127
    101          8           0      -18.601451   -3.835409   -1.507261
    102          6           0      -20.364079   -2.290353   -1.554849
    103          7           0      -13.629683   -2.666744    0.039822
    104          6           0      -14.617783   -3.469585   -0.253879
    105          6           0      -14.283332   -4.934727   -0.229140
    106          6           0      -12.753125   -4.915022    0.117826
    107          6           0      -12.472563   -3.378653    0.120524
    108          6           0      -15.235424   -5.720977    0.676861
    109          6           0      -11.862314   -5.635776   -0.886222
    110          6           0      -10.675803   -6.480086   -0.297545
    111          7           0      -11.755457   -0.513590    0.567460
    112          6           0      -10.828740   -1.566722    0.695762
    113          6           0       -9.551409   -1.016105    0.993753
    114          6           0       -9.813329    0.346606    1.344772
    115          6           0      -11.122311    0.606803    1.027065
    116          6           0       -8.240175   -1.742074    0.898474
    117          6           0       -9.287938    1.676482    1.736994
    118          8           0       -8.166907    2.007155    2.063191
    119          6           0      -10.529917    2.684777    1.829809
    120          6           0      -10.104242    4.078642    1.502645
    121          8           0       -9.644302    4.461008    0.467309
    122          8           0      -10.214102    4.923416    2.622974
    123          6           0       -9.246731    6.038047    2.708054
    124          1           0      -17.252545    2.404302   -0.018141
    125          1           0      -16.476582   -3.884502   -0.865479
    126          1           0      -10.445932   -3.608822    0.539953
    127          1           0      -12.740620    4.389601    1.377853
    128          1           0      -15.326105    4.483087   -0.142337
    129          1           0      -14.626949    4.583185    2.691627
    130          1           0      -15.874746    3.423292    2.450555
    131          1           0      -16.094979    5.207431    1.976603
    132          1           0      -13.612445    4.143276   -1.469797
    133          1           0      -11.897133    4.005036   -1.004596
    134          1           0      -13.364164    6.333790   -1.695498
    135          1           0      -11.718029    6.259503   -1.128516
    136          1           0      -19.083407    1.869338   -1.434945
    137          1           0      -19.985063    0.702922   -0.600136
    138          1           0      -19.514673    0.428045   -2.332957
    139          1           0      -20.660508   -1.963354   -2.551381
    140          1           0      -20.421192   -1.512288   -0.792637
    141          1           0      -20.910468   -3.174262   -1.226958
    142          1           0      -14.437304   -5.213796   -1.271419
    143          1           0      -12.515741   -5.332112    1.095720
    144          1           0      -15.688124   -5.122209    1.467803
    145          1           0      -14.609817   -6.466168    1.166605
    146          1           0      -16.043028   -6.200839    0.123601
    147          1           0      -11.410888   -4.932865   -1.586183
    148          1           0      -12.567424   -6.165364   -1.526715
    149          1           0      -10.566133   -6.320852    0.775035
    150          1           0       -9.791716   -6.087993   -0.799857
    151          1           0      -10.669522   -7.559312   -0.453795
    152          1           0       -8.401646   -2.678554    1.432577
    153          1           0       -7.399311   -1.223656    1.359587
    154          1           0       -8.032568   -1.998208   -0.140954
    155          1           0      -10.802672    2.799431    2.878397
    156          1           0       -9.807399    6.970488    2.640782
    157          1           0       -8.481187    5.982718    1.933332
    158          1           0       -8.786632    5.940355    3.691314
 ---------------------------------------------------------------------

 SCF Done:  E(RwB97XD) =  -4070.59386572     A.U. after   19 cycles

 Excitation energies and oscillator strengths:

 Excited State   1:      Singlet-A      1.6520 eV  750.50 nm  f=0.3843  <S**2>=0.000
     309 -> 316        0.17785
     311 -> 313        0.68532
     309 <- 316        0.11383
 This state for optimization and/or second-order correction.
 Total Energy, E(TD-HF/TD-DFT) =  -4070.53315515
 Copying the excited state density for this state as the 1-particle RhoCI density.

 Excited State   2:      Singlet-A      1.7657 eV  702.19 nm  f=0.3650  <S**2>=0.000
     310 -> 315       -0.19128
     312 -> 314        0.67821
     310 <- 315       -0.11019

 Excited State   3:      Singlet-A      2.1193 eV  585.03 nm  f=0.0894  <S**2>=0.000
     310 -> 314        0.63960
     312 -> 315        0.27475

 Excited State   4:      Singlet-A      2.1347 eV  580.81 nm  f=0.1202  <S**2>=0.000
     309 -> 313        0.64446
     311 -> 316       -0.27141

 Excited State   5:      Singlet-A      3.2667 eV  379.54 nm  f=0.0030  <S**2>=0.000
     303 -> 314        0.16861
     306 -> 314       -0.15257
     308 -> 314        0.64175
     308 -> 317        0.10662

 The electronic state is 1-A.
 Alpha  occ. eigenvalues --  -46.94860 -46.94796 -19.29609 -19.28382 -19.25356
 Alpha  occ. eigenvalues --  -19.24833 -19.24358 -19.24062 -19.23239 -19.23167
 Alpha  occ. eigenvalues --  -14.47935 -14.46449 -14.46242 -14.45837 -14.44365
 Alpha  occ. eigenvalues --  -14.44246 -14.43526 -14.42485 -10.43133 -10.42274
 Alpha  occ. eigenvalues --  -10.40793 -10.39097 -10.38676 -10.38646 -10.36263
 Alpha  occ. eigenvalues --  -10.35845 -10.35651 -10.35348 -10.35270 -10.35003
 Alpha  occ. eigenvalues --  -10.34967 -10.34881 -10.34827 -10.34654 -10.34574
 Alpha  occ. eigenvalues --  -10.34494 -10.34425 -10.33985 -10.33590 -10.33568
 Alpha  occ. eigenvalues --  -10.33361 -10.33249 -10.32855 -10.32671 -10.32422
 Alpha  occ. eigenvalues --  -10.32225 -10.32214 -10.32213 -10.32183 -10.32162
 Alpha  occ. eigenvalues --  -10.32092 -10.32090 -10.31914 -10.31910 -10.31875
 Alpha  occ. eigenvalues --  -10.31733 -10.31667 -10.31609 -10.31584 -10.31582
 Alpha  occ. eigenvalues --  -10.31533 -10.31314 -10.31069 -10.31061 -10.31044
 Alpha  occ. eigenvalues --  -10.30759 -10.30669 -10.30614 -10.30522 -10.30419
 Alpha  occ. eigenvalues --  -10.30210 -10.30066 -10.30051 -10.29891 -10.29836
 Alpha  occ. eigenvalues --  -10.29649 -10.29622 -10.29570 -10.29465 -10.29319
 Alpha  occ. eigenvalues --  -10.29200 -10.28878 -10.28814 -10.28292 -10.28290
 Alpha  occ. eigenvalues --  -10.28176  -3.20793  -3.20707  -1.94406  -1.94309
 Alpha  occ. eigenvalues --   -1.93893  -1.93828  -1.93782  -1.93668  -1.17628
 Alpha  occ. eigenvalues --   -1.17219  -1.14295  -1.12713  -1.11615  -1.09464
 Alpha  occ. eigenvalues --   -1.09080  -1.08738  -1.07222  -1.07030  -1.06436
 Alpha  occ. eigenvalues --   -1.05537  -1.04823  -1.03667  -1.03579  -1.03003
 Alpha  occ. eigenvalues --   -0.94816  -0.93652  -0.91900  -0.91226  -0.91084
 Alpha  occ. eigenvalues --   -0.90778  -0.90678  -0.89714  -0.89597  -0.89464
 Alpha  occ. eigenvalues --   -0.89106  -0.88757  -0.88009  -0.87235  -0.86515
 Alpha  occ. eigenvalues --   -0.85835  -0.85503  -0.85330  -0.84777  -0.84501
 Alpha  occ. eigenvalues --   -0.84330  -0.83524  -0.82947  -0.82494  -0.81770
 Alpha  occ. eigenvalues --   -0.81721  -0.80838  -0.80547  -0.79158  -0.79009
 Alpha  occ. eigenvalues --   -0.78907  -0.78201  -0.78115  -0.77213  -0.77014
 Alpha  occ. eigenvalues --   -0.76846  -0.74378  -0.74333  -0.73609  -0.73215
 Alpha  occ. eigenvalues --   -0.71674  -0.71516  -0.70751  -0.70529  -0.69721
 Alpha  occ. eigenvalues --   -0.69154  -0.68998  -0.68562  -0.67875  -0.67684
 Alpha  occ. eigenvalues --   -0.67029  -0.66866  -0.66472  -0.66108  -0.65362
 Alpha  occ. eigenvalues --   -0.65244  -0.63656  -0.62933  -0.62328  -0.62195
 Alpha  occ. eigenvalues --   -0.61812  -0.61056  -0.61009  -0.60863  -0.60497
 Alpha  occ. eigenvalues --   -0.60436  -0.59939  -0.59500  -0.59456  -0.58691
 Alpha  occ. eigenvalues --   -0.58389  -0.58330  -0.57663  -0.57321  -0.56936
 Alpha  occ. eigenvalues --   -0.56607  -0.56354  -0.56072  -0.55912  -0.55848
 Alpha  occ. eigenvalues --   -0.55609  -0.55584  -0.55509  -0.55060  -0.54977
 Alpha  occ. eigenvalues --   -0.54888  -0.54677  -0.54263  -0.54060  -0.53842
 Alpha  occ. eigenvalues --   -0.53719  -0.53596  -0.53539  -0.53353  -0.53198
 Alpha  occ. eigenvalues --   -0.53087  -0.52787  -0.52649  -0.52527  -0.52373
 Alpha  occ. eigenvalues --   -0.52111  -0.51986  -0.51862  -0.51824  -0.51534
 Alpha  occ. eigenvalues --   -0.51451  -0.51096  -0.50982  -0.50931  -0.50750
 Alpha  occ. eigenvalues --   -0.50568  -0.50176  -0.50168  -0.50062  -0.49865
 Alpha  occ. eigenvalues --   -0.49677  -0.49587  -0.49491  -0.49398  -0.49149
 Alpha  occ. eigenvalues --   -0.48995  -0.48853  -0.48573  -0.48479  -0.48365
 Alpha  occ. eigenvalues --   -0.48183  -0.48004  -0.47701  -0.47418  -0.47363
 Alpha  occ. eigenvalues --   -0.47263  -0.47236  -0.47013  -0.46873  -0.46826
 Alpha  occ. eigenvalues --   -0.46675  -0.46144  -0.46083  -0.45990  -0.45811
 Alpha  occ. eigenvalues --   -0.45565  -0.45555  -0.45348  -0.45247  -0.45047
 Alpha  occ. eigenvalues --   -0.44944  -0.44937  -0.44678  -0.44635  -0.44454
 Alpha  occ. eigenvalues --   -0.44370  -0.44300  -0.44132  -0.43859  -0.43648
 Alpha  occ. eigenvalues --   -0.43529  -0.43397  -0.43382  -0.43184  -0.42980
 Alpha  occ. eigenvalues --   -0.42857  -0.42824  -0.42800  -0.42187  -0.42068
 Alpha  occ. eigenvalues --   -0.41946  -0.41815  -0.41560  -0.41328  -0.40893
 Alpha  occ. eigenvalues --   -0.40608  -0.40215  -0.39634  -0.39589  -0.39520
 Alpha  occ. eigenvalues --   -0.39191  -0.38989  -0.38297  -0.38280  -0.38129
 Alpha  occ. eigenvalues --   -0.37595  -0.37260  -0.36527  -0.36411  -0.36131
 Alpha  occ. eigenvalues --   -0.35704  -0.35313  -0.35127  -0.33852  -0.33819
 Alpha  occ. eigenvalues --   -0.33334  -0.33291  -0.32429  -0.32239  -0.32046
 Alpha  occ. eigenvalues --   -0.31946  -0.31353  -0.30308  -0.25985  -0.25587
 Alpha  occ. eigenvalues --   -0.23113  -0.23075
 Alpha virt. eigenvalues --   -0.07206  -0.06740  -0.00018   0.00276   0.01961
 Alpha virt. eigenvalues --    0.02572   0.04390   0.04965   0.06119   0.06360
 Alpha virt. eigenvalues --    0.07076   0.07241   0.07816   0.08189   0.08197

 Mulliken charges:
               1
     1  Mg   0.953891
     2  C   -0.042972
     3  C   -0.110190
     4  C   -0.074524
     5  C   -0.071366
     6  N   -0.321022
     7  C   -0.004031
     8  C   -0.076518
     9  C   -0.141271
    10  C    0.116535
    11  C    0.056704
    12  C    0.009079
    13  C   -0.101875
    14  H    0.061069
    15  N   -0.444460
    16  C    0.147027
    17  C   -0.177109
    18  C   -0.058309
    19  C    0.148083
    20  C    0.068183
    21  C    0.023050
    22  O   -0.210029
    23  C   -0.009696
    24  N   -0.406433
    25  C    0.080532
    26  C   -0.094229
    27  C   -0.043978
    28  C    0.108020
    29  C    0.034312
    30  C    0.007502
    31  C   -0.069549
    32  N   -0.442709
    33  C    0.083890
    34  C   -0.208929
    35  C    0.007101
    36  C    0.127408
    37  C    0.079109
    38  C    0.099261
    39  O   -0.251106
    40  C   -0.045745
    41  C    0.263429
    42  O   -0.210507
    43  O   -0.401434
    44  C    0.135786
    45  H    0.006364
    46  H    0.021106
    47  H   -0.000361
    48  H    0.038135
    49  H    0.035938
    50  H    0.032028
    51  H    0.057699
    52  H    0.022748
    53  H    0.027442
    54  H    0.043078
    55  H    0.027320
    56  H    0.044548
    57  H    0.032578
    58  H    0.075952
    59  H    0.059559
    60  H    0.059861
    61  H    0.052570
    62  H    0.061807
    63  H    0.024930
    64  H    0.018158
    65  H    0.044928
    66  H    0.032799
    67  H    0.031216
    68  H    0.032012
    69  H    0.016318
    70  H    0.030899
    71  H    0.056695
    72  H    0.029869
    73  H    0.053797
    74  H    0.066436
    75  H    0.035186
    76  H    0.077988
    77  H    0.056933
    78  H    0.049716
    79  H    0.051768
    80  Mg   0.949659
    81  C    0.045830
    82  C   -0.095171
    83  C   -0.065684
    84  C   -0.085969
    85  N   -0.314115
    86  C    0.001169
    87  C   -0.120623
    88  C   -0.103194
    89  C    0.089348
    90  C    0.035025
    91  C   -0.006401
    92  C   -0.094841
    93  H    0.041271
    94  N   -0.554415
    95  C    0.175979
    96  C   -0.150919
    97  C   -0.082860
    98  C    0.208148
    99  C    0.034825
   100  C    0.081954
   101  O   -0.237378
   102  C   -0.013144
   103  N   -0.304564
   104  C   -0.029746
   105  C   -0.047650
   106  C   -0.103763
   107  C    0.058261
   108  C    0.030179
   109  C   -0.003903
   110  C   -0.057139
   111  N   -0.438258
   112  C    0.134169
   113  C   -0.193218
   114  C   -0.035235
   115  C    0.077281
   116  C    0.080601
   117  C    0.135474
   118  O   -0.202377
   119  C   -0.093418
   120  C    0.221150
   121  O   -0.208041
   122  O   -0.410446
   123  C    0.136732
   124  H    0.001377
   125  H    0.012862
   126  H   -0.021991
   127  H    0.032007
   128  H    0.036180
   129  H    0.038387
   130  H    0.032867
   131  H    0.048286
   132  H    0.023415
   133  H    0.054678
   134  H    0.041790
   135  H    0.065600
   136  H    0.042993
   137  H    0.065199
   138  H    0.060797
   139  H    0.079961
   140  H    0.041606
   141  H    0.065056
   142  H    0.042240
   143  H    0.040094
   144  H    0.046602
   145  H    0.033030
   146  H    0.056226
   147  H    0.030953
   148  H    0.022333
   149  H    0.035892
   150  H    0.038677
   151  H    0.045589
   152  H    0.035791
   153  H    0.058587
   154  H    0.051189
   155  H    0.080149
   156  H    0.051874
   157  H    0.069510
   158  H    0.055611
 Sum of Mulliken charges =  -0.00000

 Dipole moment (field-independent basis, Debye):
    X=             -1.0524    Y=             -0.6102    Z=              4.4080  Tot=              4.5728
 Quadrupole moment (field-independent basis, Debye-Ang):
   XX=           -229.9250   YY=           -474.5365   ZZ=           -518.1596
   XY=             19.9037   XZ=             80.8705   YZ=             25.3995

 Normal termination of Gaussian 16 at Sat Sep 18 04:23:54 2021.
