 Gaussian 16, Revision A.03,
 Gaussian 16:  ES64L-G16RevA.03 25-Dec-2016

 --------------------------------
 #p wB97XD/Def2SVP td=(nstates=5)
 --------------------------------

 --------------------------------
 TDDFT excited states in gaussian
 --------------------------------
 Symbolic Z-matrix:
 Charge =  0 Multiplicity = 1

                         Standard orientation:
 ---------------------------------------------------------------------
 Center     Atomic      Atomic             Coordinates (Angstroms)
 Number     Number       Type             X           Y           Z
 ---------------------------------------------------------------------
      1         12           0      -17.454793   -0.632712    0.211605
      2          6           0      -17.271037    2.364172   -1.350968
      3          6           0      -16.277492    0.820978    3.138291
      4          6           0      -17.632816   -3.631633    1.772454
      5          6           0      -18.152220   -2.167943   -2.811589
      6          7           0      -16.980628    1.341372    0.769920
      7          6           0      -16.930115    2.446929   -0.015306
      8          6           0      -16.703623    3.706926    0.778740
      9          6           0      -16.119835    3.172155    2.141356
     10          6           0      -16.515244    1.663915    2.020443
     11          6           0      -14.605133    3.442203    2.525428
     12          6           0      -18.065608    4.494788    1.039556
     13          6           0      -17.836095    6.013009    1.298718
     14          1           0      -16.522431    6.545757    1.895050
     15          7           0      -16.945581   -1.377750    2.179853
     16          6           0      -16.478427   -0.559685    3.241800
     17          6           0      -16.297988   -1.359856    4.415454
     18          6           0      -16.676804   -2.697853    4.039668
     19          6           0      -17.122189   -2.578718    2.605324
     20          6           0      -15.894691   -0.832694    5.747814
     21          6           0      -16.681500   -3.971897    4.877027
     22          8           0      -16.919081   -5.138160    4.445555
     23          6           0      -16.359110   -3.889828    6.359435
     24          7           0      -17.766141   -2.617204   -0.423965
     25          6           0      -17.986343   -3.689004    0.442597
     26          6           0      -18.640294   -4.935450   -0.220721
     27          6           0      -18.824957   -4.347084   -1.729861
     28          6           0      -18.257867   -2.975722   -1.680137
     29          6           0      -17.675044   -6.123145   -0.115290
     30          6           0      -20.228350   -4.420835   -2.255194
     31          6           0      -20.343029   -5.162703   -3.556132
     32          7           0      -17.573630   -0.163455   -1.684723
     33          6           0      -17.892631   -0.848777   -2.850416
     34          6           0      -17.887107    0.037250   -3.954895
     35          6           0      -17.603146    1.337778   -3.458263
     36          6           0      -17.522767    1.198774   -2.056566
     37          6           0      -18.164575   -0.246688   -5.381186
     38          6           0      -17.305905    2.704329   -3.827886
     39          8           0      -17.194118    3.306973   -4.877545
     40          6           0      -17.152619    3.420491   -2.403055
     41          6           0      -16.050923    4.418083   -2.386584
     42          8           0      -14.950357    4.282312   -2.856834
     43          8           0      -16.393370    5.578072   -1.804894
     44          6           0      -15.301270    6.591706   -1.761579
     45          1           0      -15.744001    1.334399    3.941095
     46          1           0      -17.557474   -4.609853    2.251720
     47          1           0      -18.475791   -2.552161   -3.781117
     48          1           0      -15.901497    4.319646    0.367659
     49          1           0      -16.740322    3.554834    2.951061
     50          1           0      -14.190477    4.098089    1.759849
     51          1           0      -13.951956    2.579181    2.644358
     52          1           0      -14.615469    3.909323    3.510392
     53          1           0      -18.516668    3.974434    1.884650
     54          1           0      -18.685784    4.366529    0.152322
     55          1           0      -18.667917    6.260778    1.958353
     56          1           0      -18.077586    6.518484    0.364064
     57          1           0      -16.693873   -0.397443    6.347867
     58          1           0      -15.105140   -0.110811    5.542818
     59          1           0      -15.318017   -1.546723    6.335037
     60          1           0      -15.271366   -3.895225    6.427649
     61          1           0      -16.752234   -4.814497    6.781263
     62          1           0      -16.740738   -2.993442    6.848581
     63          1           0      -19.525243   -5.161438    0.374291
     64          1           0      -18.216224   -4.945416   -2.408598
     65          1           0      -16.674619   -5.892984    0.251740
     66          1           0      -17.686312   -6.670615   -1.057462
     67          1           0      -18.086291   -6.768837    0.661173
     68          1           0      -20.654944   -3.443596   -2.481682
     69          1           0      -20.948501   -4.866848   -1.569108
     70          1           0      -21.136120   -5.909889   -3.554462
     71          1           0      -19.418581   -5.686765   -3.797275
     72          1           0      -20.436100   -4.373853   -4.303139
     73          1           0      -17.893121   -1.242382   -5.733169
     74          1           0      -17.401191    0.333157   -5.900758
     75          1           0      -19.203895   -0.013101   -5.612416
     76          1           0      -18.091489    3.973741   -2.440247
     77          1           0      -15.159164    7.083084   -2.725154
     78          1           0      -14.391247    6.191881   -1.313942
     79          1           0      -15.601288    7.382494   -1.073579
     80         12           0       17.570737   -0.749512   -0.020250
     81          6           0       15.514128    2.015957    0.575975
     82          6           0       20.252970    1.354791    0.624370
     83          6           0       19.501055   -3.181557   -0.984769
     84          6           0       14.670922   -2.606385   -0.848967
     85          7           0       17.873094    1.584833    0.153743
     86          6           0       16.892488    2.413508    0.526744
     87          6           0       17.512863    3.726930    0.868367
     88          6           0       18.995988    3.594540    0.443650
     89          6           0       19.090390    2.081737    0.425733
     90          6           0       19.478406    4.246241   -0.853471
     91          6           0       17.371260    4.061751    2.387151
     92          6           0       16.836988    5.469378    2.806343
     93          1           0       17.110245    6.694166    1.878644
     94          7           0       19.645796   -0.944157   -0.020211
     95          6           0       20.535332    0.003006    0.469452
     96          6           0       21.831282   -0.591177    0.414322
     97          6           0       21.672201   -1.904250   -0.185743
     98          6           0       20.248088   -2.088928   -0.421712
     99          6           0       23.143150    0.126742    0.799927
    100          6           0       22.749471   -2.947756   -0.599396
    101          8           0       22.511162   -3.997360   -1.107288
    102          6           0       24.183066   -2.592880   -0.256972
    103          7           0       17.110666   -2.607744   -0.784468
    104          6           0       18.113368   -3.425687   -1.175543
    105          6           0       17.629830   -4.785374   -1.750883
    106          6           0       16.075346   -4.674301   -1.440781
    107          6           0       15.906963   -3.234388   -0.970528
    108          6           0       18.040030   -4.922946   -3.328680
    109          6           0       15.541797   -5.794795   -0.493878
    110          6           0       15.388044   -5.465055    0.980089
    111          7           0       15.466053   -0.447886   -0.102483
    112          6           0       14.433133   -1.306859   -0.364776
    113          6           0       13.141967   -0.554673   -0.184693
    114          6           0       13.543515    0.748657    0.185849
    115          6           0       14.976684    0.803590    0.190080
    116          6           0       11.750132   -1.020100   -0.516309
    117          6           0       13.067750    2.082877    0.543014
    118          8           0       11.900845    2.478654    0.615577
    119          6           0       14.310610    2.866583    0.954306
    120          6           0       14.247797    4.158262    0.190572
    121          8           0       14.538336    4.293645   -0.983851
    122          8           0       13.645542    5.021459    0.991951
    123          6           0       13.074518    6.223111    0.404161
    124          1           0       21.099987    2.040727    0.684128
    125          1           0       20.120229   -4.067205   -1.139952
    126          1           0       13.776400   -3.184887   -1.090302
    127          1           0       17.001066    4.508614    0.307896
    128          1           0       19.575582    4.087843    1.224031
    129          1           0       18.740292    4.825861   -1.408128
    130          1           0       19.879637    3.489837   -1.528562
    131          1           0       20.292532    4.912551   -0.569146
    132          1           0       18.269432    3.846634    2.965663
    133          1           0       16.644969    3.297213    2.662636
    134          1           0       17.325610    5.647944    3.765018
    135          1           0       15.759802    5.400544    2.955947
    136          1           0       23.899165    0.093412    0.015372
    137          1           0       23.659282   -0.368136    1.622754
    138          1           0       23.016390    1.166014    1.106024
    139          1           0       24.309392   -2.303038    0.786370
    140          1           0       24.512248   -1.820188   -0.951841
    141          1           0       24.850640   -3.410564   -0.528638
    142          1           0       18.065751   -5.638282   -1.230960
    143          1           0       15.452693   -4.820386   -2.323314
    144          1           0       17.094659   -4.820353   -3.861624
    145          1           0       18.374499   -5.923113   -3.605065
    146          1           0       18.673273   -4.114642   -3.696136
    147          1           0       16.333607   -6.543864   -0.509015
    148          1           0       14.627445   -6.256318   -0.866223
    149          1           0       16.299538   -4.917413    1.222687
    150          1           0       15.342948   -6.463131    1.415247
    151          1           0       14.596320   -4.800288    1.324617
    152          1           0       11.624097   -1.985281   -1.006957
    153          1           0       11.278984   -0.293857   -1.178799
    154          1           0       11.201150   -0.957027    0.422705
    155          1           0       14.308356    3.218645    1.986070
    156          1           0       13.062048    6.349385   -0.677956
    157          1           0       13.744414    7.003445    0.766604
    158          1           0       12.231339    6.533921    1.021171
 ---------------------------------------------------------------------

 SCF Done:  E(RwB97XD) =  -4070.60933919     A.U. after   19 cycles

 Excitation energies and oscillator strengths:

 Excited State   1:      Singlet-A      1.5874 eV  781.06 nm  f=0.3899  <S**2>=0.000
     309 -> 315       -0.17576
     312 -> 313        0.68654
     309 <- 315       -0.11663
 This state for optimization and/or second-order correction.
 Total Energy, E(TD-HF/TD-DFT) =  -4070.55100417
 Copying the excited state density for this state as the 1-particle RhoCI density.

 Excited State   2:      Singlet-A      1.6772 eV  739.24 nm  f=0.3963  <S**2>=0.000
     310 -> 316       -0.19185
     311 -> 314        0.68165
     310 <- 316       -0.11863

 Excited State   3:      Singlet-A      2.1599 eV  574.03 nm  f=0.0936  <S**2>=0.000
     310 -> 314        0.64009
     311 -> 316        0.28496

 Excited State   4:      Singlet-A      2.1692 eV  571.57 nm  f=0.1128  <S**2>=0.000
     309 -> 313        0.63593
     312 -> 315        0.29403

 Excited State   5:      Singlet-A      3.3096 eV  374.62 nm  f=0.0146  <S**2>=0.000
     306 -> 313        0.10100
     307 -> 313        0.67094
     312 -> 315       -0.11074

 The electronic state is 1-A.
 Alpha  occ. eigenvalues --  -46.95110 -46.93500 -19.31492 -19.30358 -19.24620
 Alpha  occ. eigenvalues --  -19.24533 -19.24273 -19.23683 -19.23545 -19.23545
 Alpha  occ. eigenvalues --  -14.47455 -14.46340 -14.46289 -14.46166 -14.44103
 Alpha  occ. eigenvalues --  -14.43934 -14.43394 -14.43278 -10.43022 -10.42406
 Alpha  occ. eigenvalues --  -10.39542 -10.39213 -10.39165 -10.38372 -10.35806
 Alpha  occ. eigenvalues --  -10.35802 -10.35373 -10.35304 -10.35118 -10.34943
 Alpha  occ. eigenvalues --  -10.34765 -10.34734 -10.34709 -10.34509 -10.34113
 Alpha  occ. eigenvalues --  -10.33889 -10.33681 -10.33609 -10.33514 -10.33470
 Alpha  occ. eigenvalues --  -10.33331 -10.33324 -10.32954 -10.32896 -10.32884
 Alpha  occ. eigenvalues --  -10.32828 -10.32416 -10.32385 -10.32367 -10.32297
 Alpha  occ. eigenvalues --  -10.32181 -10.32114 -10.32091 -10.31905 -10.31900
 Alpha  occ. eigenvalues --  -10.31802 -10.31751 -10.31600 -10.31591 -10.31582
 Alpha  occ. eigenvalues --  -10.31535 -10.31173 -10.31135 -10.31105 -10.31025
 Alpha  occ. eigenvalues --  -10.30697 -10.30669 -10.30609 -10.30581 -10.30401
 Alpha  occ. eigenvalues --  -10.30318 -10.30248 -10.29963 -10.29929 -10.29920
 Alpha  occ. eigenvalues --  -10.29781 -10.29702 -10.29624 -10.29492 -10.29434
 Alpha  occ. eigenvalues --  -10.29320 -10.29273 -10.29195 -10.29021 -10.28910
 Alpha  occ. eigenvalues --  -10.28873  -3.21016  -3.19750  -1.94612  -1.94174
 Alpha  occ. eigenvalues --   -1.93945  -1.93340  -1.92864  -1.92772  -1.20549
 Alpha  occ. eigenvalues --   -1.19466  -1.13500  -1.12377  -1.11903  -1.10879
 Alpha  occ. eigenvalues --   -1.09617  -1.09440  -1.07006  -1.06512  -1.05760
 Alpha  occ. eigenvalues --   -1.05595  -1.04719  -1.04657  -1.03838  -1.03415
 Alpha  occ. eigenvalues --   -0.95388  -0.95350  -0.91575  -0.90720  -0.90572
 Alpha  occ. eigenvalues --   -0.90471  -0.90437  -0.89916  -0.89587  -0.89162
 Alpha  occ. eigenvalues --   -0.89010  -0.88352  -0.88213  -0.87414  -0.86364
 Alpha  occ. eigenvalues --   -0.86228  -0.85714  -0.85600  -0.84487  -0.84371
 Alpha  occ. eigenvalues --   -0.83582  -0.83332  -0.82994  -0.82685  -0.82457
 Alpha  occ. eigenvalues --   -0.81943  -0.80301  -0.79858  -0.79700  -0.79292
 Alpha  occ. eigenvalues --   -0.79263  -0.78892  -0.78453  -0.78210  -0.77148
 Alpha  occ. eigenvalues --   -0.77016  -0.74870  -0.74674  -0.73807  -0.73675
 Alpha  occ. eigenvalues --   -0.71442  -0.71067  -0.70870  -0.70584  -0.70136
 Alpha  occ. eigenvalues --   -0.69985  -0.68673  -0.68047  -0.67779  -0.67296
 Alpha  occ. eigenvalues --   -0.67230  -0.66886  -0.66767  -0.66610  -0.66319
 Alpha  occ. eigenvalues --   -0.66074  -0.64796  -0.64318  -0.62325  -0.61879
 Alpha  occ. eigenvalues --   -0.61817  -0.61635  -0.61161  -0.60929  -0.60463
 Alpha  occ. eigenvalues --   -0.60357  -0.60088  -0.59956  -0.59712  -0.59285
 Alpha  occ. eigenvalues --   -0.58819  -0.58070  -0.57984  -0.57346  -0.57148
 Alpha  occ. eigenvalues --   -0.56979  -0.56899  -0.56725  -0.56628  -0.55850
 Alpha  occ. eigenvalues --   -0.55573  -0.55274  -0.55193  -0.54949  -0.54816
 Alpha  occ. eigenvalues --   -0.54801  -0.54448  -0.54431  -0.54357  -0.54098
 Alpha  occ. eigenvalues --   -0.53897  -0.53879  -0.53588  -0.53323  -0.53238
 Alpha  occ. eigenvalues --   -0.53127  -0.53077  -0.52977  -0.52230  -0.52113
 Alpha  occ. eigenvalues --   -0.52006  -0.51920  -0.51606  -0.51590  -0.51304
 Alpha  occ. eigenvalues --   -0.51086  -0.50938  -0.50787  -0.50741  -0.50611
 Alpha  occ. eigenvalues --   -0.50301  -0.50294  -0.50126  -0.49998  -0.49895
 Alpha  occ. eigenvalues --   -0.49871  -0.49745  -0.49246  -0.49237  -0.49120
 Alpha  occ. eigenvalues --   -0.48797  -0.48624  -0.48534  -0.48303  -0.48290
 Alpha  occ. eigenvalues --   -0.47910  -0.47832  -0.47814  -0.47773  -0.47579
 Alpha  occ. eigenvalues --   -0.47518  -0.47305  -0.47137  -0.46937  -0.46842
 Alpha  occ. eigenvalues --   -0.46727  -0.46703  -0.46468  -0.46410  -0.45988
 Alpha  occ. eigenvalues --   -0.45819  -0.45688  -0.45456  -0.45309  -0.45200
 Alpha  occ. eigenvalues --   -0.45150  -0.45113  -0.45012  -0.44884  -0.44619
 Alpha  occ. eigenvalues --   -0.44357  -0.44245  -0.44088  -0.43970  -0.43832
 Alpha  occ. eigenvalues --   -0.43693  -0.43530  -0.43323  -0.43089  -0.42946
 Alpha  occ. eigenvalues --   -0.42932  -0.42827  -0.42579  -0.42494  -0.42317
 Alpha  occ. eigenvalues --   -0.42269  -0.42148  -0.41917  -0.41522  -0.41176
 Alpha  occ. eigenvalues --   -0.40267  -0.40198  -0.39876  -0.39626  -0.39173
 Alpha  occ. eigenvalues --   -0.39162  -0.39005  -0.38977  -0.38770  -0.38633
 Alpha  occ. eigenvalues --   -0.38409  -0.38128  -0.36613  -0.36397  -0.36198
 Alpha  occ. eigenvalues --   -0.36070  -0.35421  -0.35323  -0.33675  -0.33430
 Alpha  occ. eigenvalues --   -0.32984  -0.32808  -0.32636  -0.32260  -0.32133
 Alpha  occ. eigenvalues --   -0.32127  -0.31747  -0.31056  -0.26224  -0.25701
 Alpha  occ. eigenvalues --   -0.22862  -0.22828
 Alpha virt. eigenvalues --   -0.07316  -0.06813   0.00304   0.00414   0.02176
 Alpha virt. eigenvalues --    0.02234   0.04345   0.05005   0.05906   0.06131
 Alpha virt. eigenvalues --    0.07445   0.07707   0.07857   0.07884   0.08040

 Mulliken charges:
               1
     1  Mg   0.985763
     2  C    0.012890
     3  C   -0.095343
     4  C   -0.062335
     5  C   -0.128188
     6  N   -0.378479
     7  C   -0.008510
     8  C   -0.043360
     9  C   -0.122029
    10  C    0.057978
    11  C    0.021192
    12  C    0.005440
    13  C   -0.092529
    14  H    0.043492
    15  N   -0.389547
    16  C    0.163957
    17  C   -0.155422
    18  C   -0.073762
    19  C    0.099943
    20  C    0.064802
    21  C    0.052950
    22  O   -0.274741
    23  C   -0.022282
    24  N   -0.392063
    25  C    0.057911
    26  C   -0.092156
    27  C   -0.027221
    28  C    0.109083
    29  C    0.008979
    30  C   -0.008497
    31  C   -0.062955
    32  N   -0.527674
    33  C    0.189845
    34  C   -0.191402
    35  C   -0.054967
    36  C    0.141543
    37  C    0.072751
    38  C    0.153159
    39  O   -0.183099
    40  C   -0.107327
    41  C    0.224592
    42  O   -0.229878
    43  O   -0.358858
    44  C    0.140904
    45  H   -0.003554
    46  H    0.017237
    47  H   -0.016908
    48  H    0.024533
    49  H    0.035428
    50  H    0.042361
    51  H    0.048458
    52  H    0.037239
    53  H    0.035699
    54  H    0.041455
    55  H    0.044231
    56  H    0.060629
    57  H    0.073818
    58  H    0.034881
    59  H    0.031921
    60  H    0.066682
    61  H    0.059184
    62  H    0.050488
    63  H    0.056023
    64  H    0.035268
    65  H    0.060735
    66  H    0.037230
    67  H    0.041364
    68  H    0.033219
    69  H    0.028277
    70  H    0.043801
    71  H    0.022322
    72  H    0.037624
    73  H    0.026955
    74  H    0.061504
    75  H    0.068375
    76  H    0.069219
    77  H    0.070807
    78  H    0.058559
    79  H    0.040383
    80  Mg   0.943681
    81  C   -0.010001
    82  C   -0.053707
    83  C   -0.049894
    84  C   -0.089541
    85  N   -0.281433
    86  C    0.032726
    87  C   -0.102559
    88  C   -0.078992
    89  C   -0.023291
    90  C    0.044048
    91  C   -0.008078
    92  C   -0.108814
    93  H    0.034711
    94  N   -0.486520
    95  C    0.194439
    96  C   -0.162164
    97  C   -0.110928
    98  C    0.127609
    99  C    0.066995
   100  C    0.057779
   101  O   -0.197960
   102  C   -0.025440
   103  N   -0.388281
   104  C    0.068178
   105  C   -0.106321
   106  C   -0.052064
   107  C    0.081460
   108  C    0.014963
   109  C   -0.034377
   110  C   -0.035120
   111  N   -0.430979
   112  C    0.126558
   113  C   -0.181508
   114  C   -0.031497
   115  C    0.144870
   116  C    0.071968
   117  C    0.142778
   118  O   -0.213853
   119  C   -0.092712
   120  C    0.223775
   121  O   -0.247801
   122  O   -0.327094
   123  C    0.146677
   124  H   -0.006230
   125  H    0.024704
   126  H   -0.006489
   127  H    0.040512
   128  H    0.020948
   129  H    0.046987
   130  H    0.041511
   131  H    0.029926
   132  H    0.038436
   133  H    0.025613
   134  H    0.052944
   135  H    0.060548
   136  H    0.037109
   137  H    0.040558
   138  H    0.034180
   139  H    0.057511
   140  H    0.052227
   141  H    0.039938
   142  H    0.050002
   143  H    0.031494
   144  H    0.019167
   145  H    0.045898
   146  H    0.058989
   147  H    0.022763
   148  H    0.029684
   149  H    0.030029
   150  H    0.044292
   151  H    0.041676
   152  H    0.038469
   153  H    0.061968
   154  H    0.059404
   155  H    0.073355
   156  H    0.085532
   157  H    0.026898
   158  H    0.057161
 Sum of Mulliken charges =  -0.00000

 Dipole moment (field-independent basis, Debye):
    X=             -1.2117    Y=              2.5115    Z=              6.5685  Tot=              7.1359
 Quadrupole moment (field-independent basis, Debye-Ang):
   XX=           -409.8171   YY=           -480.1266   ZZ=           -513.4790
   XY=             26.3020   XZ=            -11.1396   YZ=             47.8768

 Normal termination of Gaussian 16 at Mon Sep 20 01:18:08 2021.
