 Gaussian 16, Revision A.03,
 Gaussian 16:  ES64L-G16RevA.03 25-Dec-2016

 --------------------------------
 #p wB97XD/Def2SVP td=(nstates=5)
 --------------------------------

 --------------------------------
 TDDFT excited states in gaussian
 --------------------------------
 Symbolic Z-matrix:
 Charge =  0 Multiplicity = 1

                         Standard orientation:
 ---------------------------------------------------------------------
 Center     Atomic      Atomic             Coordinates (Angstroms)
 Number     Number       Type             X           Y           Z
 ---------------------------------------------------------------------
      1         12           0      -13.862008   -0.586251    0.342694
      2          6           0      -13.753918    2.560094   -1.257011
      3          6           0      -13.036915    0.902021    3.306211
      4          6           0      -13.327666   -3.596822    1.575994
      5          6           0      -14.229203   -2.059915   -2.863445
      6          7           0      -13.559874    1.530541    0.946706
      7          6           0      -13.579991    2.578736    0.147298
      8          6           0      -13.667285    3.828794    1.004113
      9          6           0      -13.011203    3.378132    2.365815
     10          6           0      -13.193445    1.820821    2.225282
     11          6           0      -11.541663    3.929870    2.506481
     12          6           0      -15.130591    4.269337    1.265115
     13          6           0      -15.327825    5.789611    1.693801
     14          1           0      -14.141947    6.741619    1.871371
     15          7           0      -13.475437   -1.247434    2.199057
     16          6           0      -13.223008   -0.490614    3.371932
     17          6           0      -13.077842   -1.431171    4.507445
     18          6           0      -13.082066   -2.768391    3.970183
     19          6           0      -13.302736   -2.629303    2.514314
     20          6           0      -12.951313   -1.003121    5.926909
     21          6           0      -12.941761   -4.192570    4.635729
     22          8           0      -13.062817   -5.261164    4.021337
     23          6           0      -12.500042   -4.266996    6.068587
     24          7           0      -13.673679   -2.575545   -0.549442
     25          6           0      -13.506707   -3.648435    0.177319
     26          6           0      -13.531422   -4.946661   -0.579723
     27          6           0      -13.818277   -4.465115   -2.045374
     28          6           0      -14.015227   -2.932647   -1.817541
     29          6           0      -12.279470   -5.786732   -0.310642
     30          6           0      -15.048951   -5.088417   -2.691964
     31          6           0      -14.928631   -5.475544   -4.209484
     32          7           0      -14.053793    0.052650   -1.722175
     33          6           0      -14.241063   -0.680716   -2.910223
     34          6           0      -14.503684    0.229671   -3.971250
     35          6           0      -14.157102    1.514794   -3.444811
     36          6           0      -13.946882    1.362195   -2.097742
     37          6           0      -15.066618   -0.130659   -5.316133
     38          6           0      -14.081551    2.983132   -3.636432
     39          8           0      -14.243925    3.648509   -4.638113
     40          6           0      -13.564507    3.629217   -2.264198
     41          6           0      -14.112987    5.007556   -2.089705
     42          8           0      -15.265997    5.312373   -2.004133
     43          8           0      -13.091041    5.974260   -2.133979
     44          6           0      -13.459144    7.301510   -2.670967
     45          1           0      -12.589852    1.273614    4.231069
     46          1           0      -13.310030   -4.637362    1.904944
     47          1           0      -14.417118   -2.545037   -3.823626
     48          1           0      -13.204937    4.587098    0.372290
     49          1           0      -13.584022    3.732178    3.223581
     50          1           0      -11.266926    4.501609    1.620697
     51          1           0      -10.928590    3.030591    2.446589
     52          1           0      -11.379302    4.583907    3.363296
     53          1           0      -15.457998    3.631064    2.086812
     54          1           0      -15.700362    4.031892    0.366808
     55          1           0      -15.889420    5.736352    2.627715
     56          1           0      -16.014840    6.197280    0.951838
     57          1           0      -13.135656    0.038776    6.186279
     58          1           0      -11.946945   -1.161147    6.318813
     59          1           0      -13.705739   -1.598051    6.442295
     60          1           0      -13.315773   -4.207115    6.788914
     61          1           0      -11.823462   -3.411687    6.085912
     62          1           0      -11.932698   -5.192992    6.158023
     63          1           0      -14.410334   -5.432408   -0.156050
     64          1           0      -12.991135   -4.629267   -2.734924
     65          1           0      -11.410076   -5.200752   -0.010924
     66          1           0      -12.034238   -6.244554   -1.268140
     67          1           0      -12.440397   -6.550488    0.450519
     68          1           0      -15.909563   -4.423583   -2.620148
     69          1           0      -15.327450   -5.887483   -2.005081
     70          1           0      -13.997531   -5.109949   -4.642154
     71          1           0      -15.760799   -4.957609   -4.685829
     72          1           0      -15.012087   -6.525206   -4.493079
     73          1           0      -14.459046   -0.969543   -5.655931
     74          1           0      -15.005544    0.662501   -6.061521
     75          1           0      -16.086935   -0.498965   -5.204689
     76          1           0      -12.501911    3.847681   -2.365397
     77          1           0      -13.353400    8.027248   -1.864467
     78          1           0      -14.468503    7.316460   -3.083623
     79          1           0      -12.733414    7.500049   -3.459595
     80         12           0       13.208387   -0.581893   -0.503195
     81          6           0       15.260788    2.342526   -0.211597
     82          6           0       10.654712    1.157754    0.607638
     83          6           0       11.728987   -3.516706   -0.075781
     84          6           0       16.310958   -2.362750   -1.358381
     85          7           0       12.989682    1.527543    0.078813
     86          6           0       13.944742    2.560142    0.163341
     87          6           0       13.357143    3.929441    0.675088
     88          6           0       11.788556    3.452706    0.859173
     89          6           0       11.761722    1.972514    0.491322
     90          6           0       11.261587    3.672282    2.341922
     91          6           0       13.589232    5.165624   -0.261898
     92          6           0       12.697795    6.373336    0.001595
     93          1           0       13.439868    7.619505    0.518288
     94          7           0       11.390769   -1.092534    0.084123
     95          6           0       10.384556   -0.257317    0.509402
     96          6           0        9.163522   -0.973737    0.812160
     97          6           0        9.512350   -2.363948    0.585761
     98          6           0       10.938204   -2.348920    0.100254
     99          6           0        7.879560   -0.394634    1.181562
    100          6           0        8.665581   -3.617505    0.721609
    101          8           0        9.027644   -4.712171    0.392466
    102          6           0        7.335632   -3.408538    1.395787
    103          7           0       13.939195   -2.660355   -0.629875
    104          6           0       13.072433   -3.684748   -0.428771
    105          6           0       13.752448   -5.051365   -0.709928
    106          6           0       15.162978   -4.620430   -1.243065
    107          6           0       15.137699   -3.108791   -1.123491
    108          6           0       13.846536   -6.085976    0.462815
    109          6           0       15.507461   -5.049149   -2.713014
    110          6           0       15.905156   -6.536444   -2.839495
    111          7           0       15.328961   -0.190067   -0.727720
    112          6           0       16.399112   -0.952718   -1.135328
    113          6           0       17.527580   -0.120978   -1.275143
    114          6           0       17.192955    1.123592   -0.892241
    115          6           0       15.813593    1.073339   -0.526680
    116          6           0       18.833872   -0.653238   -1.849806
    117          6           0       17.606101    2.504896   -0.624683
    118          8           0       18.681813    3.035016   -0.731598
    119          6           0       16.325537    3.338417   -0.140629
    120          6           0       16.537271    3.678349    1.300197
    121          8           0       16.292328    3.069450    2.317194
    122          8           0       17.072431    4.951119    1.283280
    123          6           0       17.374147    5.572266    2.594916
    124          1           0        9.763938    1.637027    1.018779
    125          1           0       11.236891   -4.444312    0.226354
    126          1           0       17.108105   -3.014775   -1.722947
    127          1           0       13.741388    4.097748    1.681270
    128          1           0       11.172051    4.076456    0.211482
    129          1           0       10.262929    4.107549    2.308988
    130          1           0       11.869917    4.245465    3.041054
    131          1           0       11.076902    2.711784    2.822019
    132          1           0       13.451940    4.688504   -1.233137
    133          1           0       14.600312    5.562170   -0.357028
    134          1           0       11.943903    6.103638    0.740661
    135          1           0       12.297731    6.723702   -0.949471
    136          1           0        7.298395   -0.684675    0.306249
    137          1           0        7.964366    0.680140    1.342828
    138          1           0        7.370021   -0.795545    2.057536
    139          1           0        6.570615   -3.239806    0.638028
    140          1           0        7.397951   -2.826196    2.315535
    141          1           0        7.207136   -4.328816    1.964896
    142          1           0       13.280758   -5.416216   -1.622826
    143          1           0       15.920767   -4.917737   -0.517836
    144          1           0       14.849564   -6.408849    0.743222
    145          1           0       13.408024   -7.002293    0.068258
    146          1           0       13.366796   -5.782754    1.393403
    147          1           0       16.355036   -4.464364   -3.068668
    148          1           0       14.624967   -4.781264   -3.295663
    149          1           0       16.241627   -6.923548   -1.877510
    150          1           0       16.672073   -6.573197   -3.613089
    151          1           0       15.082336   -7.197195   -3.114033
    152          1           0       19.410460    0.142678   -2.321277
    153          1           0       18.606458   -1.457687   -2.549340
    154          1           0       19.410554   -1.159198   -1.075187
    155          1           0       16.164723    4.224379   -0.755346
    156          1           0       18.320007    6.096037    2.457227
    157          1           0       17.463497    4.863186    3.417778
    158          1           0       16.516314    6.241041    2.671904
 ---------------------------------------------------------------------

 SCF Done:  E(RwB97XD) =  -4070.60655949     A.U. after   19 cycles

 Excitation energies and oscillator strengths:

 Excited State   1:      Singlet-A      1.6367 eV  757.55 nm  f=0.3976  <S**2>=0.000
     310 -> 316        0.18390
     312 -> 313        0.68416
     310 <- 316        0.11740
 This state for optimization and/or second-order correction.
 Total Energy, E(TD-HF/TD-DFT) =  -4070.54641343
 Copying the excited state density for this state as the 1-particle RhoCI density.

 Excited State   2:      Singlet-A      1.7664 eV  701.89 nm  f=0.3717  <S**2>=0.000
     309 -> 315        0.19126
     311 -> 314        0.67831
     309 <- 315        0.11018

 Excited State   3:      Singlet-A      2.1198 eV  584.90 nm  f=0.0928  <S**2>=0.000
     309 -> 314        0.63979
     311 -> 315       -0.27490

 Excited State   4:      Singlet-A      2.1544 eV  575.48 nm  f=0.1367  <S**2>=0.000
     310 -> 313        0.64883
     312 -> 316       -0.26851

 Excited State   5:      Singlet-A      3.2682 eV  379.37 nm  f=0.0031  <S**2>=0.000
     304 -> 314       -0.16728
     306 -> 314        0.15675
     308 -> 314        0.64098
     308 -> 317        0.10646

 The electronic state is 1-A.
 Alpha  occ. eigenvalues --  -46.94921 -46.94918 -19.29100 -19.28522 -19.25471
 Alpha  occ. eigenvalues --  -19.24862 -19.24500 -19.24183 -19.23991 -19.23374
 Alpha  occ. eigenvalues --  -14.46840 -14.46574 -14.46368 -14.45918 -14.44488
 Alpha  occ. eigenvalues --  -14.44233 -14.43468 -14.42616 -10.42832 -10.42415
 Alpha  occ. eigenvalues --  -10.40908 -10.39317 -10.38812 -10.38745 -10.36392
 Alpha  occ. eigenvalues --  -10.35778 -10.35006 -10.34983 -10.34953 -10.34951
 Alpha  occ. eigenvalues --  -10.34903 -10.34699 -10.34637 -10.34399 -10.34256
 Alpha  occ. eigenvalues --  -10.34157 -10.34129 -10.34112 -10.33713 -10.33484
 Alpha  occ. eigenvalues --  -10.33369 -10.33128 -10.32994 -10.32963 -10.32926
 Alpha  occ. eigenvalues --  -10.32533 -10.32313 -10.32226 -10.32036 -10.32032
 Alpha  occ. eigenvalues --  -10.32002 -10.31861 -10.31819 -10.31783 -10.31715
 Alpha  occ. eigenvalues --  -10.31709 -10.31699 -10.31668 -10.31442 -10.31158
 Alpha  occ. eigenvalues --  -10.31060 -10.30948 -10.30906 -10.30875 -10.30869
 Alpha  occ. eigenvalues --  -10.30869 -10.30864 -10.30803 -10.30799 -10.30665
 Alpha  occ. eigenvalues --  -10.30181 -10.30175 -10.30058 -10.30002 -10.29969
 Alpha  occ. eigenvalues --  -10.29781 -10.29750 -10.29733 -10.29619 -10.29613
 Alpha  occ. eigenvalues --  -10.29589 -10.29494 -10.29454 -10.29395 -10.28767
 Alpha  occ. eigenvalues --  -10.28422  -3.20907  -3.20833  -1.94494  -1.94435
 Alpha  occ. eigenvalues --   -1.94009  -1.93954  -1.93897  -1.93794  -1.17872
 Alpha  occ. eigenvalues --   -1.17360  -1.13606  -1.13063  -1.12828  -1.11752
 Alpha  occ. eigenvalues --   -1.09678  -1.09221  -1.07154  -1.06564  -1.05838
 Alpha  occ. eigenvalues --   -1.05358  -1.04516  -1.03707  -1.03632  -1.03128
 Alpha  occ. eigenvalues --   -0.95017  -0.93783  -0.91204  -0.90899  -0.90846
 Alpha  occ. eigenvalues --   -0.90158  -0.89985  -0.89721  -0.89591  -0.89231
 Alpha  occ. eigenvalues --   -0.89115  -0.88780  -0.87991  -0.87364  -0.85958
 Alpha  occ. eigenvalues --   -0.85839  -0.85628  -0.85101  -0.84891  -0.84087
 Alpha  occ. eigenvalues --   -0.83983  -0.83651  -0.82677  -0.82624  -0.82057
 Alpha  occ. eigenvalues --   -0.81852  -0.80670  -0.80100  -0.79128  -0.78901
 Alpha  occ. eigenvalues --   -0.78584  -0.78334  -0.77489  -0.77342  -0.77140
 Alpha  occ. eigenvalues --   -0.76778  -0.74777  -0.74506  -0.73736  -0.73296
 Alpha  occ. eigenvalues --   -0.71791  -0.71586  -0.70684  -0.70655  -0.69742
 Alpha  occ. eigenvalues --   -0.69281  -0.68985  -0.68687  -0.67994  -0.67159
 Alpha  occ. eigenvalues --   -0.67025  -0.66600  -0.66585  -0.66371  -0.65912
 Alpha  occ. eigenvalues --   -0.65490  -0.63483  -0.63068  -0.62316  -0.62093
 Alpha  occ. eigenvalues --   -0.61485  -0.61137  -0.60824  -0.60624  -0.60278
 Alpha  occ. eigenvalues --   -0.60064  -0.59845  -0.59585  -0.58920  -0.58822
 Alpha  occ. eigenvalues --   -0.58515  -0.58113  -0.57685  -0.57451  -0.57065
 Alpha  occ. eigenvalues --   -0.57007  -0.56391  -0.56216  -0.56199  -0.56081
 Alpha  occ. eigenvalues --   -0.55724  -0.55627  -0.55183  -0.55107  -0.54807
 Alpha  occ. eigenvalues --   -0.54638  -0.54324  -0.54188  -0.53973  -0.53916
 Alpha  occ. eigenvalues --   -0.53715  -0.53577  -0.53322  -0.53306  -0.53212
 Alpha  occ. eigenvalues --   -0.52954  -0.52907  -0.52495  -0.52467  -0.52117
 Alpha  occ. eigenvalues --   -0.52117  -0.51983  -0.51744  -0.51634  -0.51437
 Alpha  occ. eigenvalues --   -0.51227  -0.51082  -0.50885  -0.50784  -0.50687
 Alpha  occ. eigenvalues --   -0.50362  -0.50291  -0.49991  -0.49936  -0.49808
 Alpha  occ. eigenvalues --   -0.49760  -0.49680  -0.49523  -0.49276  -0.48985
 Alpha  occ. eigenvalues --   -0.48982  -0.48695  -0.48601  -0.48484  -0.48303
 Alpha  occ. eigenvalues --   -0.48132  -0.47844  -0.47684  -0.47540  -0.47392
 Alpha  occ. eigenvalues --   -0.47377  -0.47235  -0.47134  -0.47001  -0.46981
 Alpha  occ. eigenvalues --   -0.46807  -0.46800  -0.46671  -0.46208  -0.45977
 Alpha  occ. eigenvalues --   -0.45934  -0.45800  -0.45690  -0.45480  -0.45371
 Alpha  occ. eigenvalues --   -0.45119  -0.45061  -0.44760  -0.44696  -0.44581
 Alpha  occ. eigenvalues --   -0.44497  -0.44258  -0.44013  -0.43984  -0.43816
 Alpha  occ. eigenvalues --   -0.43664  -0.43602  -0.43504  -0.43310  -0.43110
 Alpha  occ. eigenvalues --   -0.43070  -0.42949  -0.42829  -0.42713  -0.42411
 Alpha  occ. eigenvalues --   -0.42067  -0.41936  -0.41240  -0.41015  -0.40740
 Alpha  occ. eigenvalues --   -0.40724  -0.40009  -0.39763  -0.39694  -0.39646
 Alpha  occ. eigenvalues --   -0.39013  -0.38527  -0.38475  -0.38426  -0.37752
 Alpha  occ. eigenvalues --   -0.37721  -0.37399  -0.36585  -0.36265  -0.35947
 Alpha  occ. eigenvalues --   -0.35831  -0.35259  -0.34890  -0.33967  -0.33495
 Alpha  occ. eigenvalues --   -0.33458  -0.32857  -0.32592  -0.32559  -0.32312
 Alpha  occ. eigenvalues --   -0.32077  -0.31943  -0.30438  -0.25714  -0.25521
 Alpha  occ. eigenvalues --   -0.23202  -0.22783
 Alpha virt. eigenvalues --   -0.06912  -0.06864  -0.00143   0.00780   0.01840
 Alpha virt. eigenvalues --    0.02919   0.04706   0.04836   0.05639   0.05990
 Alpha virt. eigenvalues --    0.06937   0.07478   0.08061   0.08123   0.08803

 Mulliken charges:
               1
     1  Mg   0.949597
     2  C    0.045790
     3  C   -0.095131
     4  C   -0.065600
     5  C   -0.086022
     6  N   -0.314153
     7  C    0.001036
     8  C   -0.120539
     9  C   -0.103226
    10  C    0.089366
    11  C    0.035024
    12  C   -0.006381
    13  C   -0.094865
    14  H    0.041334
    15  N   -0.554389
    16  C    0.176015
    17  C   -0.150940
    18  C   -0.082838
    19  C    0.208021
    20  C    0.034960
    21  C    0.082022
    22  O   -0.237250
    23  C   -0.013147
    24  N   -0.304637
    25  C   -0.029576
    26  C   -0.047682
    27  C   -0.103697
    28  C    0.058155
    29  C    0.030149
    30  C   -0.003941
    31  C   -0.057123
    32  N   -0.438277
    33  C    0.134182
    34  C   -0.193268
    35  C   -0.035323
    36  C    0.077213
    37  C    0.080571
    38  C    0.135392
    39  O   -0.202603
    40  C   -0.093206
    41  C    0.220884
    42  O   -0.208160
    43  O   -0.410377
    44  C    0.136763
    45  H    0.001390
    46  H    0.012994
    47  H   -0.021954
    48  H    0.032008
    49  H    0.036226
    50  H    0.038336
    51  H    0.032830
    52  H    0.048323
    53  H    0.023447
    54  H    0.054584
    55  H    0.041847
    56  H    0.065459
    57  H    0.043003
    58  H    0.065201
    59  H    0.060873
    60  H    0.080072
    61  H    0.041515
    62  H    0.065199
    63  H    0.042310
    64  H    0.040176
    65  H    0.046568
    66  H    0.033169
    67  H    0.056349
    68  H    0.030848
    69  H    0.022435
    70  H    0.035938
    71  H    0.038552
    72  H    0.045758
    73  H    0.035941
    74  H    0.058427
    75  H    0.051007
    76  H    0.080142
    77  H    0.051933
    78  H    0.069315
    79  H    0.055657
    80  Mg   0.976981
    81  C   -0.038789
    82  C   -0.071977
    83  C   -0.068514
    84  C   -0.096326
    85  N   -0.383202
    86  C   -0.009596
    87  C   -0.027087
    88  C   -0.121278
    89  C    0.109316
    90  C   -0.013728
    91  C   -0.019390
    92  C   -0.123144
    93  H    0.029491
    94  N   -0.491461
    95  C    0.111773
    96  C   -0.136121
    97  C   -0.128126
    98  C    0.164562
    99  C    0.081508
   100  C    0.041135
   101  O   -0.208239
   102  C   -0.027362
   103  N   -0.338804
   104  C    0.031319
   105  C   -0.031775
   106  C   -0.109752
   107  C    0.026800
   108  C    0.019872
   109  C   -0.035696
   110  C   -0.029329
   111  N   -0.401427
   112  C    0.165321
   113  C   -0.241912
   114  C    0.013993
   115  C    0.138360
   116  C    0.096243
   117  C    0.119961
   118  O   -0.173027
   119  C   -0.118156
   120  C    0.285112
   121  O   -0.233303
   122  O   -0.386698
   123  C    0.128173
   124  H   -0.028710
   125  H    0.025109
   126  H    0.001904
   127  H    0.050877
   128  H    0.047841
   129  H    0.031088
   130  H    0.050447
   131  H    0.042727
   132  H    0.033739
   133  H    0.059802
   134  H    0.061074
   135  H    0.064021
   136  H    0.057900
   137  H    0.039861
   138  H    0.046977
   139  H    0.079760
   140  H    0.047242
   141  H    0.039805
   142  H    0.038830
   143  H    0.032531
   144  H    0.032678
   145  H    0.039108
   146  H    0.051634
   147  H    0.028469
   148  H    0.032761
   149  H    0.031871
   150  H    0.042810
   151  H    0.037470
   152  H    0.058741
   153  H    0.027670
   154  H    0.045772
   155  H    0.081039
   156  H    0.063717
   157  H    0.072742
   158  H    0.054989
 Sum of Mulliken charges =  -0.00000

 Dipole moment (field-independent basis, Debye):
    X=             -2.0826    Y=             -1.9460    Z=              4.9255  Tot=              5.6908
 Quadrupole moment (field-independent basis, Debye-Ang):
   XX=           -648.5696   YY=           -492.5093   ZZ=           -487.2531
   XY=             30.0846   XZ=            -80.3024   YZ=             33.5954

 Normal termination of Gaussian 16 at Sat Sep 18 23:51:52 2021.
