 Gaussian 16, Revision A.03,
 Gaussian 16:  ES64L-G16RevA.03 25-Dec-2016

 --------------------------------
 #p wB97XD/Def2SVP td=(nstates=5)
 --------------------------------

 --------------------------------
 TDDFT excited states in gaussian
 --------------------------------
 Symbolic Z-matrix:
 Charge =  0 Multiplicity = 1

                         Standard orientation:
 ---------------------------------------------------------------------
 Center     Atomic      Atomic             Coordinates (Angstroms)
 Number     Number       Type             X           Y           Z
 ---------------------------------------------------------------------
      1         12           0       12.874401   -0.705890   -0.310528
      2          6           0       15.026278    1.862324    0.612002
      3          6           0       10.342371    0.878632    1.247556
      4          6           0       11.015841   -3.523383   -0.526445
      5          6           0       15.702090   -2.659016   -1.172632
      6          7           0       12.781294    1.172015    0.686575
      7          6           0       13.700520    2.184959    0.852394
      8          6           0       13.066208    3.374249    1.624877
      9          6           0       11.794080    2.701249    2.226486
     10          6           0       11.551760    1.555014    1.255521
     11          6           0       11.967418    2.157912    3.688450
     12          6           0       12.967202    4.566355    0.655507
     13          6           0       13.343867    5.869057    1.251699
     14          1           0       13.700006    6.908514    0.287950
     15          7           0       10.897137   -1.136741    0.083172
     16          6           0       10.001804   -0.307146    0.678688
     17          6           0        8.679172   -0.841797    0.473097
     18          6           0        8.882213   -2.163868   -0.064524
     19          6           0       10.334657   -2.355709   -0.112234
     20          6           0        7.434271   -0.149614    0.899153
     21          6           0        7.871017   -3.311722   -0.387701
     22          8           0        8.218871   -4.396483   -0.858634
     23          6           0        6.387399   -3.098625   -0.273529
     24          7           0       13.398959   -2.877657   -0.457948
     25          6           0       12.362707   -3.829251   -0.662003
     26          6           0       12.861364   -5.164641   -1.105710
     27          6           0       14.315049   -4.745408   -1.499386
     28          6           0       14.474006   -3.288867   -1.071422
     29          6           0       12.763366   -6.283102   -0.013608
     30          6           0       14.611456   -4.885624   -3.037250
     31          6           0       13.589795   -4.204741   -3.983285
     32          7           0       14.933613   -0.455573   -0.401472
     33          6           0       15.957046   -1.319731   -0.820438
     34          6           0       17.168626   -0.599274   -0.696988
     35          6           0       16.831849    0.642200   -0.172052
     36          6           0       15.486366    0.665226   -0.005709
     37          6           0       18.517710   -1.091775   -1.114204
     38          6           0       17.377696    1.824388    0.307095
     39          8           0       18.569791    2.175829    0.372259
     40          6           0       16.254942    2.754649    0.857421
     41          6           0       16.374541    4.030867   -0.032821
     42          8           0       16.094669    4.095482   -1.243107
     43          8           0       16.849945    5.067159    0.763464
     44          6           0       17.292265    6.331914    0.094658
     45          1           0        9.633775    1.438441    1.861652
     46          1           0       10.561312   -4.482722   -0.785198
     47          1           0       16.578389   -3.133950   -1.618845
     48          1           0       13.750185    3.734237    2.392700
     49          1           0       10.953898    3.390092    2.143943
     50          1           0       12.922612    2.369303    4.169944
     51          1           0       11.952501    1.068787    3.695685
     52          1           0       11.215791    2.624387    4.324956
     53          1           0       11.907400    4.666603    0.425473
     54          1           0       13.570762    4.329688   -0.221156
     55          1           0       14.242734    5.673932    1.836795
     56          1           0       12.560005    6.170393    1.946299
     57          1           0        7.603502    0.915731    1.054520
     58          1           0        6.982316   -0.729478    1.704589
     59          1           0        6.710566   -0.181309    0.084617
     60          1           0        5.982935   -4.098834   -0.116660
     61          1           0        5.977336   -2.714943   -1.208016
     62          1           0        6.126959   -2.481941    0.587248
     63          1           0       12.365492   -5.547410   -1.998831
     64          1           0       15.019435   -5.360438   -0.938387
     65          1           0       12.692582   -5.813008    0.967631
     66          1           0       13.594314   -6.986272    0.044946
     67          1           0       11.902073   -6.947718   -0.087028
     68          1           0       14.728685   -5.954043   -3.219270
     69          1           0       15.615262   -4.472670   -3.136393
     70          1           0       14.047777   -3.449455   -4.622265
     71          1           0       12.821069   -3.765332   -3.347002
     72          1           0       13.101633   -4.911688   -4.653458
     73          1           0       19.145943   -1.016362   -0.226704
     74          1           0       18.853788   -0.471969   -1.945450
     75          1           0       18.564186   -2.141165   -1.405535
     76          1           0       16.505307    3.016678    1.885065
     77          1           0       18.102756    6.049553   -0.576880
     78          1           0       17.655403    7.140676    0.728725
     79          1           0       16.348677    6.550640   -0.405320
     80         12           0      -13.683052   -0.456221    0.309271
     81          6           0      -13.388765    2.758797   -1.032069
     82          6           0      -12.280794    0.750562    3.222015
     83          6           0      -13.292925   -3.664035    1.408721
     84          6           0      -14.450122   -1.626330   -2.858604
     85          7           0      -13.035844    1.523891    0.977929
     86          6           0      -13.212173    2.691692    0.346689
     87          6           0      -13.002658    3.933856    1.225051
     88          6           0      -12.458780    3.285090    2.555354
     89          6           0      -12.678732    1.689978    2.305622
     90          6           0      -11.005152    3.613367    2.958955
     91          6           0      -14.248670    4.799608    1.412810
     92          6           0      -13.925102    6.275809    1.706427
     93          1           0      -12.458250    6.717897    1.805439
     94          7           0      -13.009195   -1.348885    2.094537
     95          6           0      -12.518653   -0.665701    3.231197
     96          6           0      -12.230831   -1.644031    4.260786
     97          6           0      -12.460531   -2.965089    3.722864
     98          6           0      -12.972443   -2.710325    2.377247
     99          6           0      -11.854915   -1.216207    5.652737
    100          6           0      -12.384543   -4.395563    4.423092
    101          8           0      -12.740744   -5.421210    3.895585
    102          6           0      -11.811277   -4.426697    5.823254
    103          7           0      -13.753679   -2.350630   -0.609691
    104          6           0      -13.600365   -3.539233    0.042082
    105          6           0      -13.850226   -4.773261   -0.901018
    106          6           0      -14.272673   -4.077962   -2.194180
    107          6           0      -14.143414   -2.603124   -1.862882
    108          6           0      -12.768240   -5.914099   -1.074233
    109          6           0      -15.715752   -4.465921   -2.593336
    110          6           0      -16.898415   -3.728384   -1.927190
    111          7           0      -14.046647    0.347635   -1.590584
    112          6           0      -14.349882   -0.242436   -2.790182
    113          6           0      -14.500733    0.729619   -3.820562
    114          6           0      -14.114942    1.986163   -3.169052
    115          6           0      -13.845333    1.679281   -1.892330
    116          6           0      -14.892484    0.605968   -5.226295
    117          6           0      -13.811641    3.395545   -3.375525
    118          8           0      -13.980388    4.106554   -4.371921
    119          6           0      -13.333618    3.982795   -2.014923
    120          6           0      -12.004146    4.574525   -2.124394
    121          8           0      -10.941396    3.962883   -2.150835
    122          8           0      -12.128888    5.908147   -2.423065
    123          6           0      -10.980412    6.641356   -2.990063
    124          1           0      -11.811557    1.215263    4.091923
    125          1           0      -13.348387   -4.680189    1.804638
    126          1           0      -14.786159   -1.979592   -3.835672
    127          1           0      -12.167595    4.538511    0.871991
    128          1           0      -13.114271    3.439865    3.411626
    129          1           0      -11.162189    3.961837    3.979589
    130          1           0      -10.601379    4.408339    2.332441
    131          1           0      -10.375769    2.727316    2.875048
    132          1           0      -14.901404    4.413758    2.194923
    133          1           0      -14.859929    4.778362    0.510186
    134          1           0      -14.440264    6.405584    2.658422
    135          1           0      -14.459713    6.950664    1.036420
    136          1           0      -11.675855   -0.142925    5.587647
    137          1           0      -10.962355   -1.760147    5.962607
    138          1           0      -12.630055   -1.431586    6.389707
    139          1           0      -10.730882   -4.315231    5.920626
    140          1           0      -12.154487   -5.344716    6.300264
    141          1           0      -12.320294   -3.583168    6.289451
    142          1           0      -14.687866   -5.248849   -0.391356
    143          1           0      -13.561471   -4.392912   -2.956936
    144          1           0      -12.554894   -6.186166   -2.107273
    145          1           0      -13.159549   -6.821315   -0.614963
    146          1           0      -11.879816   -5.612735   -0.518471
    147          1           0      -15.785597   -5.536924   -2.407032
    148          1           0      -15.747836   -4.327137   -3.674389
    149          1           0      -17.627602   -4.512663   -1.725587
    150          1           0      -17.383690   -3.007653   -2.584935
    151          1           0      -16.626906   -3.145166   -1.047986
    152          1           0      -15.565306    1.431940   -5.454248
    153          1           0      -15.371077   -0.333934   -5.501483
    154          1           0      -14.041578    0.831015   -5.869522
    155          1           0      -14.100085    4.715203   -1.761971
    156          1           0      -10.088070    6.018390   -3.060404
    157          1           0      -10.750350    7.466838   -2.316004
    158          1           0      -11.381044    6.927426   -3.961927
 ---------------------------------------------------------------------

 SCF Done:  E(RwB97XD) =  -4070.62923214     A.U. after   19 cycles

 Excitation energies and oscillator strengths:

 Excited State   1:      Singlet-A      1.6038 eV  773.07 nm  f=0.3817  <S**2>=0.000
     309 -> 315        0.16814
     312 -> 314        0.68647
     309 <- 315        0.11353
 This state for optimization and/or second-order correction.
 Total Energy, E(TD-HF/TD-DFT) =  -4070.57029406
 Copying the excited state density for this state as the 1-particle RhoCI density.

 Excited State   2:      Singlet-A      1.6569 eV  748.27 nm  f=0.4081  <S**2>=0.000
     310 -> 316       -0.18728
     311 -> 313        0.68157
     310 <- 316       -0.11631

 Excited State   3:      Singlet-A      2.0778 eV  596.71 nm  f=0.1485  <S**2>=0.000
     310 -> 313        0.65640
     311 -> 316        0.23992

 Excited State   4:      Singlet-A      2.1620 eV  573.47 nm  f=0.1252  <S**2>=0.000
     309 -> 314        0.64155
     312 -> 315       -0.27553

 Excited State   5:      Singlet-A      3.1035 eV  399.50 nm  f=0.0053  <S**2>=0.000
     306 -> 313       -0.12817
     308 -> 313        0.67544

 The electronic state is 1-A.
 Alpha  occ. eigenvalues --  -46.94643 -46.94640 -19.29967 -19.29173 -19.25010
 Alpha  occ. eigenvalues --  -19.24959 -19.23984 -19.23817 -19.23701 -19.22728
 Alpha  occ. eigenvalues --  -14.46929 -14.46533 -14.46517 -14.46046 -14.44114
 Alpha  occ. eigenvalues --  -14.43886 -14.43084 -14.42829 -10.43918 -10.42567
 Alpha  occ. eigenvalues --  -10.40214 -10.39198 -10.39161 -10.37644 -10.35708
 Alpha  occ. eigenvalues --  -10.34985 -10.34975 -10.34961 -10.34948 -10.34767
 Alpha  occ. eigenvalues --  -10.34710 -10.34531 -10.34433 -10.34310 -10.34203
 Alpha  occ. eigenvalues --  -10.34186 -10.33950 -10.33340 -10.33134 -10.32897
 Alpha  occ. eigenvalues --  -10.32882 -10.32767 -10.32380 -10.32348 -10.32321
 Alpha  occ. eigenvalues --  -10.32318 -10.32309 -10.32204 -10.32180 -10.31950
 Alpha  occ. eigenvalues --  -10.31867 -10.31797 -10.31774 -10.31766 -10.31748
 Alpha  occ. eigenvalues --  -10.31744 -10.31575 -10.31562 -10.31505 -10.31216
 Alpha  occ. eigenvalues --  -10.31210 -10.31028 -10.30978 -10.30978 -10.30935
 Alpha  occ. eigenvalues --  -10.30876 -10.30759 -10.30694 -10.30501 -10.30320
 Alpha  occ. eigenvalues --  -10.30301 -10.30243 -10.30225 -10.30023 -10.29934
 Alpha  occ. eigenvalues --  -10.29880 -10.29762 -10.29735 -10.29709 -10.29663
 Alpha  occ. eigenvalues --  -10.29645 -10.29612 -10.29368 -10.29336 -10.28850
 Alpha  occ. eigenvalues --  -10.27789  -3.20669  -3.20605  -1.94238  -1.94195
 Alpha  occ. eigenvalues --   -1.93798  -1.93726  -1.93643  -1.93582  -1.17313
 Alpha  occ. eigenvalues --   -1.16576  -1.13853  -1.11623  -1.11155  -1.10165
 Alpha  occ. eigenvalues --   -1.08892  -1.08844  -1.06831  -1.06495  -1.05893
 Alpha  occ. eigenvalues --   -1.05493  -1.05379  -1.04529  -1.04207  -1.03110
 Alpha  occ. eigenvalues --   -0.94520  -0.94106  -0.91079  -0.90988  -0.90892
 Alpha  occ. eigenvalues --   -0.90701  -0.90426  -0.90125  -0.89678  -0.89071
 Alpha  occ. eigenvalues --   -0.89045  -0.88443  -0.88441  -0.88079  -0.86463
 Alpha  occ. eigenvalues --   -0.86178  -0.85415  -0.85377  -0.84273  -0.84028
 Alpha  occ. eigenvalues --   -0.83923  -0.83478  -0.83003  -0.82910  -0.82318
 Alpha  occ. eigenvalues --   -0.82185  -0.80145  -0.80118  -0.79092  -0.78956
 Alpha  occ. eigenvalues --   -0.78832  -0.78805  -0.77933  -0.77878  -0.77364
 Alpha  occ. eigenvalues --   -0.77013  -0.75213  -0.74472  -0.73973  -0.73121
 Alpha  occ. eigenvalues --   -0.71775  -0.71676  -0.70720  -0.70467  -0.69704
 Alpha  occ. eigenvalues --   -0.69490  -0.68455  -0.68118  -0.67299  -0.66762
 Alpha  occ. eigenvalues --   -0.66676  -0.66561  -0.66494  -0.66423  -0.66012
 Alpha  occ. eigenvalues --   -0.65784  -0.63570  -0.63448  -0.61840  -0.61829
 Alpha  occ. eigenvalues --   -0.61729  -0.61128  -0.61105  -0.61087  -0.60405
 Alpha  occ. eigenvalues --   -0.60332  -0.59707  -0.59530  -0.59452  -0.58936
 Alpha  occ. eigenvalues --   -0.57913  -0.57868  -0.57535  -0.57432  -0.57235
 Alpha  occ. eigenvalues --   -0.57169  -0.56943  -0.56699  -0.56658  -0.55674
 Alpha  occ. eigenvalues --   -0.55413  -0.55326  -0.54933  -0.54866  -0.54843
 Alpha  occ. eigenvalues --   -0.54738  -0.54669  -0.54347  -0.54298  -0.54106
 Alpha  occ. eigenvalues --   -0.53943  -0.53822  -0.53605  -0.53598  -0.53363
 Alpha  occ. eigenvalues --   -0.52784  -0.52632  -0.52381  -0.52241  -0.52227
 Alpha  occ. eigenvalues --   -0.51672  -0.51569  -0.51531  -0.51363  -0.51299
 Alpha  occ. eigenvalues --   -0.51065  -0.51018  -0.50961  -0.50788  -0.50653
 Alpha  occ. eigenvalues --   -0.50502  -0.50422  -0.50201  -0.50075  -0.49996
 Alpha  occ. eigenvalues --   -0.49873  -0.49605  -0.49602  -0.49290  -0.49099
 Alpha  occ. eigenvalues --   -0.48973  -0.48726  -0.48490  -0.48240  -0.48176
 Alpha  occ. eigenvalues --   -0.48088  -0.47861  -0.47832  -0.47613  -0.47610
 Alpha  occ. eigenvalues --   -0.47360  -0.47243  -0.46988  -0.46615  -0.46515
 Alpha  occ. eigenvalues --   -0.46376  -0.46290  -0.46045  -0.45932  -0.45656
 Alpha  occ. eigenvalues --   -0.45641  -0.45372  -0.45350  -0.45343  -0.45201
 Alpha  occ. eigenvalues --   -0.45090  -0.45034  -0.44967  -0.44790  -0.44712
 Alpha  occ. eigenvalues --   -0.44566  -0.44323  -0.44273  -0.43971  -0.43830
 Alpha  occ. eigenvalues --   -0.43713  -0.43480  -0.43460  -0.43067  -0.43026
 Alpha  occ. eigenvalues --   -0.42847  -0.42778  -0.42581  -0.42560  -0.42204
 Alpha  occ. eigenvalues --   -0.42125  -0.41866  -0.41837  -0.41027  -0.40485
 Alpha  occ. eigenvalues --   -0.40352  -0.40152  -0.39939  -0.39801  -0.39650
 Alpha  occ. eigenvalues --   -0.39254  -0.38859  -0.38825  -0.38512  -0.38097
 Alpha  occ. eigenvalues --   -0.38058  -0.37747  -0.36363  -0.36139  -0.36073
 Alpha  occ. eigenvalues --   -0.35798  -0.35558  -0.35439  -0.33612  -0.33506
 Alpha  occ. eigenvalues --   -0.33152  -0.32846  -0.32696  -0.32020  -0.31884
 Alpha  occ. eigenvalues --   -0.31842  -0.31503  -0.30888  -0.26128  -0.25473
 Alpha  occ. eigenvalues --   -0.23159  -0.22968
 Alpha virt. eigenvalues --   -0.07324  -0.07324   0.00464   0.00569   0.02597
 Alpha virt. eigenvalues --    0.02639   0.04496   0.04544   0.05435   0.05635
 Alpha virt. eigenvalues --    0.07162   0.07391   0.07456   0.07720   0.08418

 Mulliken charges:
               1
     1  Mg   0.955790
     2  C   -0.066601
     3  C   -0.119137
     4  C   -0.020850
     5  C   -0.102853
     6  N   -0.406723
     7  C    0.019824
     8  C   -0.101630
     9  C   -0.087862
    10  C    0.034070
    11  C    0.034887
    12  C    0.039911
    13  C   -0.123684
    14  H    0.052828
    15  N   -0.463839
    16  C    0.229542
    17  C   -0.175429
    18  C   -0.078261
    19  C    0.188167
    20  C    0.068941
    21  C    0.055756
    22  O   -0.248538
    23  C   -0.006183
    24  N   -0.316638
    25  C   -0.057230
    26  C   -0.058280
    27  C   -0.099716
    28  C    0.112063
    29  C    0.018228
    30  C   -0.021938
    31  C   -0.053864
    32  N   -0.434832
    33  C    0.116873
    34  C   -0.197916
    35  C    0.053951
    36  C    0.194216
    37  C    0.092966
    38  C    0.016683
    39  O   -0.242865
    40  C   -0.028834
    41  C    0.287572
    42  O   -0.268726
    43  O   -0.389803
    44  C    0.142335
    45  H   -0.000931
    46  H    0.018649
    47  H    0.002508
    48  H    0.020061
    49  H    0.019467
    50  H    0.035556
    51  H    0.053061
    52  H    0.043410
    53  H    0.021687
    54  H    0.065574
    55  H    0.039903
    56  H    0.040118
    57  H    0.041111
    58  H    0.067719
    59  H    0.043418
    60  H    0.054744
    61  H    0.075291
    62  H    0.027212
    63  H    0.045879
    64  H    0.030883
    65  H    0.039555
    66  H    0.032735
    67  H    0.042678
    68  H    0.031221
    69  H    0.022871
    70  H    0.046461
    71  H    0.045775
    72  H    0.042312
    73  H    0.058082
    74  H    0.067978
    75  H    0.019599
    76  H    0.066866
    77  H    0.068301
    78  H    0.069501
    79  H    0.058373
    80  Mg   0.959933
    81  C   -0.000909
    82  C   -0.090177
    83  C   -0.073897
    84  C   -0.086971
    85  N   -0.357047
    86  C   -0.011378
    87  C   -0.047808
    88  C   -0.148971
    89  C    0.067800
    90  C    0.032176
    91  C    0.017149
    92  C   -0.110743
    93  H    0.046705
    94  N   -0.477725
    95  C    0.165505
    96  C   -0.178597
    97  C   -0.089950
    98  C    0.129269
    99  C    0.057222
   100  C    0.082234
   101  O   -0.208349
   102  C   -0.022439
   103  N   -0.337863
   104  C    0.039691
   105  C   -0.081588
   106  C   -0.049297
   107  C    0.051108
   108  C    0.022572
   109  C   -0.042543
   110  C   -0.033363
   111  N   -0.450034
   112  C    0.142066
   113  C   -0.164966
   114  C   -0.034704
   115  C    0.132529
   116  C    0.085464
   117  C    0.094058
   118  O   -0.220621
   119  C   -0.059100
   120  C    0.274388
   121  O   -0.254888
   122  O   -0.379395
   123  C    0.128408
   124  H    0.001221
   125  H    0.020187
   126  H   -0.015827
   127  H    0.038770
   128  H    0.031234
   129  H    0.040084
   130  H    0.043008
   131  H    0.055298
   132  H    0.031114
   133  H    0.031113
   134  H    0.040531
   135  H    0.054424
   136  H    0.029035
   137  H    0.047780
   138  H    0.067818
   139  H    0.081917
   140  H    0.053866
   141  H    0.031781
   142  H    0.039807
   143  H    0.036139
   144  H    0.039875
   145  H    0.035734
   146  H    0.050902
   147  H    0.030202
   148  H    0.031154
   149  H    0.040437
   150  H    0.037241
   151  H    0.046566
   152  H    0.053001
   153  H    0.034679
   154  H    0.057869
   155  H    0.073334
   156  H    0.066759
   157  H    0.054386
   158  H    0.073607
 Sum of Mulliken charges =  -0.00000

 Dipole moment (field-independent basis, Debye):
    X=             -4.7217    Y=              0.2326    Z=              4.8520  Tot=              6.7743
 Quadrupole moment (field-independent basis, Debye-Ang):
   XX=           -564.5903   YY=           -484.1111   ZZ=           -491.5493
   XY=             -6.1464   XZ=            -32.4232   YZ=             38.2695

 Normal termination of Gaussian 16 at Sun Sep 19 09:46:59 2021.
