 Gaussian 16, Revision A.03,
 Gaussian 16:  ES64L-G16RevA.03 25-Dec-2016

 --------------------------------
 #p wB97XD/Def2SVP td=(nstates=5)
 --------------------------------

 --------------------------------
 TDDFT excited states in gaussian
 --------------------------------
 Symbolic Z-matrix:
 Charge =  0 Multiplicity = 1

                         Standard orientation:
 ---------------------------------------------------------------------
 Center     Atomic      Atomic             Coordinates (Angstroms)
 Number     Number       Type             X           Y           Z
 ---------------------------------------------------------------------
      1         12           0       13.934675   -0.062321    0.221190
      2          6           0       11.426140   -0.960577   -2.048538
      3          6           0       14.219853    2.861515   -1.603784
      4          6           0       16.085046    1.036235    2.525768
      5          6           0       12.899627   -2.634895    2.349786
      6          7           0       12.696212    0.930924   -1.613911
      7          6           0       11.820595    0.295312   -2.415887
      8          6           0       11.339736    1.137667   -3.572969
      9          6           0       12.499736    2.203261   -3.514315
     10          6           0       13.180440    2.066439   -2.156280
     11          6           0       13.547483    1.906938   -4.620304
     12          6           0        9.881025    1.571207   -3.380144
     13          6           0        9.383312    1.990201   -1.981142
     14          1           0        8.608387    3.300886   -1.914230
     15          7           0       15.000856    1.670884    0.430984
     16          6           0       15.058251    2.680669   -0.492682
     17          6           0       16.267750    3.477914   -0.250534
     18          6           0       16.770774    3.079244    1.052112
     19          6           0       15.946205    1.872935    1.367285
     20          6           0       16.628623    4.759749   -1.094555
     21          6           0       17.879477    3.761074    1.857689
     22          8           0       18.528896    4.646484    1.374924
     23          6           0       18.194481    3.291794    3.248740
     24          7           0       14.244968   -0.636605    2.294705
     25          6           0       15.301017   -0.096171    3.051697
     26          6           0       15.485361   -0.811478    4.456561
     27          6           0       14.464264   -2.038945    4.317704
     28          6           0       13.843858   -1.789562    2.867244
     29          6           0       16.950946   -1.243613    4.963640
     30          6           0       13.362905   -2.213601    5.460283
     31          6           0       13.042333   -3.770572    5.703350
     32          7           0       12.497803   -1.579642    0.196929
     33          6           0       12.262651   -2.600651    1.095171
     34          6           0       11.256046   -3.499668    0.544002
     35          6           0       10.904098   -2.979662   -0.728272
     36          6           0       11.641281   -1.748105   -0.862317
     37          6           0       10.820802   -4.821349    1.120721
     38          6           0       10.031124   -3.067257   -1.944029
     39          8           0        9.123892   -3.826345   -2.202522
     40          6           0       10.409068   -1.796527   -2.817702
     41          6           0       10.951024   -2.317613   -4.120321
     42          8           0       10.235231   -2.773870   -5.046750
     43          8           0       12.315707   -2.076624   -4.186131
     44          6           0       12.919057   -2.309517   -5.455675
     45          1           0       14.376295    3.742804   -2.229469
     46          1           0       16.889938    1.178913    3.250132
     47          1           0       12.730697   -3.542131    2.933821
     48          1           0       11.468662    0.625410   -4.526236
     49          1           0       12.233703    3.253579   -3.625340
     50          1           0       14.510225    2.204835   -4.204282
     51          1           0       13.265269    2.390572   -5.554413
     52          1           0       13.775164    0.870917   -4.873112
     53          1           0        9.282321    0.690481   -3.610420
     54          1           0        9.667679    2.365484   -4.095584
     55          1           0       10.244678    2.130527   -1.328571
     56          1           0        8.699162    1.221721   -1.622462
     57          1           0       16.050390    5.651446   -0.850908
     58          1           0       16.513699    4.540474   -2.156122
     59          1           0       17.673806    5.066395   -1.076135
     60          1           0       18.891473    3.959225    3.756583
     61          1           0       18.609456    2.284110    3.278226
     62          1           0       17.238293    3.436970    3.752161
     63          1           0       15.081486   -0.033848    5.103759
     64          1           0       14.999075   -2.985997    4.251833
     65          1           0       17.354952   -0.402359    5.525614
     66          1           0       17.603146   -1.500480    4.129380
     67          1           0       16.850997   -2.134206    5.584426
     68          1           0       12.398313   -1.822093    5.137395
     69          1           0       13.659300   -1.698017    6.374086
     70          1           0       11.996634   -3.992055    5.489514
     71          1           0       13.242762   -4.022648    6.744277
     72          1           0       13.523141   -4.514963    5.069616
     73          1           0       10.420521   -4.644835    2.118505
     74          1           0       11.681790   -5.484934    1.203888
     75          1           0       10.025166   -5.286431    0.538919
     76          1           0        9.444381   -1.348777   -3.055409
     77          1           0       13.962652   -1.997848   -5.418972
     78          1           0       12.331283   -1.866565   -6.259861
     79          1           0       13.021890   -3.373064   -5.670901
     80         12           0      -13.508215    0.991994    0.024711
     81          6           0      -13.536029   -2.531996   -0.328458
     82          6           0      -10.023796    0.733844   -0.079133
     83          6           0      -13.300168    4.261858    0.235051
     84          6           0      -16.869791    0.903620    0.908973
     85          7           0      -12.010244   -0.716803   -0.214289
     86          6           0      -12.245357   -2.030264   -0.487549
     87          6           0      -10.999536   -2.916531   -0.657434
     88          6           0       -9.884752   -1.773464   -0.435124
     89          6           0      -10.709452   -0.539235   -0.218938
     90          6           0       -8.945146   -2.014374    0.811980
     91          6           0      -10.912675   -3.586072   -2.067681
     92          6           0      -11.049946   -5.081778   -2.324211
     93          1           0      -10.239837   -5.774950   -3.411746
     94          7           0      -11.901115    2.354176   -0.002466
     95          6           0      -10.531599    2.053506    0.021854
     96          6           0       -9.818507    3.302406    0.171233
     97          6           0      -10.730950    4.352332    0.102476
     98          6           0      -12.042245    3.676915    0.050915
     99          6           0       -8.328646    3.278852    0.129691
    100          6           0      -10.540565    5.866290    0.188329
    101          8           0      -11.456923    6.692815    0.145776
    102          6           0       -9.150843    6.369348    0.180125
    103          7           0      -14.842532    2.407755    0.602231
    104          6           0      -14.614394    3.742808    0.414250
    105          6           0      -15.955974    4.551149    0.426631
    106          6           0      -16.996406    3.481939    0.733794
    107          6           0      -16.185288    2.159885    0.829639
    108          6           0      -15.934977    5.783340    1.389157
    109          6           0      -18.065305    3.469262   -0.369581
    110          6           0      -19.492549    3.370600    0.030251
    111          7           0      -14.933421   -0.476475    0.359164
    112          6           0      -16.262584   -0.374402    0.683528
    113          6           0      -16.889744   -1.661359    0.729399
    114          6           0      -15.880942   -2.622677    0.229564
    115          6           0      -14.702776   -1.803653    0.017658
    116          6           0      -18.341439   -1.941111    1.154443
    117          6           0      -15.563623   -4.031145   -0.116483
    118          8           0      -16.307899   -5.022310   -0.205983
    119          6           0      -14.025631   -4.000271   -0.494854
    120          6           0      -13.492856   -4.971052    0.512170
    121          8           0      -13.136122   -4.756313    1.664298
    122          8           0      -13.315335   -6.146462   -0.026126
    123          6           0      -12.949606   -7.300480    0.830660
    124          1           0       -8.971914    0.521592   -0.279863
    125          1           0      -13.372221    5.343853    0.361130
    126          1           0      -17.941097    0.904038    1.118803
    127          1           0      -10.985094   -3.626943    0.170078
    128          1           0       -9.225846   -1.525469   -1.267832
    129          1           0       -9.274365   -2.747496    1.547846
    130          1           0       -8.819431   -1.084120    1.364879
    131          1           0       -7.965392   -2.323181    0.447077
    132          1           0       -9.929521   -3.333047   -2.464859
    133          1           0      -11.673015   -3.171804   -2.728551
    134          1           0      -12.070114   -5.120070   -2.706449
    135          1           0      -10.888004   -5.490137   -1.326603
    136          1           0       -7.936267    3.843223   -0.715132
    137          1           0       -7.954003    2.258311    0.046750
    138          1           0       -7.866009    3.716084    1.013986
    139          1           0       -8.602152    5.907231   -0.640636
    140          1           0       -8.576107    6.020049    1.038015
    141          1           0       -9.062025    7.444804    0.029830
    142          1           0      -15.999240    4.913614   -0.600297
    143          1           0      -17.546622    3.718181    1.644441
    144          1           0      -14.951869    6.015243    1.798554
    145          1           0      -16.587180    5.676223    2.255117
    146          1           0      -16.398746    6.639669    0.899767
    147          1           0      -17.789536    2.589593   -0.949761
    148          1           0      -18.071284    4.352363   -1.008008
    149          1           0      -19.868257    2.503975   -0.513214
    150          1           0      -20.002367    4.316047   -0.154736
    151          1           0      -19.660040    3.100818    1.073195
    152          1           0      -18.365431   -2.133372    2.226451
    153          1           0      -18.707307   -2.790413    0.577644
    154          1           0      -18.991293   -1.080978    0.991843
    155          1           0      -13.945307   -4.403007   -1.504370
    156          1           0      -12.003493   -7.179787    1.357163
    157          1           0      -12.923381   -8.255076    0.305520
    158          1           0      -13.649529   -7.566014    1.622345
 ---------------------------------------------------------------------

 SCF Done:  E(RwB97XD) =  -4070.60103752     A.U. after   20 cycles

 Excitation energies and oscillator strengths:

 Excited State   1:      Singlet-A      1.6943 eV  731.78 nm  f=0.3680  <S**2>=0.000
     309 -> 315        0.19914
     311 -> 313        0.67855
     309 <- 315        0.11859
 This state for optimization and/or second-order correction.
 Total Energy, E(TD-HF/TD-DFT) =  -4070.53877372
 Copying the excited state density for this state as the 1-particle RhoCI density.

 Excited State   2:      Singlet-A      1.7241 eV  719.13 nm  f=0.3705  <S**2>=0.000
     310 -> 316       -0.18626
     312 -> 314        0.68169
     310 <- 316       -0.11190

 Excited State   3:      Singlet-A      2.1687 eV  571.71 nm  f=0.1036  <S**2>=0.000
     310 -> 314        0.63395
     312 -> 316        0.29496

 Excited State   4:      Singlet-A      2.1842 eV  567.64 nm  f=0.1010  <S**2>=0.000
     309 -> 313        0.63339
     311 -> 315       -0.30082

 Excited State   5:      Singlet-A      3.7943 eV  326.76 nm  f=0.0000  <S**2>=0.000
     312 -> 313        0.70702

 The electronic state is 1-A.
 Alpha  occ. eigenvalues --  -46.96831 -46.94794 -19.31341 -19.30379 -19.25085
 Alpha  occ. eigenvalues --  -19.24669 -19.24610 -19.24157 -19.23801 -19.23024
 Alpha  occ. eigenvalues --  -14.47093 -14.46933 -14.46505 -14.46413 -14.45220
 Alpha  occ. eigenvalues --  -14.44387 -14.44134 -14.43474 -10.43948 -10.42369
 Alpha  occ. eigenvalues --  -10.39937 -10.39907 -10.39367 -10.39357 -10.37045
 Alpha  occ. eigenvalues --  -10.36041 -10.35793 -10.35681 -10.35593 -10.35389
 Alpha  occ. eigenvalues --  -10.35278 -10.35206 -10.35052 -10.34823 -10.34796
 Alpha  occ. eigenvalues --  -10.34647 -10.34412 -10.34291 -10.34039 -10.33889
 Alpha  occ. eigenvalues --  -10.33647 -10.33589 -10.33341 -10.33102 -10.33021
 Alpha  occ. eigenvalues --  -10.32720 -10.32702 -10.32690 -10.32636 -10.32607
 Alpha  occ. eigenvalues --  -10.32605 -10.32570 -10.32546 -10.32260 -10.32254
 Alpha  occ. eigenvalues --  -10.32232 -10.32143 -10.32131 -10.32065 -10.31996
 Alpha  occ. eigenvalues --  -10.31945 -10.31945 -10.31904 -10.31814 -10.31701
 Alpha  occ. eigenvalues --  -10.31676 -10.31442 -10.30989 -10.30933 -10.30932
 Alpha  occ. eigenvalues --  -10.30422 -10.30363 -10.30325 -10.30325 -10.30246
 Alpha  occ. eigenvalues --  -10.30241 -10.30192 -10.30192 -10.30025 -10.29877
 Alpha  occ. eigenvalues --  -10.29826 -10.29672 -10.29626 -10.29382 -10.29057
 Alpha  occ. eigenvalues --  -10.28590  -3.22676  -3.20823  -1.96219  -1.95808
 Alpha  occ. eigenvalues --   -1.95627  -1.94415  -1.93948  -1.93801  -1.19865
 Alpha  occ. eigenvalues --   -1.18724  -1.13830  -1.12984  -1.12291  -1.10496
 Alpha  occ. eigenvalues --   -1.09346  -1.08552  -1.07410  -1.06891  -1.06053
 Alpha  occ. eigenvalues --   -1.06040  -1.05041  -1.04706  -1.03996  -1.03256
 Alpha  occ. eigenvalues --   -0.94562  -0.93692  -0.91413  -0.90998  -0.90885
 Alpha  occ. eigenvalues --   -0.90598  -0.90390  -0.89670  -0.89623  -0.89353
 Alpha  occ. eigenvalues --   -0.88605  -0.88070  -0.87756  -0.86964  -0.86856
 Alpha  occ. eigenvalues --   -0.86130  -0.85337  -0.85283  -0.84707  -0.84689
 Alpha  occ. eigenvalues --   -0.84590  -0.83889  -0.82843  -0.82680  -0.82436
 Alpha  occ. eigenvalues --   -0.82418  -0.80710  -0.79584  -0.79334  -0.79311
 Alpha  occ. eigenvalues --   -0.78729  -0.78681  -0.78411  -0.78012  -0.77372
 Alpha  occ. eigenvalues --   -0.77048  -0.74884  -0.74130  -0.74114  -0.73723
 Alpha  occ. eigenvalues --   -0.71950  -0.71428  -0.71144  -0.70319  -0.70046
 Alpha  occ. eigenvalues --   -0.69510  -0.69295  -0.68886  -0.67912  -0.67676
 Alpha  occ. eigenvalues --   -0.67121  -0.66948  -0.66938  -0.66796  -0.66716
 Alpha  occ. eigenvalues --   -0.66113  -0.65786  -0.64285  -0.62937  -0.62168
 Alpha  occ. eigenvalues --   -0.61399  -0.61361  -0.61036  -0.60860  -0.60382
 Alpha  occ. eigenvalues --   -0.60245  -0.59809  -0.59692  -0.59563  -0.59428
 Alpha  occ. eigenvalues --   -0.58667  -0.58354  -0.58114  -0.57570  -0.57462
 Alpha  occ. eigenvalues --   -0.57102  -0.56847  -0.56303  -0.56141  -0.56038
 Alpha  occ. eigenvalues --   -0.55749  -0.55682  -0.55470  -0.55227  -0.55099
 Alpha  occ. eigenvalues --   -0.54853  -0.54826  -0.54505  -0.54405  -0.53971
 Alpha  occ. eigenvalues --   -0.53951  -0.53712  -0.53439  -0.53272  -0.53120
 Alpha  occ. eigenvalues --   -0.52737  -0.52565  -0.52479  -0.52334  -0.52101
 Alpha  occ. eigenvalues --   -0.51992  -0.51896  -0.51783  -0.51773  -0.51591
 Alpha  occ. eigenvalues --   -0.51586  -0.51303  -0.50980  -0.50958  -0.50676
 Alpha  occ. eigenvalues --   -0.50521  -0.50389  -0.50374  -0.50037  -0.49928
 Alpha  occ. eigenvalues --   -0.49660  -0.49600  -0.49361  -0.49261  -0.49251
 Alpha  occ. eigenvalues --   -0.48969  -0.48717  -0.48472  -0.48350  -0.48182
 Alpha  occ. eigenvalues --   -0.48102  -0.47937  -0.47708  -0.47691  -0.47554
 Alpha  occ. eigenvalues --   -0.47443  -0.47339  -0.47308  -0.47203  -0.46979
 Alpha  occ. eigenvalues --   -0.46926  -0.46895  -0.46477  -0.46270  -0.46218
 Alpha  occ. eigenvalues --   -0.46121  -0.45983  -0.45905  -0.45862  -0.45695
 Alpha  occ. eigenvalues --   -0.45473  -0.45318  -0.45090  -0.45021  -0.44923
 Alpha  occ. eigenvalues --   -0.44797  -0.44663  -0.44334  -0.44261  -0.44200
 Alpha  occ. eigenvalues --   -0.44018  -0.43895  -0.43720  -0.43546  -0.43229
 Alpha  occ. eigenvalues --   -0.43212  -0.43062  -0.42622  -0.42367  -0.42256
 Alpha  occ. eigenvalues --   -0.41909  -0.41873  -0.41659  -0.41317  -0.41090
 Alpha  occ. eigenvalues --   -0.40955  -0.40268  -0.40168  -0.39791  -0.39445
 Alpha  occ. eigenvalues --   -0.39341  -0.39197  -0.38888  -0.38626  -0.38342
 Alpha  occ. eigenvalues --   -0.38281  -0.37684  -0.36770  -0.36497  -0.36338
 Alpha  occ. eigenvalues --   -0.35479  -0.35443  -0.35064  -0.34050  -0.33748
 Alpha  occ. eigenvalues --   -0.33649  -0.33309  -0.33027  -0.32902  -0.32529
 Alpha  occ. eigenvalues --   -0.32409  -0.31953  -0.30749  -0.26049  -0.25785
 Alpha  occ. eigenvalues --   -0.23305  -0.22933
 Alpha virt. eigenvalues --   -0.07078  -0.06782  -0.00266   0.00136   0.01931
 Alpha virt. eigenvalues --    0.02091   0.03841   0.04055   0.04245   0.05856
 Alpha virt. eigenvalues --    0.06560   0.07797   0.07808   0.08424   0.08526

 Mulliken charges:
               1
     1  Mg   0.954616
     2  C    0.126634
     3  C   -0.086964
     4  C   -0.102809
     5  C   -0.086831
     6  N   -0.280274
     7  C   -0.106247
     8  C    0.024783
     9  C   -0.115409
    10  C    0.019750
    11  C    0.017981
    12  C    0.021149
    13  C   -0.132974
    14  H    0.032303
    15  N   -0.458852
    16  C    0.175533
    17  C   -0.148271
    18  C   -0.099902
    19  C    0.211808
    20  C    0.047893
    21  C    0.038149
    22  O   -0.200494
    23  C   -0.012752
    24  N   -0.368109
    25  C    0.007634
    26  C   -0.063013
    27  C   -0.084131
    28  C    0.069753
    29  C    0.005021
    30  C   -0.009894
    31  C   -0.094074
    32  N   -0.439468
    33  C    0.138727
    34  C   -0.213602
    35  C   -0.016383
    36  C    0.078904
    37  C    0.071719
    38  C    0.139873
    39  O   -0.173678
    40  C   -0.211017
    41  C    0.295932
    42  O   -0.267050
    43  O   -0.352005
    44  C    0.141252
    45  H    0.007276
    46  H   -0.024933
    47  H   -0.020819
    48  H    0.029522
    49  H    0.028276
    50  H    0.024682
    51  H    0.050175
    52  H    0.027518
    53  H    0.036801
    54  H    0.046104
    55  H    0.070858
    56  H    0.060264
    57  H    0.063277
    58  H    0.025842
    59  H    0.056187
    60  H    0.047126
    61  H    0.080205
    62  H    0.053675
    63  H    0.053721
    64  H    0.040373
    65  H    0.049512
    66  H    0.047569
    67  H    0.050580
    68  H    0.049606
    69  H    0.044054
    70  H    0.038338
    71  H    0.044565
    72  H    0.040110
    73  H    0.037385
    74  H    0.052098
    75  H    0.058764
    76  H    0.084836
    77  H    0.049632
    78  H    0.054918
    79  H    0.046688
    80  Mg   0.972666
    81  C    0.039323
    82  C   -0.094832
    83  C   -0.084866
    84  C   -0.089174
    85  N   -0.280173
    86  C   -0.033578
    87  C   -0.039474
    88  C   -0.125449
    89  C    0.009744
    90  C    0.001748
    91  C   -0.006525
    92  C   -0.125603
    93  H    0.046236
    94  N   -0.445374
    95  C    0.189145
    96  C   -0.135146
    97  C   -0.078266
    98  C    0.174103
    99  C    0.050379
   100  C    0.084310
   101  O   -0.232617
   102  C   -0.007000
   103  N   -0.424756
   104  C    0.030726
   105  C   -0.065466
   106  C   -0.064752
   107  C    0.113726
   108  C    0.012719
   109  C   -0.040658
   110  C   -0.047837
   111  N   -0.454853
   112  C    0.145785
   113  C   -0.199057
   114  C   -0.045556
   115  C    0.123299
   116  C    0.077698
   117  C    0.112834
   118  O   -0.226652
   119  C   -0.112701
   120  C    0.233065
   121  O   -0.268693
   122  O   -0.310136
   123  C    0.148277
   124  H    0.002238
   125  H    0.015927
   126  H   -0.006287
   127  H    0.060645
   128  H    0.045887
   129  H    0.052653
   130  H    0.037715
   131  H    0.037964
   132  H    0.038807
   133  H    0.032635
   134  H    0.061870
   135  H    0.051797
   136  H    0.054812
   137  H    0.035763
   138  H    0.048426
   139  H    0.039805
   140  H    0.049869
   141  H    0.061193
   142  H    0.053944
   143  H    0.031555
   144  H    0.057279
   145  H    0.025160
   146  H    0.035059
   147  H    0.036576
   148  H    0.031161
   149  H    0.037254
   150  H    0.043505
   151  H    0.025427
   152  H    0.056244
   153  H    0.061343
   154  H    0.025234
   155  H    0.075639
   156  H    0.050868
   157  H    0.052479
   158  H    0.052965
 Sum of Mulliken charges =  -0.00000

 Dipole moment (field-independent basis, Debye):
    X=              9.0694    Y=              2.6804    Z=              1.4247  Tot=              9.5639
 Quadrupole moment (field-independent basis, Debye-Ang):
   XX=           -508.2956   YY=           -537.2457   ZZ=           -487.9355
   XY=            -80.1418   XZ=             42.8014   YZ=            -26.2178

 Normal termination of Gaussian 16 at Sun Sep 19 20:54:56 2021.
