 Gaussian 16, Revision A.03,
 Gaussian 16:  ES64L-G16RevA.03 25-Dec-2016

 --------------------------------
 #p wB97XD/Def2SVP td=(nstates=5)
 --------------------------------

 --------------------------------
 TDDFT excited states in gaussian
 --------------------------------
 Symbolic Z-matrix:
 Charge =  0 Multiplicity = 1

                         Standard orientation:
 ---------------------------------------------------------------------
 Center     Atomic      Atomic             Coordinates (Angstroms)
 Number     Number       Type             X           Y           Z
 ---------------------------------------------------------------------
      1         12           0       29.882837    0.445291    0.405056
      2          6           0       30.219714   -2.395758   -1.428098
      3          6           0       28.027866    2.050079   -2.021219
      4          6           0       29.849162    3.264157    2.348307
      5          6           0       32.177586   -0.957734    2.825083
      6          7           0       29.395655   -0.050309   -1.569857
      7          6           0       29.409480   -1.401485   -2.053611
      8          6           0       28.557310   -1.542350   -3.250984
      9          6           0       28.241491   -0.017118   -3.591764
     10          6           0       28.565013    0.757191   -2.333444
     11          6           0       29.090044    0.541946   -4.840602
     12          6           0       27.364723   -2.534729   -3.091302
     13          6           0       27.157723   -3.472810   -4.236564
     14          1           0       27.361226   -2.863279   -5.679457
     15          7           0       28.989023    2.368915    0.222472
     16          6           0       28.294654    2.779346   -0.876511
     17          6           0       27.843398    4.105310   -0.626663
     18          6           0       28.277468    4.494685    0.700436
     19          6           0       29.041668    3.314635    1.227071
     20          6           0       27.111018    4.940556   -1.699509
     21          6           0       28.062330    5.722855    1.528481
     22          8           0       28.564049    6.010891    2.620898
     23          6           0       27.021697    6.750594    0.942595
     24          7           0       30.975946    1.135466    2.313230
     25          6           0       30.694211    2.264773    2.913897
     26          6           0       31.254142    2.325235    4.333566
     27          6           0       31.995597    0.964359    4.466437
     28          6           0       31.721400    0.328518    3.104993
     29          6           0       32.224080    3.587187    4.593514
     30          6           0       31.347341    0.143320    5.666804
     31          6           0       29.895224   -0.387833    5.578782
     32          7           0       31.115009   -1.251401    0.589959
     33          6           0       31.917418   -1.679486    1.630678
     34          6           0       32.319375   -3.062702    1.303669
     35          6           0       31.707221   -3.442438    0.147119
     36          6           0       30.970136   -2.269417   -0.253356
     37          6           0       33.357918   -3.828364    2.048636
     38          6           0       31.507296   -4.505832   -0.837122
     39          8           0       31.961534   -5.635791   -0.902635
     40          6           0       30.530632   -3.831691   -1.897791
     41          6           0       31.257997   -3.771953   -3.181937
     42          8           0       32.359484   -3.243938   -3.414095
     43          8           0       30.437808   -4.447044   -4.063069
     44          6           0       30.859044   -4.366780   -5.467834
     45          1           0       27.394527    2.573089   -2.740594
     46          1           0       29.698610    4.151088    2.968350
     47          1           0       32.808525   -1.427482    3.581691
     48          1           0       29.219736   -1.973254   -4.002796
     49          1           0       27.174816    0.064559   -3.798427
     50          1           0       29.563571   -0.241148   -5.432748
     51          1           0       29.940519    1.071695   -4.411694
     52          1           0       28.387916    1.204843   -5.344549
     53          1           0       26.437348   -1.976207   -2.963982
     54          1           0       27.642732   -3.098072   -2.200653
     55          1           0       26.137312   -3.848554   -4.300847
     56          1           0       27.690921   -4.421381   -4.301396
     57          1           0       26.063506    4.688531   -1.864336
     58          1           0       27.743939    4.796776   -2.575045
     59          1           0       27.004118    5.989111   -1.422479
     60          1           0       27.472078    7.262798    0.092320
     61          1           0       26.624918    7.335695    1.772046
     62          1           0       26.091377    6.289003    0.610992
     63          1           0       30.418805    2.347732    5.033023
     64          1           0       33.060942    1.065635    4.673726
     65          1           0       31.650419    4.280541    5.209600
     66          1           0       32.468071    4.074223    3.648837
     67          1           0       33.157088    3.448275    5.138192
     68          1           0       31.410142    0.625500    6.642199
     69          1           0       31.970900   -0.751284    5.662333
     70          1           0       30.039877   -1.468210    5.591207
     71          1           0       29.368484   -0.028606    4.695588
     72          1           0       29.266051   -0.095776    6.419549
     73          1           0       33.008934   -4.855902    1.951018
     74          1           0       33.445580   -3.521463    3.091025
     75          1           0       34.253713   -3.842736    1.429170
     76          1           0       29.768918   -4.609145   -1.950310
     77          1           0       30.158964   -5.047320   -5.953318
     78          1           0       31.851773   -4.815257   -5.506160
     79          1           0       30.955567   -3.361136   -5.877575
     80         12           0      -30.615003   -0.637062   -0.297013
     81          6           0      -27.805780    1.561380   -0.325469
     82          6           0      -28.951264   -2.402312    1.967463
     83          6           0      -33.510276   -2.156821    0.556934
     84          6           0      -32.365507    1.995623   -1.941673
     85          7           0      -28.637642   -0.513334    0.578418
     86          6           0      -27.592920    0.414162    0.375143
     87          6           0      -26.314622    0.091531    1.211334
     88          6           0      -26.730098   -1.241874    1.895010
     89          6           0      -28.170961   -1.469073    1.390773
     90          6           0      -25.682516   -2.301298    1.514339
     91          6           0      -25.826657    1.179551    2.262498
     92          6           0      -24.484185    1.846505    1.985978
     93          1           0      -23.409518    1.763733    3.089204
     94          7           0      -31.159323   -2.111008    0.966867
     95          6           0      -30.282405   -2.729552    1.857754
     96          6           0      -30.915690   -3.805308    2.506868
     97          6           0      -32.211359   -3.889710    2.031553
     98          6           0      -32.378751   -2.731561    1.177129
     99          6           0      -30.319251   -4.810428    3.560850
    100          6           0      -33.168667   -4.984800    2.439757
    101          8           0      -32.865009   -5.929189    3.106148
    102          6           0      -34.638833   -4.891977    1.796576
    103          7           0      -32.659635   -0.127299   -0.572228
    104          6           0      -33.660620   -0.959021   -0.149936
    105          6           0      -35.029363   -0.218202   -0.441538
    106          6           0      -34.713462    1.001504   -1.323210
    107          6           0      -33.138007    0.985262   -1.275538
    108          6           0      -36.140606   -1.107862   -0.921777
    109          6           0      -35.225219    2.265587   -0.643761
    110          6           0      -35.494603    3.460056   -1.519922
    111          7           0      -30.142201    1.280099   -1.226072
    112          6           0      -30.947441    2.193401   -1.863787
    113          6           0      -30.172421    3.278188   -2.346166
    114          6           0      -28.861715    3.092017   -1.846559
    115          6           0      -28.957584    1.904091   -1.068087
    116          6           0      -30.648228    4.470372   -3.074903
    117          6           0      -27.483280    3.583183   -1.715863
    118          8           0      -26.962076    4.571565   -2.249688
    119          6           0      -26.715331    2.606829   -0.744453
    120          6           0      -25.728452    1.875844   -1.493717
    121          8           0      -26.058679    0.940321   -2.260347
    122          8           0      -24.529794    2.430377   -1.226227
    123          6           0      -23.302722    1.746326   -1.718554
    124          1           0      -28.418880   -3.028706    2.686732
    125          1           0      -34.417185   -2.713979    0.801428
    126          1           0      -32.822789    2.774681   -2.554667
    127          1           0      -25.475611   -0.096700    0.541533
    128          1           0      -26.788893   -1.174500    2.980912
    129          1           0      -26.067533   -3.260901    1.858124
    130          1           0      -24.689282   -2.164612    1.941801
    131          1           0      -25.527967   -2.363795    0.436577
    132          1           0      -25.636412    0.599638    3.165633
    133          1           0      -26.614311    1.913089    2.434956
    134          1           0      -24.685608    2.892124    1.750638
    135          1           0      -24.024407    1.376434    1.115931
    136          1           0      -30.998032   -4.776876    4.413286
    137          1           0      -29.319771   -4.518624    3.882952
    138          1           0      -30.136760   -5.823374    3.202143
    139          1           0      -35.147908   -5.806847    2.098345
    140          1           0      -34.432117   -4.813208    0.728995
    141          1           0      -35.019589   -3.973023    2.242174
    142          1           0      -35.336606    0.128217    0.545853
    143          1           0      -35.099862    0.985836   -2.342256
    144          1           0      -36.799302   -0.517924   -1.558528
    145          1           0      -36.649250   -1.459180   -0.023805
    146          1           0      -35.807138   -2.028467   -1.399298
    147          1           0      -34.580724    2.606666    0.166939
    148          1           0      -36.140291    2.087045   -0.079116
    149          1           0      -35.475307    3.220053   -2.582840
    150          1           0      -34.723435    4.202702   -1.314272
    151          1           0      -36.397973    3.978380   -1.198566
    152          1           0      -31.541640    4.254363   -3.661639
    153          1           0      -29.824302    4.759446   -3.727799
    154          1           0      -30.901955    5.197704   -2.303387
    155          1           0      -26.326733    3.074583    0.160158
    156          1           0      -22.670332    2.613100   -1.916072
    157          1           0      -23.467942    1.107992   -2.586003
    158          1           0      -22.762432    1.260573   -0.905308
 ---------------------------------------------------------------------

 SCF Done:  E(RwB97XD) =  -4070.60809020     A.U. after   19 cycles

 Excitation energies and oscillator strengths:

 Excited State   1:      Singlet-A      1.6460 eV  753.23 nm  f=0.3760  <S**2>=0.000
     309 -> 315       -0.19182
     312 -> 314        0.68167
     309 <- 315       -0.11821
 This state for optimization and/or second-order correction.
 Total Energy, E(TD-HF/TD-DFT) =  -4070.54759970
 Copying the excited state density for this state as the 1-particle RhoCI density.

 Excited State   2:      Singlet-A      1.6724 eV  741.36 nm  f=0.3903  <S**2>=0.000
     310 -> 316       -0.17581
     311 -> 313        0.68535
     310 <- 316       -0.11223

 Excited State   3:      Singlet-A      2.2043 eV  562.47 nm  f=0.1141  <S**2>=0.000
     310 -> 313        0.63532
     311 -> 316        0.29121

 Excited State   4:      Singlet-A      2.2139 eV  560.03 nm  f=0.0444  <S**2>=0.000
     309 -> 314        0.60810
     312 -> 315        0.34957

 Excited State   5:      Singlet-A      3.2884 eV  377.03 nm  f=0.0022  <S**2>=0.000
     302 -> 313       -0.11901
     308 -> 313        0.66484

 The electronic state is 1-A.
 Alpha  occ. eigenvalues --  -46.95614 -46.94891 -19.31725 -19.30883 -19.25219
 Alpha  occ. eigenvalues --  -19.24722 -19.24608 -19.24605 -19.24596 -19.23792
 Alpha  occ. eigenvalues --  -14.47201 -14.46921 -14.46804 -14.46797 -14.44194
 Alpha  occ. eigenvalues --  -14.44132 -14.44083 -14.43064 -10.43387 -10.43350
 Alpha  occ. eigenvalues --  -10.39754 -10.39502 -10.39441 -10.39425 -10.36602
 Alpha  occ. eigenvalues --  -10.36086 -10.35834 -10.35729 -10.35592 -10.35531
 Alpha  occ. eigenvalues --  -10.35123 -10.34911 -10.34627 -10.34539 -10.34447
 Alpha  occ. eigenvalues --  -10.34161 -10.33985 -10.33721 -10.33581 -10.33468
 Alpha  occ. eigenvalues --  -10.33072 -10.33030 -10.32800 -10.32657 -10.32469
 Alpha  occ. eigenvalues --  -10.32436 -10.32434 -10.32412 -10.32221 -10.32191
 Alpha  occ. eigenvalues --  -10.32027 -10.31993 -10.31990 -10.31965 -10.31824
 Alpha  occ. eigenvalues --  -10.31822 -10.31671 -10.31664 -10.31553 -10.31511
 Alpha  occ. eigenvalues --  -10.31445 -10.31423 -10.31417 -10.31356 -10.31303
 Alpha  occ. eigenvalues --  -10.31155 -10.31084 -10.31009 -10.30986 -10.30484
 Alpha  occ. eigenvalues --  -10.30455 -10.30361 -10.30348 -10.30293 -10.30264
 Alpha  occ. eigenvalues --  -10.30076 -10.29773 -10.29738 -10.29712 -10.29674
 Alpha  occ. eigenvalues --  -10.29439 -10.29324 -10.29284 -10.28991 -10.28876
 Alpha  occ. eigenvalues --  -10.28756  -3.21472  -3.20930  -1.95062  -1.94581
 Alpha  occ. eigenvalues --   -1.94496  -1.94441  -1.94034  -1.93922  -1.18827
 Alpha  occ. eigenvalues --   -1.18142  -1.14250  -1.12439  -1.11884  -1.10896
 Alpha  occ. eigenvalues --   -1.09669  -1.09576  -1.07148  -1.06172  -1.05798
 Alpha  occ. eigenvalues --   -1.05260  -1.04972  -1.04866  -1.03779  -1.03750
 Alpha  occ. eigenvalues --   -0.94350  -0.94182  -0.91533  -0.91233  -0.91053
 Alpha  occ. eigenvalues --   -0.90702  -0.90684  -0.89920  -0.89306  -0.89220
 Alpha  occ. eigenvalues --   -0.88864  -0.88651  -0.88440  -0.88248  -0.86738
 Alpha  occ. eigenvalues --   -0.86598  -0.86146  -0.85296  -0.85206  -0.84311
 Alpha  occ. eigenvalues --   -0.83854  -0.83490  -0.83198  -0.83125  -0.82280
 Alpha  occ. eigenvalues --   -0.81948  -0.80067  -0.79668  -0.79353  -0.79301
 Alpha  occ. eigenvalues --   -0.79151  -0.78632  -0.78186  -0.77745  -0.77118
 Alpha  occ. eigenvalues --   -0.76934  -0.74747  -0.74462  -0.74188  -0.73728
 Alpha  occ. eigenvalues --   -0.71809  -0.71264  -0.71238  -0.70535  -0.70340
 Alpha  occ. eigenvalues --   -0.69735  -0.69465  -0.69258  -0.67674  -0.67514
 Alpha  occ. eigenvalues --   -0.67275  -0.67024  -0.66966  -0.66693  -0.66582
 Alpha  occ. eigenvalues --   -0.66387  -0.64526  -0.64234  -0.62343  -0.62204
 Alpha  occ. eigenvalues --   -0.61630  -0.61407  -0.61402  -0.60927  -0.60788
 Alpha  occ. eigenvalues --   -0.60479  -0.60213  -0.59952  -0.59503  -0.59163
 Alpha  occ. eigenvalues --   -0.58397  -0.58011  -0.57925  -0.57494  -0.56984
 Alpha  occ. eigenvalues --   -0.56962  -0.56924  -0.56642  -0.56386  -0.56219
 Alpha  occ. eigenvalues --   -0.55789  -0.55477  -0.55170  -0.55139  -0.55119
 Alpha  occ. eigenvalues --   -0.54841  -0.54447  -0.54376  -0.54325  -0.54217
 Alpha  occ. eigenvalues --   -0.54104  -0.53927  -0.53648  -0.53471  -0.53412
 Alpha  occ. eigenvalues --   -0.53163  -0.53005  -0.52857  -0.52469  -0.52289
 Alpha  occ. eigenvalues --   -0.52098  -0.51950  -0.51843  -0.51770  -0.51590
 Alpha  occ. eigenvalues --   -0.51244  -0.51189  -0.50910  -0.50903  -0.50510
 Alpha  occ. eigenvalues --   -0.50485  -0.50416  -0.50403  -0.50181  -0.50102
 Alpha  occ. eigenvalues --   -0.49990  -0.49636  -0.49477  -0.49432  -0.49329
 Alpha  occ. eigenvalues --   -0.49194  -0.48910  -0.48821  -0.48721  -0.48384
 Alpha  occ. eigenvalues --   -0.48257  -0.48144  -0.48048  -0.47791  -0.47594
 Alpha  occ. eigenvalues --   -0.47530  -0.47261  -0.47134  -0.47072  -0.46901
 Alpha  occ. eigenvalues --   -0.46720  -0.46701  -0.46506  -0.46261  -0.46086
 Alpha  occ. eigenvalues --   -0.45872  -0.45761  -0.45456  -0.45437  -0.45268
 Alpha  occ. eigenvalues --   -0.45187  -0.45007  -0.44960  -0.44893  -0.44748
 Alpha  occ. eigenvalues --   -0.44733  -0.44533  -0.44320  -0.44245  -0.44084
 Alpha  occ. eigenvalues --   -0.44029  -0.43890  -0.43850  -0.43627  -0.43598
 Alpha  occ. eigenvalues --   -0.43570  -0.43460  -0.42709  -0.42527  -0.42423
 Alpha  occ. eigenvalues --   -0.42124  -0.42016  -0.41705  -0.41420  -0.41109
 Alpha  occ. eigenvalues --   -0.40409  -0.40140  -0.39866  -0.39595  -0.39543
 Alpha  occ. eigenvalues --   -0.39267  -0.39116  -0.38790  -0.38732  -0.38372
 Alpha  occ. eigenvalues --   -0.38289  -0.37953  -0.36643  -0.36252  -0.36220
 Alpha  occ. eigenvalues --   -0.36161  -0.35734  -0.35214  -0.34040  -0.33441
 Alpha  occ. eigenvalues --   -0.33143  -0.33002  -0.32985  -0.32753  -0.32681
 Alpha  occ. eigenvalues --   -0.32542  -0.32105  -0.31080  -0.26368  -0.26228
 Alpha  occ. eigenvalues --   -0.23084  -0.22780
 Alpha virt. eigenvalues --   -0.07111  -0.06850  -0.00482   0.00209   0.01787
 Alpha virt. eigenvalues --    0.02637   0.04208   0.04771   0.05038   0.05429
 Alpha virt. eigenvalues --    0.06740   0.06920   0.07207   0.07428   0.07787

 Mulliken charges:
               1
     1  Mg   0.932665
     2  C   -0.005183
     3  C   -0.105995
     4  C   -0.037122
     5  C   -0.077811
     6  N   -0.442730
     7  C   -0.001023
     8  C   -0.039766
     9  C   -0.135864
    10  C    0.130718
    11  C    0.033332
    12  C    0.069908
    13  C   -0.138344
    14  H    0.000493
    15  N   -0.460873
    16  C    0.169020
    17  C   -0.150514
    18  C   -0.078096
    19  C    0.134244
    20  C    0.056641
    21  C    0.061799
    22  O   -0.237540
    23  C   -0.054657
    24  N   -0.260439
    25  C    0.017883
    26  C   -0.075309
    27  C   -0.047599
    28  C    0.027339
    29  C   -0.001705
    30  C   -0.063208
    31  C   -0.056313
    32  N   -0.406527
    33  C    0.141338
    34  C   -0.241009
    35  C   -0.006313
    36  C    0.120099
    37  C    0.082689
    38  C    0.139221
    39  O   -0.194714
    40  C   -0.109473
    41  C    0.275688
    42  O   -0.259072
    43  O   -0.369979
    44  C    0.139909
    45  H    0.001497
    46  H    0.024249
    47  H    0.003070
    48  H    0.030699
    49  H    0.027176
    50  H    0.043617
    51  H    0.045672
    52  H    0.050292
    53  H    0.039592
    54  H    0.041761
    55  H    0.043892
    56  H    0.061530
    57  H    0.055368
    58  H    0.062229
    59  H    0.016779
    60  H    0.079278
    61  H    0.051756
    62  H    0.041949
    63  H    0.050151
    64  H    0.039078
    65  H    0.042695
    66  H    0.048647
    67  H    0.040735
    68  H    0.041663
    69  H    0.020576
    70  H    0.044564
    71  H    0.039797
    72  H    0.038680
    73  H    0.047129
    74  H    0.040290
    75  H    0.066247
    76  H    0.068447
    77  H    0.059490
    78  H    0.056231
    79  H    0.059368
    80  Mg   0.984624
    81  C   -0.043573
    82  C   -0.132102
    83  C   -0.102579
    84  C   -0.063393
    85  N   -0.377735
    86  C    0.011677
    87  C   -0.047425
    88  C   -0.123622
    89  C    0.121205
    90  C    0.014141
    91  C    0.012319
    92  C   -0.135558
    93  H    0.033897
    94  N   -0.504975
    95  C    0.212682
    96  C   -0.172256
    97  C   -0.054804
    98  C    0.150115
    99  C    0.106008
   100  C    0.008091
   101  O   -0.195274
   102  C   -0.027578
   103  N   -0.393331
   104  C    0.110648
   105  C   -0.081174
   106  C   -0.082628
   107  C    0.107968
   108  C    0.029366
   109  C   -0.045287
   110  C   -0.025534
   111  N   -0.385858
   112  C    0.093659
   113  C   -0.223130
   114  C    0.000677
   115  C    0.116286
   116  C    0.079610
   117  C    0.129050
   118  O   -0.222401
   119  C   -0.072471
   120  C    0.292560
   121  O   -0.279990
   122  O   -0.349487
   123  C    0.124687
   124  H   -0.016757
   125  H   -0.040280
   126  H   -0.012857
   127  H    0.028296
   128  H    0.045439
   129  H    0.027678
   130  H    0.042783
   131  H    0.043024
   132  H    0.041040
   133  H    0.048456
   134  H    0.069448
   135  H    0.032915
   136  H    0.061765
   137  H    0.011471
   138  H    0.062637
   139  H    0.058153
   140  H    0.066131
   141  H    0.068465
   142  H    0.046811
   143  H    0.038430
   144  H    0.041336
   145  H    0.031657
   146  H    0.038552
   147  H    0.030393
   148  H    0.021529
   149  H    0.036063
   150  H    0.030042
   151  H    0.032966
   152  H    0.030642
   153  H    0.066803
   154  H    0.060815
   155  H    0.055748
   156  H    0.061741
   157  H    0.085140
   158  H    0.056421
 Sum of Mulliken charges =  -0.00000

 Dipole moment (field-independent basis, Debye):
    X=             -5.0337    Y=              0.4941    Z=              0.6088  Tot=              5.0944
 Quadrupole moment (field-independent basis, Debye-Ang):
   XX=           -678.9247   YY=           -566.4015   ZZ=           -491.0594
   XY=             59.9090   XZ=            -28.3414   YZ=              3.3449

 Normal termination of Gaussian 16 at Sat Sep 18 11:25:53 2021.
