 Gaussian 16, Revision A.03,
 Gaussian 16:  ES64L-G16RevA.03 25-Dec-2016

 --------------------------------
 #p wB97XD/Def2SVP td=(nstates=5)
 --------------------------------

 --------------------------------
 TDDFT excited states in gaussian
 --------------------------------
 Symbolic Z-matrix:
 Charge =  0 Multiplicity = 1

                         Standard orientation:
 ---------------------------------------------------------------------
 Center     Atomic      Atomic             Coordinates (Angstroms)
 Number     Number       Type             X           Y           Z
 ---------------------------------------------------------------------
      1         12           0       10.877242   -0.435186   -0.134334
      2          6           0        8.161400    1.295939   -1.175548
      3          6           0       10.716871    1.164840    2.944454
      4          6           0       13.597394   -2.162282    0.904600
      5          6           0       11.330644   -1.655948   -3.341703
      6          7           0        9.528969    0.932584    0.728751
      7          6           0        8.483707    1.566522    0.139737
      8          6           0        7.657944    2.352113    1.124807
      9          6           0        8.631034    2.523392    2.352516
     10          6           0        9.695458    1.434684    1.995481
     11          6           0        9.222244    3.949818    2.713820
     12          6           0        6.351073    1.553949    1.570653
     13          6           0        5.218283    2.497300    2.072365
     14          1           0        5.521054    3.870415    2.695284
     15          7           0       12.092615   -0.463129    1.657443
     16          6           0       11.807369    0.297016    2.821922
     17          6           0       12.773080   -0.003824    3.835428
     18          6           0       13.658653   -0.980699    3.255403
     19          6           0       13.096101   -1.236080    1.881277
     20          6           0       12.748224    0.542625    5.219807
     21          6           0       14.878712   -1.661623    3.865465
     22          8           0       15.679600   -2.427871    3.253726
     23          6           0       15.216768   -1.414635    5.325916
     24          7           0       12.302859   -1.663476   -1.081972
     25          6           0       13.248175   -2.431391   -0.400168
     26          6           0       13.870590   -3.586502   -1.236581
     27          6           0       13.026982   -3.378499   -2.616014
     28          6           0       12.152850   -2.206040   -2.359243
     29          6           0       15.380074   -3.349116   -1.372782
     30          6           0       12.301010   -4.603727   -3.087934
     31          6           0       12.657825   -5.009126   -4.489466
     32          7           0       10.103333   -0.210614   -1.917875
     33          6           0       10.332497   -0.771238   -3.168256
     34          6           0        9.398235   -0.270061   -4.106832
     35          6           0        8.517231    0.600104   -3.410200
     36          6           0        8.908858    0.531361   -2.056523
     37          6           0        9.263570   -0.581663   -5.547902
     38          6           0        7.442559    1.557302   -3.556094
     39          8           0        6.811415    2.006333   -4.492837
     40          6           0        7.147508    1.977186   -2.038474
     41          6           0        6.852699    3.427349   -1.899508
     42          8           0        7.439761    4.334981   -2.430898
     43          8           0        5.792326    3.681218   -1.116969
     44          6           0        5.483554    5.129762   -0.948467
     45          1           0       10.680610    1.843125    3.799628
     46          1           0       14.546371   -2.608744    1.208574
     47          1           0       11.334212   -2.079937   -4.347947
     48          1           0        7.469460    3.372072    0.790180
     49          1           0        8.130460    2.137642    3.240036
     50          1           0        8.744456    4.673496    2.053331
     51          1           0       10.302044    4.078519    2.658517
     52          1           0        8.983930    4.125504    3.763011
     53          1           0        6.708692    0.862486    2.333801
     54          1           0        6.002550    0.996990    0.700837
     55          1           0        4.701817    1.868760    2.798063
     56          1           0        4.512361    2.586523    1.247068
     57          1           0       12.078776    0.038802    5.917089
     58          1           0       12.494960    1.596036    5.107060
     59          1           0       13.741085    0.656442    5.653964
     60          1           0       15.776218   -0.479527    5.347328
     61          1           0       15.876586   -2.236886    5.601671
     62          1           0       14.345498   -1.321639    5.974494
     63          1           0       13.719553   -4.494210   -0.652202
     64          1           0       13.726803   -3.116958   -3.410424
     65          1           0       15.745386   -2.386724   -1.013777
     66          1           0       15.683019   -3.585690   -2.392486
     67          1           0       15.852711   -4.065294   -0.699996
     68          1           0       11.219431   -4.474102   -3.128645
     69          1           0       12.434514   -5.483105   -2.457751
     70          1           0       12.896988   -6.068225   -4.581078
     71          1           0       13.525098   -4.458881   -4.853421
     72          1           0       11.816406   -4.659323   -5.088312
     73          1           0       10.187039   -0.826280   -6.073596
     74          1           0        9.065617    0.393709   -5.993319
     75          1           0        8.507204   -1.353000   -5.693384
     76          1           0        6.201890    1.442714   -1.943114
     77          1           0        4.976473    5.545276   -1.820441
     78          1           0        6.352649    5.695640   -0.612555
     79          1           0        4.775926    5.230902   -0.125221
     80         12           0      -10.985245   -0.532751    0.283602
     81          6           0       -9.019460    2.385584    0.078419
     82          6           0      -11.542552   -0.208407   -3.007120
     83          6           0      -12.347458   -3.495679    0.498183
     84          6           0       -9.619091   -0.952594    3.558937
     85          7           0      -10.300622    0.914259   -1.277394
     86          6           0       -9.586081    2.058828   -1.162796
     87          6           0       -9.456488    2.828000   -2.461864
     88          6           0      -10.529694    2.067602   -3.339905
     89          6           0      -10.834049    0.821697   -2.534104
     90          6           0      -11.840518    2.898301   -3.659314
     91          6           0       -8.064252    2.967760   -3.218855
     92          6           0       -6.857607    2.055094   -2.873657
     93          1           0       -5.878503    1.654400   -4.039662
     94          7           0      -11.957164   -1.619923   -1.108828
     95          6           0      -11.997662   -1.395783   -2.415403
     96          6           0      -12.657389   -2.551125   -3.082570
     97          6           0      -13.050080   -3.468864   -1.975907
     98          6           0      -12.428304   -2.870082   -0.794474
     99          6           0      -13.010631   -2.590865   -4.544943
    100          6           0      -13.790196   -4.771403   -2.132949
    101          8           0      -14.183077   -5.094787   -3.251151
    102          6           0      -14.060209   -5.811991   -0.984297
    103          7           0      -10.899860   -2.132243    1.826147
    104          6           0      -11.705842   -3.118620    1.634903
    105          6           0      -11.717888   -3.989617    2.969201
    106          6           0      -10.652172   -3.263807    3.792986
    107          6           0      -10.333073   -2.010493    3.000959
    108          6           0      -13.045070   -4.193791    3.718647
    109          6           0       -9.254021   -4.067103    3.895942
    110          6           0       -8.862742   -4.587466    5.291211
    111          7           0       -9.579360    0.409115    1.568384
    112          6           0       -9.225080    0.211792    2.876847
    113          6           0       -8.489642    1.390542    3.403850
    114          6           0       -8.262357    2.246334    2.289102
    115          6           0       -9.061413    1.617136    1.239080
    116          6           0       -7.878815    1.555733    4.813361
    117          6           0       -7.654664    3.434427    1.789734
    118          8           0       -6.828265    4.243793    2.244607
    119          6           0       -8.180507    3.625625    0.344341
    120          6           0       -8.898107    4.978091    0.309675
    121          8           0       -8.605851    6.044892   -0.161650
    122          8           0      -10.197530    4.780769    0.789344
    123          6           0      -11.137900    5.943291    0.743544
    124          1           0      -11.700503   -0.082102   -4.080402
    125          1           0      -12.851519   -4.464672    0.529505
    126          1           0       -9.431896   -0.972027    4.634258
    127          1           0       -9.858585    3.815370   -2.235609
    128          1           0      -10.092358    1.822302   -4.307830
    129          1           0      -11.817152    3.868304   -3.163811
    130          1           0      -12.593745    2.326892   -3.117979
    131          1           0      -11.983823    2.957006   -4.738413
    132          1           0       -7.751283    4.005896   -3.106640
    133          1           0       -8.236085    2.863996   -4.290749
    134          1           0       -7.289967    1.143002   -2.462190
    135          1           0       -6.119854    2.527058   -2.225486
    136          1           0      -13.717091   -3.381849   -4.795783
    137          1           0      -12.064396   -2.601651   -5.087187
    138          1           0      -13.401957   -1.591948   -4.740433
    139          1           0      -14.525286   -5.507569   -0.045918
    140          1           0      -13.097804   -6.199792   -0.650380
    141          1           0      -14.689361   -6.636481   -1.318448
    142          1           0      -11.434233   -5.022902    2.772161
    143          1           0      -10.869616   -3.013061    4.831812
    144          1           0      -13.878184   -3.710794    3.207775
    145          1           0      -12.976269   -3.867335    4.756875
    146          1           0      -13.358481   -5.236480    3.770447
    147          1           0       -8.410700   -3.449495    3.590000
    148          1           0       -9.345198   -4.897414    3.195343
    149          1           0       -7.793161   -4.609858    5.501473
    150          1           0       -9.194740   -5.625468    5.310003
    151          1           0       -9.378160   -3.903178    5.965261
    152          1           0       -7.825280    0.641428    5.403454
    153          1           0       -8.550899    2.255404    5.309609
    154          1           0       -6.919783    2.062666    4.709596
    155          1           0       -7.338121    3.641925   -0.346404
    156          1           0      -10.728767    6.948860    0.838732
    157          1           0      -11.750852    5.798971    1.633042
    158          1           0      -11.859604    5.996950   -0.071795
 ---------------------------------------------------------------------

 SCF Done:  E(RwB97XD) =  -4070.59450278     A.U. after   19 cycles

 Excitation energies and oscillator strengths:

 Excited State   1:      Singlet-A      1.5871 eV  781.18 nm  f=0.3834  <S**2>=0.000
     310 -> 316        0.17580
     312 -> 314        0.68654
     310 <- 316        0.11667
 This state for optimization and/or second-order correction.
 Total Energy, E(TD-HF/TD-DFT) =  -4070.53617649
 Copying the excited state density for this state as the 1-particle RhoCI density.

 Excited State   2:      Singlet-A      1.7155 eV  722.74 nm  f=0.4088  <S**2>=0.000
     309 -> 315        0.19060
     311 -> 313        0.68128
     309 <- 315        0.11534

 Excited State   3:      Singlet-A      2.1692 eV  571.57 nm  f=0.1098  <S**2>=0.000
     310 -> 314        0.63611
     312 -> 316       -0.29391

 Excited State   4:      Singlet-A      2.2306 eV  555.83 nm  f=0.0951  <S**2>=0.000
     309 -> 313        0.63460
     311 -> 315       -0.29954

 Excited State   5:      Singlet-A      3.5279 eV  351.44 nm  f=0.0000  <S**2>=0.000
     312 -> 313        0.70696

 The electronic state is 1-A.
 Alpha  occ. eigenvalues --  -46.96459 -46.93427 -19.30228 -19.29917 -19.25439
 Alpha  occ. eigenvalues --  -19.24665 -19.24190 -19.23620 -19.23568 -19.23488
 Alpha  occ. eigenvalues --  -14.47378 -14.46959 -14.46426 -14.46224 -14.45117
 Alpha  occ. eigenvalues --  -14.44765 -14.44038 -14.43324 -10.43828 -10.42292
 Alpha  occ. eigenvalues --  -10.39835 -10.39595 -10.39157 -10.39080 -10.35691
 Alpha  occ. eigenvalues --  -10.35646 -10.35616 -10.35294 -10.35193 -10.35173
 Alpha  occ. eigenvalues --  -10.34864 -10.34813 -10.34744 -10.34647 -10.34477
 Alpha  occ. eigenvalues --  -10.34444 -10.34223 -10.34114 -10.34046 -10.33872
 Alpha  occ. eigenvalues --  -10.33817 -10.33386 -10.33176 -10.33114 -10.32912
 Alpha  occ. eigenvalues --  -10.32904 -10.32881 -10.32817 -10.32761 -10.32205
 Alpha  occ. eigenvalues --  -10.32126 -10.32094 -10.32008 -10.31996 -10.31991
 Alpha  occ. eigenvalues --  -10.31831 -10.31810 -10.31741 -10.31687 -10.31673
 Alpha  occ. eigenvalues --  -10.31541 -10.31520 -10.31514 -10.31480 -10.31476
 Alpha  occ. eigenvalues --  -10.31364 -10.31197 -10.31172 -10.31074 -10.31025
 Alpha  occ. eigenvalues --  -10.30576 -10.30476 -10.30462 -10.30388 -10.30385
 Alpha  occ. eigenvalues --  -10.30070 -10.29897 -10.29679 -10.29637 -10.29575
 Alpha  occ. eigenvalues --  -10.29442 -10.29362 -10.29291 -10.29270 -10.29207
 Alpha  occ. eigenvalues --  -10.28864  -3.22388  -3.19678  -1.95964  -1.95508
 Alpha  occ. eigenvalues --   -1.95357  -1.93268  -1.92792  -1.92700  -1.19341
 Alpha  occ. eigenvalues --   -1.18301  -1.12292  -1.11782  -1.11694  -1.09575
 Alpha  occ. eigenvalues --   -1.09561  -1.09320  -1.08790  -1.06888  -1.06435
 Alpha  occ. eigenvalues --   -1.06109  -1.05525  -1.05375  -1.04650  -1.03348
 Alpha  occ. eigenvalues --   -0.95667  -0.95269  -0.91781  -0.91517  -0.90779
 Alpha  occ. eigenvalues --   -0.90654  -0.90508  -0.90339  -0.90257  -0.89519
 Alpha  occ. eigenvalues --   -0.89094  -0.88959  -0.88283  -0.87367  -0.86880
 Alpha  occ. eigenvalues --   -0.86159  -0.85891  -0.85630  -0.84824  -0.84281
 Alpha  occ. eigenvalues --   -0.83754  -0.83505  -0.82902  -0.82824  -0.82521
 Alpha  occ. eigenvalues --   -0.82388  -0.80528  -0.80238  -0.79692  -0.79630
 Alpha  occ. eigenvalues --   -0.79167  -0.78983  -0.78669  -0.78356  -0.77356
 Alpha  occ. eigenvalues --   -0.77077  -0.75388  -0.74798  -0.74427  -0.73734
 Alpha  occ. eigenvalues --   -0.71653  -0.71228  -0.70988  -0.70660  -0.70528
 Alpha  occ. eigenvalues --   -0.70032  -0.69548  -0.68836  -0.68597  -0.67704
 Alpha  occ. eigenvalues --   -0.67682  -0.67558  -0.67219  -0.66927  -0.66694
 Alpha  occ. eigenvalues --   -0.65991  -0.65236  -0.64213  -0.62645  -0.62260
 Alpha  occ. eigenvalues --   -0.62260  -0.61793  -0.61502  -0.60847  -0.60579
 Alpha  occ. eigenvalues --   -0.60286  -0.60136  -0.59869  -0.59638  -0.59306
 Alpha  occ. eigenvalues --   -0.58399  -0.58000  -0.57912  -0.57698  -0.57226
 Alpha  occ. eigenvalues --   -0.57070  -0.57061  -0.56911  -0.56561  -0.55968
 Alpha  occ. eigenvalues --   -0.55771  -0.55644  -0.55183  -0.54958  -0.54874
 Alpha  occ. eigenvalues --   -0.54769  -0.54732  -0.54352  -0.54292  -0.54017
 Alpha  occ. eigenvalues --   -0.54014  -0.53821  -0.53701  -0.53588  -0.53272
 Alpha  occ. eigenvalues --   -0.53165  -0.53069  -0.53001  -0.52585  -0.52169
 Alpha  occ. eigenvalues --   -0.51993  -0.51918  -0.51862  -0.51796  -0.51510
 Alpha  occ. eigenvalues --   -0.51507  -0.51042  -0.50870  -0.50842  -0.50694
 Alpha  occ. eigenvalues --   -0.50529  -0.50503  -0.50285  -0.50227  -0.50035
 Alpha  occ. eigenvalues --   -0.49854  -0.49828  -0.49678  -0.49581  -0.49427
 Alpha  occ. eigenvalues --   -0.49260  -0.49161  -0.49049  -0.48929  -0.48628
 Alpha  occ. eigenvalues --   -0.48541  -0.48460  -0.48280  -0.48206  -0.48094
 Alpha  occ. eigenvalues --   -0.47821  -0.47748  -0.47541  -0.47347  -0.47052
 Alpha  occ. eigenvalues --   -0.46831  -0.46770  -0.46629  -0.46390  -0.46172
 Alpha  occ. eigenvalues --   -0.45950  -0.45912  -0.45743  -0.45567  -0.45368
 Alpha  occ. eigenvalues --   -0.45309  -0.45138  -0.45136  -0.45036  -0.44626
 Alpha  occ. eigenvalues --   -0.44303  -0.44278  -0.44168  -0.44088  -0.44042
 Alpha  occ. eigenvalues --   -0.43841  -0.43776  -0.43409  -0.43224  -0.43170
 Alpha  occ. eigenvalues --   -0.42894  -0.42889  -0.42744  -0.42648  -0.42419
 Alpha  occ. eigenvalues --   -0.42233  -0.42178  -0.41935  -0.41857  -0.41197
 Alpha  occ. eigenvalues --   -0.40803  -0.40184  -0.40096  -0.39800  -0.39768
 Alpha  occ. eigenvalues --   -0.39548  -0.39087  -0.38928  -0.38894  -0.38765
 Alpha  occ. eigenvalues --   -0.38528  -0.38299  -0.37112  -0.36540  -0.36311
 Alpha  occ. eigenvalues --   -0.36118  -0.35914  -0.35326  -0.34145  -0.33598
 Alpha  occ. eigenvalues --   -0.33545  -0.33328  -0.32912  -0.32729  -0.32579
 Alpha  occ. eigenvalues --   -0.32057  -0.31677  -0.31470  -0.26471  -0.26153
 Alpha  occ. eigenvalues --   -0.23393  -0.22758
 Alpha virt. eigenvalues --   -0.07316  -0.07246  -0.00178   0.00377   0.01361
 Alpha virt. eigenvalues --    0.02243   0.03803   0.04416   0.04472   0.06202
 Alpha virt. eigenvalues --    0.06779   0.07167   0.07579   0.07926   0.07938

 Mulliken charges:
               1
     1  Mg   0.985476
     2  C    0.012920
     3  C   -0.095385
     4  C   -0.062562
     5  C   -0.128360
     6  N   -0.378437
     7  C   -0.008447
     8  C   -0.043490
     9  C   -0.121923
    10  C    0.057816
    11  C    0.021160
    12  C    0.005377
    13  C   -0.092487
    14  H    0.043851
    15  N   -0.389558
    16  C    0.164009
    17  C   -0.155411
    18  C   -0.073951
    19  C    0.100035
    20  C    0.064838
    21  C    0.052891
    22  O   -0.274900
    23  C   -0.022251
    24  N   -0.391984
    25  C    0.057802
    26  C   -0.092172
    27  C   -0.027242
    28  C    0.109100
    29  C    0.009057
    30  C   -0.008431
    31  C   -0.062932
    32  N   -0.527570
    33  C    0.189916
    34  C   -0.191490
    35  C   -0.054909
    36  C    0.141564
    37  C    0.072801
    38  C    0.153174
    39  O   -0.182914
    40  C   -0.107157
    41  C    0.224467
    42  O   -0.229969
    43  O   -0.358750
    44  C    0.140631
    45  H   -0.003517
    46  H    0.017095
    47  H   -0.017015
    48  H    0.024876
    49  H    0.035480
    50  H    0.042583
    51  H    0.048240
    52  H    0.037285
    53  H    0.035393
    54  H    0.041414
    55  H    0.044288
    56  H    0.061174
    57  H    0.073717
    58  H    0.034916
    59  H    0.031776
    60  H    0.066633
    61  H    0.059029
    62  H    0.050422
    63  H    0.055912
    64  H    0.035204
    65  H    0.060714
    66  H    0.037116
    67  H    0.041252
    68  H    0.033234
    69  H    0.028164
    70  H    0.043673
    71  H    0.022278
    72  H    0.037650
    73  H    0.026818
    74  H    0.061523
    75  H    0.068345
    76  H    0.069484
    77  H    0.071133
    78  H    0.058306
    79  H    0.041196
    80  Mg   0.957784
    81  C   -0.036496
    82  C   -0.091588
    83  C   -0.036467
    84  C   -0.103873
    85  N   -0.341126
    86  C   -0.037700
    87  C    0.005183
    88  C   -0.158318
    89  C    0.057919
    90  C    0.033610
    91  C    0.002341
    92  C   -0.150415
    93  H    0.027794
    94  N   -0.476278
    95  C    0.164693
    96  C   -0.173169
    97  C   -0.081359
    98  C    0.167556
    99  C    0.085872
   100  C    0.055573
   101  O   -0.240200
   102  C   -0.027136
   103  N   -0.273861
   104  C    0.045864
   105  C   -0.055797
   106  C   -0.125954
   107  C    0.077282
   108  C    0.014294
   109  C   -0.041810
   110  C   -0.039875
   111  N   -0.401965
   112  C    0.126960
   113  C   -0.186408
   114  C   -0.008921
   115  C    0.160840
   116  C    0.075242
   117  C    0.093649
   118  O   -0.218594
   119  C   -0.083104
   120  C    0.279556
   121  O   -0.209471
   122  O   -0.398050
   123  C    0.134870
   124  H   -0.010661
   125  H   -0.053729
   126  H    0.002442
   127  H    0.040938
   128  H    0.037297
   129  H    0.035464
   130  H    0.038044
   131  H    0.055062
   132  H    0.045399
   133  H    0.044947
   134  H    0.072739
   135  H    0.074182
   136  H    0.077798
   137  H    0.041254
   138  H    0.037053
   139  H    0.056522
   140  H    0.057133
   141  H    0.052496
   142  H    0.035501
   143  H    0.023111
   144  H    0.033320
   145  H    0.035956
   146  H    0.027143
   147  H    0.043159
   148  H    0.025268
   149  H    0.043459
   150  H    0.037855
   151  H    0.028119
   152  H    0.042611
   153  H    0.054925
   154  H    0.069299
   155  H    0.068896
   156  H    0.065898
   157  H    0.044798
   158  H    0.047356
 Sum of Mulliken charges =  -0.00000

 Dipole moment (field-independent basis, Debye):
    X=             -4.4295    Y=             -2.8949    Z=              7.2719  Tot=              8.9934
 Quadrupole moment (field-independent basis, Debye-Ang):
   XX=           -509.4888   YY=           -521.6866   ZZ=           -491.7821
   XY=            -24.8788   XZ=            -19.1043   YZ=              2.9123

 Normal termination of Gaussian 16 at Mon Sep 20 00:15:14 2021.
