 Gaussian 16, Revision A.03,
 Gaussian 16:  ES64L-G16RevA.03 25-Dec-2016

 --------------------------------
 #p wB97XD/Def2SVP td=(nstates=5)
 --------------------------------

 --------------------------------
 TDDFT excited states in gaussian
 --------------------------------
 Symbolic Z-matrix:
 Charge =  0 Multiplicity = 1

                         Standard orientation:
 ---------------------------------------------------------------------
 Center     Atomic      Atomic             Coordinates (Angstroms)
 Number     Number       Type             X           Y           Z
 ---------------------------------------------------------------------
      1         12           0       24.255323   -0.722753    0.273824
      2          6           0       24.725564    2.403981   -1.168312
      3          6           0       25.135950    0.544609    3.268452
      4          6           0       24.555503   -3.866572    1.484372
      5          6           0       24.164043   -2.122272   -2.979907
      6          7           0       24.753285    1.255183    0.881451
      7          6           0       24.754205    2.461520    0.215662
      8          6           0       25.151411    3.614130    1.178579
      9          6           0       25.775587    2.816702    2.365039
     10          6           0       25.093562    1.463037    2.231692
     11          6           0       27.335354    2.656778    2.300638
     12          6           0       23.916734    4.513632    1.371104
     13          6           0       24.211614    5.965183    1.351078
     14          1           0       23.062381    6.824252    1.072908
     15          7           0       24.553427   -1.495315    2.161808
     16          6           0       24.842471   -0.781809    3.280671
     17          6           0       24.648956   -1.634165    4.426759
     18          6           0       24.470040   -2.959859    3.889489
     19          6           0       24.607631   -2.822723    2.436584
     20          6           0       24.774760   -1.167171    5.832642
     21          6           0       24.341269   -4.349251    4.594853
     22          8           0       24.182789   -5.402306    3.974011
     23          6           0       24.259743   -4.458883    6.091818
     24          7           0       24.689775   -2.697769   -0.687442
     25          6           0       24.625999   -3.880694    0.098440
     26          6           0       24.568888   -5.131605   -0.714432
     27          6           0       24.224213   -4.488894   -2.097205
     28          6           0       24.298776   -2.977115   -1.899982
     29          6           0       25.885587   -5.979307   -0.683605
     30          6           0       22.801456   -4.887848   -2.634924
     31          6           0       21.626349   -4.678100   -1.646236
     32          7           0       24.301087   -0.037440   -1.685650
     33          6           0       24.202981   -0.716454   -2.909999
     34          6           0       24.261596    0.269334   -3.923414
     35          6           0       24.435213    1.485402   -3.274360
     36          6           0       24.463240    1.237941   -1.941505
     37          6           0       24.105680    0.017500   -5.389335
     38          6           0       24.662314    2.835566   -3.499259
     39          8           0       24.752411    3.453921   -4.575533
     40          6           0       24.861824    3.583256   -2.146492
     41          6           0       23.703754    4.629373   -2.137705
     42          8           0       22.493149    4.365076   -2.028725
     43          8           0       24.265819    5.893710   -2.277413
     44          6           0       23.354781    7.050145   -2.551679
     45          1           0       25.526057    1.048351    4.155395
     46          1           0       24.495701   -4.936679    1.696922
     47          1           0       23.931245   -2.471003   -3.988252
     48          1           0       25.869879    4.277473    0.698217
     49          1           0       25.449357    3.262217    3.304355
     50          1           0       27.839052    3.178561    1.486422
     51          1           0       27.605358    1.620816    2.099768
     52          1           0       27.765696    3.066986    3.213993
     53          1           0       23.570281    4.318479    2.385023
     54          1           0       23.184757    4.236012    0.612177
     55          1           0       24.908717    6.110628    0.525691
     56          1           0       24.735096    6.223855    2.271279
     57          1           0       24.682084   -0.083550    5.902738
     58          1           0       25.650520   -1.645883    6.272087
     59          1           0       23.927738   -1.537928    6.409976
     60          1           0       24.615861   -5.466416    6.307864
     61          1           0       23.225662   -4.390033    6.430296
     62          1           0       24.916502   -3.746002    6.591351
     63          1           0       23.752731   -5.801028   -0.439063
     64          1           0       24.981645   -4.791512   -2.820987
     65          1           0       26.712138   -5.336482   -0.379601
     66          1           0       26.191263   -6.445717   -1.620288
     67          1           0       25.894775   -6.821741    0.008602
     68          1           0       22.896182   -5.915150   -2.987160
     69          1           0       22.700213   -4.289404   -3.540242
     70          1           0       20.869278   -3.995401   -2.032584
     71          1           0       22.061434   -4.297520   -0.721716
     72          1           0       21.104878   -5.605297   -1.410480
     73          1           0       25.003523    0.423904   -5.854882
     74          1           0       23.184367    0.502250   -5.712258
     75          1           0       24.083571   -1.031466   -5.685027
     76          1           0       25.814003    4.111453   -2.188406
     77          1           0       22.851471    6.820527   -3.490584
     78          1           0       23.804873    8.037823   -2.651243
     79          1           0       22.729905    6.935395   -1.665936
     80         12           0      -24.880033   -0.429084   -0.257912
     81          6           0      -22.933707    2.507618   -0.235828
     82          6           0      -27.034308    1.035874    1.920090
     83          6           0      -26.646618   -3.313192   -0.225567
     84          6           0      -22.395585   -1.984055   -2.120201
     85          7           0      -24.925739    1.473806    0.791490
     86          6           0      -24.089469    2.569493    0.560649
     87          6           0      -24.634883    3.770129    1.273789
     88          6           0      -25.609690    3.136924    2.294854
     89          6           0      -25.883702    1.769428    1.617462
     90          6           0      -25.084249    2.907007    3.747039
     91          6           0      -25.318138    4.859005    0.363586
     92          6           0      -24.888124    6.262765    0.648808
     93          1           0      -26.003541    7.322079    0.724203
     94          7           0      -26.614682   -0.981021    0.615651
     95          6           0      -27.442486   -0.194833    1.434305
     96          6           0      -28.599660   -0.916799    1.785969
     97          6           0      -28.531765   -2.245404    1.151521
     98          6           0      -27.265019   -2.221502    0.477481
     99          6           0      -29.649618   -0.470995    2.761250
    100          6           0      -29.485917   -3.516257    1.209973
    101          8           0      -29.231587   -4.512647    0.575763
    102          6           0      -30.796589   -3.477278    1.982752
    103          7           0      -24.504187   -2.407347   -0.972531
    104          6           0      -25.399084   -3.415088   -0.804850
    105          6           0      -24.829525   -4.771555   -1.441999
    106          6           0      -23.599116   -4.264250   -2.314265
    107          6           0      -23.469422   -2.776281   -1.775073
    108          6           0      -24.408680   -5.880508   -0.438391
    109          6           0      -23.837978   -4.326874   -3.864966
    110          6           0      -22.757339   -5.057076   -4.545198
    111          7           0      -23.019039    0.103482   -0.989800
    112          6           0      -22.163037   -0.606701   -1.830205
    113          6           0      -21.041021    0.215869   -2.192304
    114          6           0      -21.288721    1.422882   -1.570904
    115          6           0      -22.466233    1.338102   -0.897222
    116          6           0      -19.931238   -0.266868   -3.162305
    117          6           0      -20.765941    2.756099   -1.334775
    118          8           0      -19.683746    3.199562   -1.650162
    119          6           0      -21.834125    3.528286   -0.412187
    120          6           0      -21.175095    3.938239    0.841401
    121          8           0      -20.618227    3.146397    1.646374
    122          8           0      -21.244875    5.297058    0.939178
    123          6           0      -20.309911    5.888470    1.932704
    124          1           0      -27.657918    1.554862    2.650940
    125          1           0      -27.143783   -4.284852   -0.254271
    126          1           0      -21.593032   -2.506904   -2.643635
    127          1           0      -23.906278    4.280377    1.904938
    128          1           0      -26.528485    3.707598    2.431035
    129          1           0      -24.378554    3.665926    4.087403
    130          1           0      -24.632089    1.915056    3.765868
    131          1           0      -25.848851    2.797061    4.515639
    132          1           0      -26.388586    4.711909    0.505855
    133          1           0      -25.171220    4.645923   -0.695642
    134          1           0      -24.195591    6.438130   -0.174596
    135          1           0      -24.426547    6.309871    1.635042
    136          1           0      -30.603733   -0.173752    2.325480
    137          1           0      -29.314012    0.440753    3.253754
    138          1           0      -29.927246   -1.148162    3.568559
    139          1           0      -31.307517   -4.407624    1.737779
    140          1           0      -31.347685   -2.555548    1.793906
    141          1           0      -30.594636   -3.304031    3.040182
    142          1           0      -25.612593   -5.269368   -2.014146
    143          1           0      -22.719471   -4.845944   -2.034662
    144          1           0      -24.460461   -5.623228    0.620055
    145          1           0      -23.386495   -6.228452   -0.589376
    146          1           0      -25.070387   -6.728549   -0.616659
    147          1           0      -23.818590   -3.310243   -4.259395
    148          1           0      -24.759319   -4.826965   -4.162822
    149          1           0      -23.098908   -6.072926   -4.745631
    150          1           0      -21.765522   -5.078123   -4.094970
    151          1           0      -22.515020   -4.552357   -5.480485
    152          1           0      -20.294395   -1.137754   -3.708513
    153          1           0      -18.975620   -0.386547   -2.649792
    154          1           0      -19.848162    0.539538   -3.889988
    155          1           0      -22.244537    4.402497   -0.918213
    156          1           0      -20.321554    6.975972    1.861788
    157          1           0      -19.316609    5.601999    1.586496
    158          1           0      -20.574402    5.465590    2.902293
 ---------------------------------------------------------------------

 SCF Done:  E(RwB97XD) =  -4070.63500954     A.U. after   19 cycles

 Excitation energies and oscillator strengths:

 Excited State   1:      Singlet-A      1.6039 eV  773.03 nm  f=0.3765  <S**2>=0.000
     309 -> 315       -0.16817
     312 -> 314        0.68668
     309 <- 315       -0.11353
 This state for optimization and/or second-order correction.
 Total Energy, E(TD-HF/TD-DFT) =  -4070.57606855
 Copying the excited state density for this state as the 1-particle RhoCI density.

 Excited State   2:      Singlet-A      1.6894 eV  733.90 nm  f=0.3952  <S**2>=0.000
     310 -> 316        0.18340
     311 -> 313        0.68255
     310 <- 316        0.11555

 Excited State   3:      Singlet-A      2.1431 eV  578.53 nm  f=0.1529  <S**2>=0.000
     310 -> 313        0.65152
     311 -> 316       -0.25245

 Excited State   4:      Singlet-A      2.1619 eV  573.49 nm  f=0.1259  <S**2>=0.000
     309 -> 314        0.64158
     312 -> 315        0.27543

 Excited State   5:      Singlet-A      3.1999 eV  387.47 nm  f=0.0021  <S**2>=0.000
     304 -> 313        0.29708
     307 -> 313        0.62275

 The electronic state is 1-A.
 Alpha  occ. eigenvalues --  -46.94649 -46.93541 -19.30870 -19.29970 -19.24964
 Alpha  occ. eigenvalues --  -19.24931 -19.24472 -19.24065 -19.23720 -19.22735
 Alpha  occ. eigenvalues --  -14.46669 -14.46542 -14.46090 -14.46055 -14.43966
 Alpha  occ. eigenvalues --  -14.43899 -14.43147 -14.43092 -10.43922 -10.43276
 Alpha  occ. eigenvalues --  -10.40354 -10.39218 -10.39034 -10.37651 -10.35907
 Alpha  occ. eigenvalues --  -10.35709 -10.35067 -10.34995 -10.34732 -10.34687
 Alpha  occ. eigenvalues --  -10.34647 -10.34538 -10.34418 -10.34318 -10.34212
 Alpha  occ. eigenvalues --  -10.34197 -10.34004 -10.33350 -10.33148 -10.33143
 Alpha  occ. eigenvalues --  -10.33077 -10.32611 -10.32385 -10.32324 -10.32319
 Alpha  occ. eigenvalues --  -10.32190 -10.32179 -10.32149 -10.32033 -10.31956
 Alpha  occ. eigenvalues --  -10.31844 -10.31825 -10.31814 -10.31800 -10.31782
 Alpha  occ. eigenvalues --  -10.31695 -10.31669 -10.31585 -10.31570 -10.31474
 Alpha  occ. eigenvalues --  -10.31228 -10.31194 -10.31036 -10.31025 -10.30894
 Alpha  occ. eigenvalues --  -10.30769 -10.30626 -10.30509 -10.30418 -10.30348
 Alpha  occ. eigenvalues --  -10.30309 -10.30228 -10.29969 -10.29952 -10.29944
 Alpha  occ. eigenvalues --  -10.29850 -10.29764 -10.29670 -10.29651 -10.29617
 Alpha  occ. eigenvalues --  -10.29603 -10.29378 -10.29181 -10.28435 -10.28336
 Alpha  occ. eigenvalues --  -10.27798  -3.20678  -3.19675  -1.94247  -1.93807
 Alpha  occ. eigenvalues --   -1.93651  -1.93276  -1.92793  -1.92675  -1.17929
 Alpha  occ. eigenvalues --   -1.16579  -1.13955  -1.12542  -1.11642  -1.10172
 Alpha  occ. eigenvalues --   -1.08848  -1.08512  -1.06948  -1.06840  -1.05903
 Alpha  occ. eigenvalues --   -1.05503  -1.05346  -1.04568  -1.04215  -1.03506
 Alpha  occ. eigenvalues --   -0.94540  -0.94528  -0.91069  -0.90997  -0.90897
 Alpha  occ. eigenvalues --   -0.90551  -0.90435  -0.89934  -0.89687  -0.89056
 Alpha  occ. eigenvalues --   -0.88959  -0.88453  -0.88379  -0.87764  -0.86471
 Alpha  occ. eigenvalues --   -0.86212  -0.85700  -0.85423  -0.84809  -0.84049
 Alpha  occ. eigenvalues --   -0.84036  -0.83498  -0.83140  -0.82918  -0.82631
 Alpha  occ. eigenvalues --   -0.82328  -0.80229  -0.80131  -0.79240  -0.78965
 Alpha  occ. eigenvalues --   -0.78838  -0.78686  -0.77939  -0.77646  -0.77372
 Alpha  occ. eigenvalues --   -0.76826  -0.75221  -0.74862  -0.73981  -0.72913
 Alpha  occ. eigenvalues --   -0.71685  -0.70728  -0.70600  -0.70023  -0.69518
 Alpha  occ. eigenvalues --   -0.69498  -0.68523  -0.68466  -0.67458  -0.67307
 Alpha  occ. eigenvalues --   -0.67098  -0.66583  -0.66569  -0.66432  -0.66049
 Alpha  occ. eigenvalues --   -0.66020  -0.63932  -0.63575  -0.62337  -0.62094
 Alpha  occ. eigenvalues --   -0.61853  -0.61737  -0.61251  -0.61113  -0.60414
 Alpha  occ. eigenvalues --   -0.60148  -0.59689  -0.59588  -0.59540  -0.58941
 Alpha  occ. eigenvalues --   -0.58183  -0.57924  -0.57641  -0.57543  -0.57418
 Alpha  occ. eigenvalues --   -0.57246  -0.56949  -0.56887  -0.56704  -0.55716
 Alpha  occ. eigenvalues --   -0.55533  -0.55420  -0.55385  -0.54945  -0.54874
 Alpha  occ. eigenvalues --   -0.54747  -0.54569  -0.54500  -0.54359  -0.53834
 Alpha  occ. eigenvalues --   -0.53824  -0.53745  -0.53613  -0.53513  -0.53373
 Alpha  occ. eigenvalues --   -0.52969  -0.52808  -0.52443  -0.52398  -0.52254
 Alpha  occ. eigenvalues --   -0.52054  -0.51743  -0.51535  -0.51358  -0.51347
 Alpha  occ. eigenvalues --   -0.51316  -0.51108  -0.51074  -0.50797  -0.50665
 Alpha  occ. eigenvalues --   -0.50645  -0.50429  -0.50006  -0.49890  -0.49883
 Alpha  occ. eigenvalues --   -0.49617  -0.49581  -0.49301  -0.49167  -0.48980
 Alpha  occ. eigenvalues --   -0.48755  -0.48570  -0.48497  -0.48384  -0.48184
 Alpha  occ. eigenvalues --   -0.48063  -0.47868  -0.47776  -0.47676  -0.47622
 Alpha  occ. eigenvalues --   -0.47371  -0.47317  -0.46988  -0.46691  -0.46586
 Alpha  occ. eigenvalues --   -0.46523  -0.46402  -0.46383  -0.46285  -0.46054
 Alpha  occ. eigenvalues --   -0.45662  -0.45359  -0.45355  -0.45352  -0.45257
 Alpha  occ. eigenvalues --   -0.45096  -0.44980  -0.44863  -0.44786  -0.44577
 Alpha  occ. eigenvalues --   -0.44572  -0.44300  -0.44280  -0.43873  -0.43837
 Alpha  occ. eigenvalues --   -0.43788  -0.43732  -0.43488  -0.43136  -0.43034
 Alpha  occ. eigenvalues --   -0.42880  -0.42786  -0.42585  -0.42347  -0.42133
 Alpha  occ. eigenvalues --   -0.41965  -0.41843  -0.41044  -0.41033  -0.40732
 Alpha  occ. eigenvalues --   -0.40275  -0.40160  -0.39946  -0.39898  -0.39756
 Alpha  occ. eigenvalues --   -0.39265  -0.38867  -0.38766  -0.38519  -0.38404
 Alpha  occ. eigenvalues --   -0.38062  -0.37918  -0.36235  -0.36144  -0.36102
 Alpha  occ. eigenvalues --   -0.36082  -0.35448  -0.35376  -0.33744  -0.33515
 Alpha  occ. eigenvalues --   -0.33483  -0.32831  -0.32715  -0.32161  -0.32027
 Alpha  occ. eigenvalues --   -0.31893  -0.31750  -0.31516  -0.26137  -0.25883
 Alpha  occ. eigenvalues --   -0.23340  -0.22978
 Alpha virt. eigenvalues --   -0.07370  -0.07333   0.00454   0.00640   0.02627
 Alpha virt. eigenvalues --    0.02782   0.04486   0.04872   0.05424   0.06475
 Alpha virt. eigenvalues --    0.06696   0.07157   0.07448   0.08047   0.08659

 Mulliken charges:
               1
     1  Mg   0.955898
     2  C   -0.066793
     3  C   -0.119113
     4  C   -0.021003
     5  C   -0.102725
     6  N   -0.406856
     7  C    0.019994
     8  C   -0.101563
     9  C   -0.087859
    10  C    0.034073
    11  C    0.034884
    12  C    0.039830
    13  C   -0.123625
    14  H    0.052841
    15  N   -0.463777
    16  C    0.229396
    17  C   -0.175515
    18  C   -0.078362
    19  C    0.188321
    20  C    0.069086
    21  C    0.055819
    22  O   -0.248568
    23  C   -0.006216
    24  N   -0.316581
    25  C   -0.057295
    26  C   -0.058133
    27  C   -0.099779
    28  C    0.111837
    29  C    0.018232
    30  C   -0.021873
    31  C   -0.053891
    32  N   -0.434882
    33  C    0.117016
    34  C   -0.197898
    35  C    0.054021
    36  C    0.194144
    37  C    0.092995
    38  C    0.016682
    39  O   -0.242779
    40  C   -0.028804
    41  C    0.287584
    42  O   -0.268732
    43  O   -0.389789
    44  C    0.142329
    45  H   -0.000939
    46  H    0.018639
    47  H    0.002583
    48  H    0.020106
    49  H    0.019451
    50  H    0.035597
    51  H    0.053062
    52  H    0.043453
    53  H    0.021643
    54  H    0.065581
    55  H    0.039912
    56  H    0.040139
    57  H    0.041089
    58  H    0.067704
    59  H    0.043168
    60  H    0.054686
    61  H    0.075070
    62  H    0.027208
    63  H    0.045806
    64  H    0.030920
    65  H    0.039583
    66  H    0.032767
    67  H    0.042646
    68  H    0.031238
    69  H    0.022908
    70  H    0.046473
    71  H    0.045737
    72  H    0.042288
    73  H    0.058127
    74  H    0.068019
    75  H    0.019614
    76  H    0.066922
    77  H    0.068320
    78  H    0.069542
    79  H    0.058361
    80  Mg   0.978497
    81  C   -0.032860
    82  C   -0.099783
    83  C   -0.063555
    84  C   -0.089467
    85  N   -0.322062
    86  C    0.015216
    87  C   -0.082376
    88  C   -0.128383
    89  C    0.030539
    90  C    0.020662
    91  C    0.044946
    92  C   -0.121266
    93  H    0.030814
    94  N   -0.522906
    95  C    0.242066
    96  C   -0.149301
    97  C   -0.081277
    98  C    0.154381
    99  C    0.041926
   100  C    0.076167
   101  O   -0.213759
   102  C   -0.007635
   103  N   -0.359272
   104  C    0.071664
   105  C   -0.108333
   106  C   -0.079693
   107  C    0.063540
   108  C    0.008312
   109  C    0.027452
   110  C   -0.074077
   111  N   -0.443996
   112  C    0.130146
   113  C   -0.214807
   114  C    0.007954
   115  C    0.121722
   116  C    0.094259
   117  C    0.108400
   118  O   -0.190828
   119  C   -0.041888
   120  C    0.275535
   121  O   -0.281930
   122  O   -0.372033
   123  C    0.141510
   124  H   -0.011124
   125  H    0.021684
   126  H   -0.003606
   127  H    0.026660
   128  H    0.025652
   129  H    0.045043
   130  H    0.043249
   131  H    0.033134
   132  H    0.030098
   133  H    0.030093
   134  H    0.065297
   135  H    0.054114
   136  H    0.051087
   137  H    0.023062
   138  H    0.045337
   139  H    0.070848
   140  H    0.046646
   141  H    0.048673
   142  H    0.037849
   143  H    0.037772
   144  H    0.044158
   145  H    0.029747
   146  H    0.037019
   147  H    0.035367
   148  H    0.037548
   149  H    0.038907
   150  H    0.028203
   151  H    0.026681
   152  H    0.030853
   153  H    0.066467
   154  H    0.049400
   155  H    0.057586
   156  H    0.060440
   157  H    0.064183
   158  H    0.067656
 Sum of Mulliken charges =  -0.00000

 Dipole moment (field-independent basis, Debye):
    X=             -3.2421    Y=              0.7438    Z=              5.0377  Tot=              6.0368
 Quadrupole moment (field-independent basis, Debye-Ang):
   XX=           -275.0340   YY=           -483.0407   ZZ=           -486.0053
   XY=            -32.0096   XZ=             42.9869   YZ=             44.3102

 Normal termination of Gaussian 16 at Sun Sep 19 07:42:13 2021.
