 Gaussian 16, Revision A.03,
 Gaussian 16:  ES64L-G16RevA.03 25-Dec-2016

 --------------------------------
 #p wB97XD/Def2SVP td=(nstates=5)
 --------------------------------

 --------------------------------
 TDDFT excited states in gaussian
 --------------------------------
 Symbolic Z-matrix:
 Charge =  0 Multiplicity = 1

                         Standard orientation:
 ---------------------------------------------------------------------
 Center     Atomic      Atomic             Coordinates (Angstroms)
 Number     Number       Type             X           Y           Z
 ---------------------------------------------------------------------
      1         12           0      -26.356935   -0.579792   -0.090504
      2          6           0      -24.902005    2.234523   -1.406784
      3          6           0      -27.140992    1.217859    2.722169
      4          6           0      -27.732072   -3.442437    1.303199
      5          6           0      -25.155078   -2.449512   -2.751341
      6          7           0      -26.017363    1.514609    0.639662
      7          6           0      -25.468487    2.480482   -0.154850
      8          6           0      -25.472245    3.769535    0.513057
      9          6           0      -25.978317    3.495979    1.920566
     10          6           0      -26.393203    1.963664    1.812641
     11          6           0      -25.023489    3.773097    3.132773
     12          6           0      -26.322226    4.826361   -0.271279
     13          6           0      -25.844695    6.318070   -0.202454
     14          1           0      -25.079567    6.754997    1.062185
     15          7           0      -27.407514   -0.988802    1.728277
     16          6           0      -27.629520   -0.076772    2.745790
     17          6           0      -28.364934   -0.748296    3.836526
     18          6           0      -28.555528   -2.138209    3.427123
     19          6           0      -27.916838   -2.243697    2.103692
     20          6           0      -28.780519   -0.081633    5.137744
     21          6           0      -29.354922   -3.206324    4.136284
     22          8           0      -29.479120   -4.322184    3.601614
     23          6           0      -29.991395   -3.043188    5.465700
     24          7           0      -26.374950   -2.672905   -0.593560
     25          6           0      -27.043740   -3.594117    0.105898
     26          6           0      -27.052314   -4.941503   -0.635182
     27          6           0      -26.434252   -4.603956   -2.099692
     28          6           0      -26.030132   -3.112736   -1.824518
     29          6           0      -26.279792   -6.035209    0.164811
     30          6           0      -27.434582   -4.694015   -3.284614
     31          6           0      -27.184869   -5.835627   -4.281485
     32          7           0      -25.185915   -0.245296   -1.740079
     33          6           0      -24.752969   -1.107890   -2.749792
     34          6           0      -23.948419   -0.364464   -3.744657
     35          6           0      -23.992390    0.943738   -3.207537
     36          6           0      -24.739499    0.959720   -1.999392
     37          6           0      -23.348292   -0.855055   -4.968860
     38          6           0      -23.623677    2.345670   -3.493518
     39          8           0      -23.073576    2.850943   -4.435764
     40          6           0      -24.168014    3.219428   -2.307801
     41          6           0      -23.051034    4.003709   -1.757320
     42          8           0      -22.159284    3.446160   -1.097433
     43          8           0      -23.165035    5.351294   -1.912834
     44          6           0      -22.214127    6.219304   -1.225456
     45          1           0      -27.376797    1.818625    3.603047
     46          1           0      -28.137932   -4.340052    1.774905
     47          1           0      -24.909136   -3.049938   -3.629551
     48          1           0      -24.441182    4.120806    0.566019
     49          1           0      -26.946775    3.967092    2.092607
     50          1           0      -24.022180    4.182514    2.995241
     51          1           0      -24.910146    2.841893    3.687312
     52          1           0      -25.467400    4.409931    3.898342
     53          1           0      -27.371139    4.733792    0.010604
     54          1           0      -26.436274    4.488949   -1.301277
     55          1           0      -26.696531    6.988062   -0.322387
     56          1           0      -25.098875    6.560108   -0.959023
     57          1           0      -28.600830    0.992840    5.149222
     58          1           0      -28.210890   -0.475683    5.979849
     59          1           0      -29.865541   -0.102655    5.238080
     60          1           0      -30.558320   -3.955793    5.647185
     61          1           0      -30.646688   -2.173674    5.531649
     62          1           0      -29.224563   -2.832134    6.211232
     63          1           0      -28.096840   -5.189609   -0.824068
     64          1           0      -25.531436   -5.175827   -2.313852
     65          1           0      -26.835887   -6.966121    0.276342
     66          1           0      -26.048130   -5.687883    1.172056
     67          1           0      -25.343857   -6.148146   -0.382854
     68          1           0      -27.475476   -3.785115   -3.883724
     69          1           0      -28.462460   -4.809979   -2.940232
     70          1           0      -26.689692   -6.661305   -3.770321
     71          1           0      -26.516387   -5.462894   -5.056928
     72          1           0      -28.144222   -6.055142   -4.748238
     73          1           0      -23.113667   -0.057476   -5.673438
     74          1           0      -23.965912   -1.587275   -5.488586
     75          1           0      -22.345206   -1.205624   -4.725481
     76          1           0      -24.911728    3.825970   -2.825730
     77          1           0      -21.187271    6.130223   -1.581094
     78          1           0      -22.289887    6.102942   -0.144377
     79          1           0      -22.463623    7.260949   -1.426911
     80         12           0       26.234770   -0.669937   -0.051037
     81          6           0       23.935925    1.634705    1.084700
     82          6           0       27.666484    2.005874   -1.953173
     83          6           0       28.260135   -2.802181   -1.466875
     84          6           0       24.551655   -3.219507    1.571314
     85          7           0       25.666950    1.568155   -0.533735
     86          6           0       24.848212    2.271907    0.230006
     87          6           0       25.138406    3.794162    0.103042
     88          6           0       25.911840    3.804496   -1.261744
     89          6           0       26.483914    2.378518   -1.305739
     90          6           0       24.970659    4.109117   -2.481014
     91          6           0       26.005309    4.168126    1.325924
     92          6           0       26.311656    5.659630    1.518269
     93          1           0       25.993609    6.651403    0.417343
     94          7           0       27.811180   -0.509336   -1.396794
     95          6           0       28.254075    0.701626   -2.031897
     96          6           0       29.494091    0.362856   -2.716769
     97          6           0       29.731164   -1.027776   -2.482916
     98          6           0       28.556934   -1.538831   -1.777199
     99          6           0       30.396028    1.387518   -3.500834
    100          6           0       31.005769   -1.846036   -2.874558
    101          8           0       30.986177   -3.034726   -2.707662
    102          6           0       32.192348   -1.164321   -3.474598
    103          7           0       26.440745   -2.735532    0.115481
    104          6           0       27.372943   -3.428995   -0.576163
    105          6           0       27.278619   -4.940044   -0.368012
    106          6           0       26.177867   -5.044157    0.712982
    107          6           0       25.679634   -3.545035    0.810064
    108          6           0       26.959593   -5.786201   -1.654944
    109          6           0       26.538880   -5.728593    2.006649
    110          6           0       27.848699   -5.389119    2.758116
    111          7           0       24.582036   -0.858801    1.091267
    112          6           0       24.007266   -1.938108    1.699073
    113          6           0       22.921640   -1.438935    2.516443
    114          6           0       22.836581   -0.012783    2.359030
    115          6           0       23.890808    0.271623    1.448413
    116          6           0       22.044949   -2.306246    3.364863
    117          6           0       22.122468    1.177962    2.676632
    118          8           0       21.112526    1.403511    3.378397
    119          6           0       22.697195    2.249697    1.599062
    120          6           0       22.767675    3.595529    2.322501
    121          8           0       23.311314    3.794892    3.340822
    122          8           0       22.050018    4.501550    1.594687
    123          6           0       22.256982    5.909141    1.866509
    124          1           0       28.055291    2.810576   -2.579934
    125          1           0       28.877072   -3.563678   -1.948539
    126          1           0       23.966091   -3.978548    2.092778
    127          1           0       24.226855    4.379768   -0.015389
    128          1           0       26.689683    4.552075   -1.104368
    129          1           0       25.131957    5.133564   -2.814296
    130          1           0       23.942629    3.948841   -2.155535
    131          1           0       25.183229    3.497783   -3.358092
    132          1           0       26.979548    3.700518    1.185825
    133          1           0       25.643173    3.703562    2.242548
    134          1           0       27.274191    5.841577    1.996833
    135          1           0       25.693352    5.949325    2.368110
    136          1           0       30.645699    1.038282   -4.503172
    137          1           0       31.269477    1.548957   -2.869276
    138          1           0       29.898956    2.357779   -3.533560
    139          1           0       33.006743   -1.814452   -3.154149
    140          1           0       32.403375   -0.201383   -3.010903
    141          1           0       32.168726   -0.815769   -4.507061
    142          1           0       28.254433   -5.230212    0.020819
    143          1           0       25.272000   -5.531274    0.352188
    144          1           0       26.334536   -6.610621   -1.312853
    145          1           0       27.949661   -6.130167   -1.954920
    146          1           0       26.561052   -5.146819   -2.442573
    147          1           0       26.780412   -6.722002    1.630119
    148          1           0       25.773970   -5.779704    2.782230
    149          1           0       28.584999   -6.180108    2.894298
    150          1           0       27.655724   -5.149176    3.803694
    151          1           0       28.361635   -4.581852    2.235115
    152          1           0       21.301122   -1.636132    3.794930
    153          1           0       22.619107   -2.716507    4.196688
    154          1           0       21.640384   -3.187946    2.868712
    155          1           0       21.989887    2.215040    0.770181
    156          1           0       21.187306    6.064363    2.007940
    157          1           0       22.789326    6.436698    1.074772
    158          1           0       22.761847    6.116724    2.810332
 ---------------------------------------------------------------------

 SCF Done:  E(RwB97XD) =  -4070.64406258     A.U. after   19 cycles

 Excitation energies and oscillator strengths:

 Excited State   1:      Singlet-A      1.6697 eV  742.57 nm  f=0.3926  <S**2>=0.000
     309 -> 316       -0.19469
     312 -> 314        0.68025
     309 <- 316       -0.11868
 This state for optimization and/or second-order correction.
 Total Energy, E(TD-HF/TD-DFT) =  -4070.58270384
 Copying the excited state density for this state as the 1-particle RhoCI density.

 Excited State   2:      Singlet-A      1.6762 eV  739.67 nm  f=0.3671  <S**2>=0.000
     310 -> 315        0.20180
     311 -> 313        0.67872
     310 <- 315        0.12040

 Excited State   3:      Singlet-A      2.1629 eV  573.24 nm  f=0.0889  <S**2>=0.000
     310 -> 313        0.63319
     311 -> 315       -0.30172

 Excited State   4:      Singlet-A      2.1969 eV  564.36 nm  f=0.0830  <S**2>=0.000
     309 -> 314        0.62408
     312 -> 316        0.31822

 Excited State   5:      Singlet-A      3.3462 eV  370.52 nm  f=0.0456  <S**2>=0.000
     301 -> 313        0.24688
     301 -> 317       -0.17766
     304 -> 313       -0.41097
     304 -> 317        0.24594
     304 -> 320       -0.11248
     306 -> 313       -0.15657
     308 -> 313       -0.18616
     311 -> 315        0.18112

 The electronic state is 1-A.
 Alpha  occ. eigenvalues --  -46.95210 -46.94604 -19.31177 -19.29626 -19.25186
 Alpha  occ. eigenvalues --  -19.24248 -19.24123 -19.24077 -19.24059 -19.23399
 Alpha  occ. eigenvalues --  -14.46397 -14.46318 -14.46277 -14.46277 -14.44111
 Alpha  occ. eigenvalues --  -14.43895 -14.43890 -14.43820 -10.43407 -10.42769
 Alpha  occ. eigenvalues --  -10.39191 -10.39135 -10.38925 -10.38861 -10.36061
 Alpha  occ. eigenvalues --  -10.35201 -10.34911 -10.34737 -10.34681 -10.34654
 Alpha  occ. eigenvalues --  -10.34622 -10.34574 -10.34434 -10.34409 -10.34301
 Alpha  occ. eigenvalues --  -10.34110 -10.34061 -10.33940 -10.33672 -10.33369
 Alpha  occ. eigenvalues --  -10.33333 -10.33280 -10.32951 -10.32789 -10.32738
 Alpha  occ. eigenvalues --  -10.32665 -10.32568 -10.32509 -10.32318 -10.32147
 Alpha  occ. eigenvalues --  -10.32049 -10.31955 -10.31881 -10.31839 -10.31795
 Alpha  occ. eigenvalues --  -10.31760 -10.31721 -10.31695 -10.31647 -10.31613
 Alpha  occ. eigenvalues --  -10.31535 -10.31421 -10.31420 -10.31318 -10.31242
 Alpha  occ. eigenvalues --  -10.31021 -10.30697 -10.30576 -10.30514 -10.30512
 Alpha  occ. eigenvalues --  -10.30379 -10.30120 -10.30104 -10.30088 -10.30046
 Alpha  occ. eigenvalues --  -10.29960 -10.29922 -10.29916 -10.29914 -10.29843
 Alpha  occ. eigenvalues --  -10.29698 -10.29350 -10.29304 -10.29150 -10.29064
 Alpha  occ. eigenvalues --  -10.28920  -3.21080  -3.20667  -1.94690  -1.94260
 Alpha  occ. eigenvalues --   -1.94185  -1.94055  -1.93811  -1.93628  -1.19780
 Alpha  occ. eigenvalues --   -1.18604  -1.13691  -1.13178  -1.12012  -1.11124
 Alpha  occ. eigenvalues --   -1.10283  -1.09300  -1.07214  -1.07104  -1.06079
 Alpha  occ. eigenvalues --   -1.06047  -1.05385  -1.05104  -1.04083  -1.02995
 Alpha  occ. eigenvalues --   -0.95034  -0.94443  -0.91202  -0.90999  -0.90586
 Alpha  occ. eigenvalues --   -0.90384  -0.90158  -0.89582  -0.89239  -0.89118
 Alpha  occ. eigenvalues --   -0.88649  -0.88391  -0.88200  -0.87587  -0.85978
 Alpha  occ. eigenvalues --   -0.85875  -0.85603  -0.85439  -0.84310  -0.84197
 Alpha  occ. eigenvalues --   -0.83780  -0.83647  -0.83368  -0.83142  -0.82500
 Alpha  occ. eigenvalues --   -0.82239  -0.80393  -0.79931  -0.79477  -0.79257
 Alpha  occ. eigenvalues --   -0.79233  -0.78726  -0.78139  -0.77817  -0.77431
 Alpha  occ. eigenvalues --   -0.76808  -0.74671  -0.74585  -0.73975  -0.73478
 Alpha  occ. eigenvalues --   -0.72165  -0.71156  -0.70857  -0.70258  -0.70076
 Alpha  occ. eigenvalues --   -0.70009  -0.68915  -0.68176  -0.67764  -0.67330
 Alpha  occ. eigenvalues --   -0.67148  -0.67036  -0.66853  -0.66319  -0.66273
 Alpha  occ. eigenvalues --   -0.66118  -0.64700  -0.64342  -0.62471  -0.61827
 Alpha  occ. eigenvalues --   -0.61620  -0.61554  -0.61205  -0.61137  -0.60815
 Alpha  occ. eigenvalues --   -0.60704  -0.60205  -0.60147  -0.59870  -0.59268
 Alpha  occ. eigenvalues --   -0.58115  -0.58095  -0.58032  -0.57821  -0.57627
 Alpha  occ. eigenvalues --   -0.57343  -0.57273  -0.56660  -0.56186  -0.55904
 Alpha  occ. eigenvalues --   -0.55617  -0.55456  -0.55387  -0.54888  -0.54867
 Alpha  occ. eigenvalues --   -0.54715  -0.54332  -0.54306  -0.54195  -0.54137
 Alpha  occ. eigenvalues --   -0.53994  -0.53703  -0.53541  -0.53402  -0.53225
 Alpha  occ. eigenvalues --   -0.53060  -0.52706  -0.52638  -0.52123  -0.52055
 Alpha  occ. eigenvalues --   -0.51901  -0.51897  -0.51799  -0.51612  -0.51484
 Alpha  occ. eigenvalues --   -0.51282  -0.51242  -0.51203  -0.50919  -0.50744
 Alpha  occ. eigenvalues --   -0.50445  -0.50367  -0.50170  -0.50069  -0.50004
 Alpha  occ. eigenvalues --   -0.49890  -0.49842  -0.49553  -0.49395  -0.49149
 Alpha  occ. eigenvalues --   -0.49052  -0.48813  -0.48630  -0.48538  -0.48458
 Alpha  occ. eigenvalues --   -0.48174  -0.47911  -0.47801  -0.47747  -0.47617
 Alpha  occ. eigenvalues --   -0.47528  -0.47435  -0.47158  -0.47145  -0.46934
 Alpha  occ. eigenvalues --   -0.46833  -0.46609  -0.46461  -0.46246  -0.45787
 Alpha  occ. eigenvalues --   -0.45746  -0.45549  -0.45389  -0.45283  -0.45195
 Alpha  occ. eigenvalues --   -0.45082  -0.44947  -0.44901  -0.44843  -0.44620
 Alpha  occ. eigenvalues --   -0.44532  -0.44258  -0.44061  -0.44044  -0.43944
 Alpha  occ. eigenvalues --   -0.43783  -0.43781  -0.43565  -0.43367  -0.43328
 Alpha  occ. eigenvalues --   -0.43126  -0.42844  -0.42827  -0.42571  -0.42235
 Alpha  occ. eigenvalues --   -0.42108  -0.41852  -0.41487  -0.41402  -0.41315
 Alpha  occ. eigenvalues --   -0.40289  -0.40076  -0.39848  -0.39555  -0.39411
 Alpha  occ. eigenvalues --   -0.39191  -0.39160  -0.38768  -0.38693  -0.38373
 Alpha  occ. eigenvalues --   -0.37922  -0.37748  -0.37171  -0.36013  -0.35937
 Alpha  occ. eigenvalues --   -0.35905  -0.35564  -0.35353  -0.33661  -0.33269
 Alpha  occ. eigenvalues --   -0.33013  -0.32884  -0.32691  -0.32496  -0.32220
 Alpha  occ. eigenvalues --   -0.32014  -0.31689  -0.31501  -0.25787  -0.25723
 Alpha  occ. eigenvalues --   -0.22896  -0.22595
 Alpha virt. eigenvalues --   -0.06782  -0.06643   0.00033   0.00195   0.02245
 Alpha virt. eigenvalues --    0.02599   0.04696   0.04723   0.06111   0.06131
 Alpha virt. eigenvalues --    0.06621   0.07951   0.08008   0.08230   0.08513

 Mulliken charges:
               1
     1  Mg   0.952617
     2  C   -0.030086
     3  C   -0.087611
     4  C   -0.053773
     5  C   -0.079012
     6  N   -0.317162
     7  C   -0.008968
     8  C   -0.054053
     9  C   -0.041522
    10  C   -0.009146
    11  C    0.019983
    12  C    0.021291
    13  C   -0.115212
    14  H    0.015631
    15  N   -0.461295
    16  C    0.197466
    17  C   -0.169716
    18  C   -0.061206
    19  C    0.119909
    20  C    0.061449
    21  C    0.038588
    22  O   -0.262817
    23  C    0.013197
    24  N   -0.333092
    25  C    0.064238
    26  C   -0.091864
    27  C   -0.099023
    28  C    0.041268
    29  C    0.031119
    30  C   -0.015224
    31  C   -0.053807
    32  N   -0.449445
    33  C    0.129831
    34  C   -0.162239
    35  C   -0.055562
    36  C    0.145317
    37  C    0.075965
    38  C    0.096411
    39  O   -0.183882
    40  C   -0.042371
    41  C    0.280589
    42  O   -0.276025
    43  O   -0.352453
    44  C    0.141026
    45  H   -0.023802
    46  H    0.028186
    47  H   -0.002412
    48  H    0.045938
    49  H    0.034445
    50  H    0.048897
    51  H    0.031147
    52  H    0.026864
    53  H    0.018606
    54  H    0.024769
    55  H    0.055065
    56  H    0.067035
    57  H    0.025598
    58  H    0.064171
    59  H    0.051358
    60  H    0.063688
    61  H    0.041673
    62  H    0.053150
    63  H    0.040539
    64  H    0.038373
    65  H    0.048233
    66  H    0.046077
    67  H    0.029737
    68  H    0.031747
    69  H    0.025721
    70  H    0.040597
    71  H    0.032172
    72  H    0.041528
    73  H    0.049759
    74  H    0.047503
    75  H    0.057518
    76  H    0.066939
    77  H    0.067238
    78  H    0.052492
    79  H    0.050119
    80  Mg   0.965903
    81  C   -0.025683
    82  C   -0.077184
    83  C   -0.087918
    84  C   -0.117664
    85  N   -0.288355
    86  C   -0.035964
    87  C   -0.084224
    88  C   -0.089614
    89  C    0.019676
    90  C    0.040465
    91  C    0.000351
    92  C   -0.089374
    93  H    0.044122
    94  N   -0.478730
    95  C    0.176013
    96  C   -0.189496
    97  C   -0.081151
    98  C    0.188644
    99  C    0.062652
   100  C    0.064964
   101  O   -0.213721
   102  C   -0.007394
   103  N   -0.341961
   104  C    0.014415
   105  C   -0.099170
   106  C   -0.054383
   107  C    0.091143
   108  C    0.035505
   109  C   -0.009994
   110  C   -0.072527
   111  N   -0.486717
   112  C    0.144580
   113  C   -0.184355
   114  C   -0.031027
   115  C    0.180488
   116  C    0.067883
   117  C    0.153342
   118  O   -0.233735
   119  C   -0.147777
   120  C    0.243220
   121  O   -0.185886
   122  O   -0.368672
   123  C    0.110497
   124  H    0.003772
   125  H    0.009641
   126  H   -0.005490
   127  H    0.019557
   128  H    0.022919
   129  H    0.039834
   130  H    0.043888
   131  H    0.040361
   132  H    0.025769
   133  H    0.065937
   134  H    0.042718
   135  H    0.038163
   136  H    0.059006
   137  H    0.057709
   138  H    0.030201
   139  H    0.058165
   140  H    0.020595
   141  H    0.069279
   142  H    0.047922
   143  H    0.031248
   144  H    0.046320
   145  H    0.047896
   146  H    0.054231
   147  H    0.029217
   148  H    0.040700
   149  H    0.032766
   150  H    0.032881
   151  H    0.039562
   152  H    0.062280
   153  H    0.042946
   154  H    0.047423
   155  H    0.085745
   156  H    0.070112
   157  H    0.062610
   158  H    0.062929
 Sum of Mulliken charges =  -0.00000

 Dipole moment (field-independent basis, Debye):
    X=              0.6011    Y=              2.5482    Z=             -0.7605  Tot=              2.7263
 Quadrupole moment (field-independent basis, Debye-Ang):
   XX=           -225.3887   YY=           -460.6971   ZZ=           -509.8078
   XY=            -21.9658   XZ=           -110.1622   YZ=              4.2465

 Normal termination of Gaussian 16 at Sun Sep 19 22:23:38 2021.
