 Gaussian 16, Revision A.03,
 Gaussian 16:  ES64L-G16RevA.03 25-Dec-2016

 --------------------------------
 #p wB97XD/Def2SVP td=(nstates=5)
 --------------------------------

 --------------------------------
 TDDFT excited states in gaussian
 --------------------------------
 Symbolic Z-matrix:
 Charge =  0 Multiplicity = 1

                         Standard orientation:
 ---------------------------------------------------------------------
 Center     Atomic      Atomic             Coordinates (Angstroms)
 Number     Number       Type             X           Y           Z
 ---------------------------------------------------------------------
      1         12           0        9.277000    0.648041   -0.065038
      2          6           0        6.886528   -1.735769   -1.503340
      3          6           0        7.291390    3.073013   -1.533556
      4          6           0       10.619662    2.715112    1.958411
      5          6           0       10.710603   -2.203799    1.585284
      6          7           0        7.149678    0.607208   -1.301003
      7          6           0        6.395342   -0.447506   -1.766637
      8          6           0        5.094120    0.106665   -2.454014
      9          6           0        5.388616    1.597944   -2.691842
     10          6           0        6.674935    1.779211   -1.799430
     11          6           0        5.695951    2.083851   -4.169112
     12          6           0        3.782844   -0.180721   -1.645403
     13          6           0        2.561058   -0.555711   -2.456225
     14          1           0        1.495292    0.563049   -2.677772
     15          7           0        9.102840    2.612042    0.107226
     16          6           0        8.334717    3.469880   -0.632116
     17          6           0        8.560662    4.869137   -0.177339
     18          6           0        9.518698    4.750466    0.863020
     19          6           0        9.750348    3.319083    1.040290
     20          6           0        7.842388    6.134434   -0.674149
     21          6           0       10.029072    5.834084    1.817179
     22          8           0        9.654623    6.985318    1.610887
     23          6           0       10.917700    5.613028    2.888937
     24          7           0       10.309187    0.245448    1.743669
     25          6           0       10.968469    1.361326    2.219770
     26          6           0       12.008702    0.886972    3.307066
     27          6           0       11.784358   -0.666041    3.379529
     28          6           0       10.958144   -0.893660    2.090939
     29          6           0       13.486923    1.285436    3.044170
     30          6           0       11.113189   -1.282036    4.672746
     31          6           0       11.995699   -1.492577    5.915367
     32          7           0        8.982477   -1.545268    0.047096
     33          6           0        9.726680   -2.537657    0.653152
     34          6           0        9.304745   -3.854381    0.240821
     35          6           0        8.185219   -3.583045   -0.631773
     36          6           0        7.945720   -2.166696   -0.710694
     37          6           0        9.904433   -5.128528    0.750627
     38          6           0        7.180068   -4.203490   -1.372737
     39          8           0        6.837039   -5.376152   -1.438738
     40          6           0        6.221481   -3.079886   -1.862981
     41          6           0        6.169401   -3.254376   -3.362852
     42          8           0        5.117779   -3.289997   -4.006601
     43          8           0        7.453444   -3.213279   -4.041499
     44          6           0        7.315797   -3.023450   -5.484600
     45          1           0        6.727010    3.855121   -2.044681
     46          1           0       11.283993    3.309342    2.589284
     47          1           0       11.300323   -2.966594    2.097785
     48          1           0        5.050553   -0.282442   -3.472266
     49          1           0        4.632706    2.237967   -2.236803
     50          1           0        4.796569    2.618659   -4.473656
     51          1           0        5.806709    1.237980   -4.846975
     52          1           0        6.605358    2.671938   -4.292097
     53          1           0        3.382548    0.678982   -1.107417
     54          1           0        3.936793   -1.012610   -0.957781
     55          1           0        2.146837   -1.457419   -2.005141
     56          1           0        2.903006   -0.832723   -3.453948
     57          1           0        8.555026    6.955796   -0.753652
     58          1           0        7.053272    6.290587    0.061295
     59          1           0        7.446874    5.990675   -1.678716
     60          1           0       11.881696    5.320128    2.471759
     61          1           0       10.555589    4.921469    3.649739
     62          1           0       10.886532    6.585493    3.381497
     63          1           0       11.804979    1.271789    4.305760
     64          1           0       12.710698   -1.209668    3.195474
     65          1           0       14.036168    0.343949    3.029219
     66          1           0       13.826422    1.903185    3.874986
     67          1           0       13.440763    1.813783    2.091113
     68          1           0       10.746671   -2.249278    4.327388
     69          1           0       10.323292   -0.631865    5.049408
     70          1           0       12.969472   -1.201689    5.520302
     71          1           0       12.095093   -2.552334    6.154484
     72          1           0       11.748064   -0.913753    6.804835
     73          1           0        9.796803   -5.082064    1.833509
     74          1           0       10.981444   -5.194256    0.597308
     75          1           0        9.324166   -6.010041    0.477737
     76          1           0        5.236108   -3.307616   -1.456890
     77          1           0        8.297187   -2.568970   -5.625516
     78          1           0        6.404759   -2.484314   -5.744207
     79          1           0        7.368186   -4.017579   -5.928691
     80         12           0       -9.229437    0.226523    0.148435
     81          6           0       -6.525558   -1.994811   -0.398119
     82          6           0       -7.246714    2.642645   -1.416736
     83          6           0      -11.678853    2.388567    0.473185
     84          6           0      -10.637903   -2.070378    2.346250
     85          7           0       -7.154759    0.257220   -0.808535
     86          6           0       -6.305777   -0.780839   -1.046847
     87          6           0       -5.000302   -0.428690   -1.780417
     88          6           0       -5.271797    1.149388   -1.966772
     89          6           0       -6.623896    1.332257   -1.343411
     90          6           0       -4.219363    2.080651   -1.244764
     91          6           0       -4.839618   -1.183883   -3.140009
     92          6           0       -3.788879   -2.252248   -3.416288
     93          1           0       -3.137912   -2.385110   -4.786721
     94          7           0       -9.495664    2.227649   -0.454611
     95          6           0       -8.537317    3.078351   -1.024212
     96          6           0       -9.123678    4.397709   -1.101940
     97          6           0      -10.458631    4.320261   -0.712674
     98          6           0      -10.612799    2.924611   -0.257993
     99          6           0       -8.344628    5.483261   -1.762715
    100          6           0      -11.547386    5.388045   -0.612007
    101          8           0      -12.697542    5.182713   -0.212451
    102          6           0      -11.232277    6.721885   -1.165214
    103          7           0      -10.883427    0.245070    1.324140
    104          6           0      -11.890970    1.152737    1.148792
    105          6           0      -13.230665    0.635661    1.774298
    106          6           0      -12.821787   -0.684578    2.414493
    107          6           0      -11.313244   -0.836420    2.073662
    108          6           0      -13.919866    1.671855    2.721133
    109          6           0      -13.695182   -1.820081    1.859554
    110          6           0      -14.236912   -2.824335    2.810673
    111          7           0       -8.692025   -1.610079    0.946907
    112          6           0       -9.366260   -2.444381    1.802273
    113          6           0       -8.646579   -3.663798    2.018537
    114          6           0       -7.502338   -3.631903    1.079738
    115          6           0       -7.610897   -2.329087    0.451514
    116          6           0       -9.048361   -4.786410    2.990471
    117          6           0       -6.312484   -4.335904    0.538578
    118          8           0       -5.930942   -5.507404    0.700996
    119          6           0       -5.652603   -3.282867   -0.443871
    120          6           0       -4.297948   -3.160974    0.180960
    121          8           0       -3.941209   -2.422300    1.090833
    122          8           0       -3.424703   -3.888299   -0.460371
    123          6           0       -2.054681   -4.044969    0.085607
    124          1           0       -6.591086    3.241494   -2.051820
    125          1           0      -12.545571    3.015726    0.690609
    126          1           0      -11.131152   -2.806928    2.983372
    127          1           0       -4.176629   -0.592602   -1.084454
    128          1           0       -5.377329    1.539418   -2.979590
    129          1           0       -3.583049    1.619318   -0.490027
    130          1           0       -4.734568    2.892935   -0.733264
    131          1           0       -3.572761    2.519139   -2.005072
    132          1           0       -4.651068   -0.418525   -3.893031
    133          1           0       -5.763057   -1.702867   -3.393780
    134          1           0       -4.401276   -3.150813   -3.339711
    135          1           0       -3.079987   -2.075610   -2.607291
    136          1           0       -8.845488    5.858813   -2.653950
    137          1           0       -7.357370    5.131386   -2.063124
    138          1           0       -8.191177    6.353095   -1.124731
    139          1           0      -10.822398    6.611093   -2.169200
    140          1           0      -10.398347    7.199920   -0.651064
    141          1           0      -12.092810    7.382523   -1.265825
    142          1           0      -13.849992    0.511543    0.886119
    143          1           0      -13.024645   -0.682301    3.485319
    144          1           0      -13.473717    2.665982    2.697712
    145          1           0      -13.913818    1.380524    3.770808
    146          1           0      -14.992558    1.688325    2.528919
    147          1           0      -13.020459   -2.310802    1.159256
    148          1           0      -14.596411   -1.490613    1.343096
    149          1           0      -13.899511   -3.782557    2.416312
    150          1           0      -15.314050   -2.698166    2.919574
    151          1           0      -13.796359   -2.797629    3.807551
    152          1           0       -8.586838   -4.597821    3.959064
    153          1           0       -8.729685   -5.736965    2.562966
    154          1           0      -10.123075   -4.808777    3.172318
    155          1           0       -5.589508   -3.764416   -1.419524
    156          1           0       -1.503658   -3.109522    0.176240
    157          1           0       -1.432897   -4.750014   -0.465766
    158          1           0       -1.968607   -4.488316    1.077172
 ---------------------------------------------------------------------

 SCF Done:  E(RwB97XD) =  -4070.55278297     A.U. after   18 cycles

 Excitation energies and oscillator strengths:

 Excited State   1:      Singlet-A      1.6677 eV  743.45 nm  f=0.2736  <S**2>=0.000
     309 -> 315       -0.20094
     311 -> 313        0.67343
     309 <- 315       -0.11895
 This state for optimization and/or second-order correction.
 Total Energy, E(TD-HF/TD-DFT) =  -4070.49149692
 Copying the excited state density for this state as the 1-particle RhoCI density.

 Excited State   2:      Singlet-A      1.7216 eV  720.18 nm  f=0.4384  <S**2>=0.000
     310 -> 316       -0.18563
     312 -> 314        0.67793
     310 <- 316       -0.11154

 Excited State   3:      Singlet-A      2.1677 eV  571.97 nm  f=0.1123  <S**2>=0.000
     310 -> 314        0.63249
     312 -> 316        0.29398

 Excited State   4:      Singlet-A      2.1891 eV  566.37 nm  f=0.0643  <S**2>=0.000
     309 -> 313        0.61267
     311 -> 315        0.33085

 Excited State   5:      Singlet-A      3.4561 eV  358.74 nm  f=0.0000  <S**2>=0.000
     312 -> 313        0.70675

 The electronic state is 1-A.
 Alpha  occ. eigenvalues --  -46.97172 -46.94767 -19.30214 -19.29030 -19.25134
 Alpha  occ. eigenvalues --  -19.24598 -19.23898 -19.23726 -19.22978 -19.22900
 Alpha  occ. eigenvalues --  -14.47433 -14.47055 -14.46639 -14.46382 -14.45491
 Alpha  occ. eigenvalues --  -14.44357 -14.43814 -14.43431 -10.43372 -10.42242
 Alpha  occ. eigenvalues --  -10.39926 -10.39280 -10.38959 -10.37568 -10.36476
 Alpha  occ. eigenvalues --  -10.36055 -10.35724 -10.35701 -10.35641 -10.35526
 Alpha  occ. eigenvalues --  -10.35370 -10.35345 -10.35168 -10.35071 -10.34794
 Alpha  occ. eigenvalues --  -10.34759 -10.34579 -10.34366 -10.33947 -10.33562
 Alpha  occ. eigenvalues --  -10.33440 -10.33314 -10.33153 -10.33110 -10.33041
 Alpha  occ. eigenvalues --  -10.32954 -10.32762 -10.32687 -10.32671 -10.32593
 Alpha  occ. eigenvalues --  -10.32526 -10.32494 -10.32478 -10.32471 -10.32374
 Alpha  occ. eigenvalues --  -10.32159 -10.32117 -10.32089 -10.32014 -10.31917
 Alpha  occ. eigenvalues --  -10.31916 -10.31665 -10.31641 -10.31468 -10.31453
 Alpha  occ. eigenvalues --  -10.31011 -10.30960 -10.30916 -10.30913 -10.30906
 Alpha  occ. eigenvalues --  -10.30805 -10.30707 -10.30556 -10.30327 -10.30252
 Alpha  occ. eigenvalues --  -10.30225 -10.30175 -10.30083 -10.29796 -10.29668
 Alpha  occ. eigenvalues --  -10.29649 -10.29581 -10.29335 -10.29330 -10.29029
 Alpha  occ. eigenvalues --  -10.28561  -3.23075  -3.20795  -1.96599  -1.96241
 Alpha  occ. eigenvalues --   -1.95994  -1.94385  -1.93922  -1.93772  -1.19712
 Alpha  occ. eigenvalues --   -1.16179  -1.12752  -1.12280  -1.11274  -1.10416
 Alpha  occ. eigenvalues --   -1.08649  -1.08418  -1.07369  -1.07182  -1.06006
 Alpha  occ. eigenvalues --   -1.05452  -1.05425  -1.04673  -1.03216  -1.03166
 Alpha  occ. eigenvalues --   -0.94961  -0.93628  -0.91387  -0.91009  -0.90923
 Alpha  occ. eigenvalues --   -0.90857  -0.90544  -0.90461  -0.89582  -0.89060
 Alpha  occ. eigenvalues --   -0.88968  -0.88571  -0.87926  -0.87010  -0.86922
 Alpha  occ. eigenvalues --   -0.86087  -0.85840  -0.85685  -0.85210  -0.84610
 Alpha  occ. eigenvalues --   -0.84584  -0.84574  -0.83198  -0.82601  -0.82373
 Alpha  occ. eigenvalues --   -0.81931  -0.80692  -0.80322  -0.79347  -0.79262
 Alpha  occ. eigenvalues --   -0.79082  -0.78628  -0.77937  -0.77860  -0.77308
 Alpha  occ. eigenvalues --   -0.77021  -0.74903  -0.74075  -0.74005  -0.73686
 Alpha  occ. eigenvalues --   -0.71170  -0.71107  -0.70610  -0.70008  -0.69819
 Alpha  occ. eigenvalues --   -0.69446  -0.69131  -0.68838  -0.67636  -0.67587
 Alpha  occ. eigenvalues --   -0.67415  -0.67076  -0.67063  -0.66753  -0.66110
 Alpha  occ. eigenvalues --   -0.66055  -0.64184  -0.63981  -0.62919  -0.62489
 Alpha  occ. eigenvalues --   -0.61892  -0.61367  -0.61348  -0.60988  -0.60812
 Alpha  occ. eigenvalues --   -0.60336  -0.59597  -0.59515  -0.59265  -0.59071
 Alpha  occ. eigenvalues --   -0.58759  -0.58642  -0.57676  -0.57370  -0.56837
 Alpha  occ. eigenvalues --   -0.56798  -0.56366  -0.56085  -0.55942  -0.55915
 Alpha  occ. eigenvalues --   -0.55771  -0.55610  -0.55564  -0.55444  -0.55310
 Alpha  occ. eigenvalues --   -0.54923  -0.54813  -0.54535  -0.54438  -0.54339
 Alpha  occ. eigenvalues --   -0.54055  -0.53905  -0.53791  -0.53503  -0.53210
 Alpha  occ. eigenvalues --   -0.53046  -0.52573  -0.52458  -0.52284  -0.51923
 Alpha  occ. eigenvalues --   -0.51880  -0.51869  -0.51741  -0.51578  -0.51519
 Alpha  occ. eigenvalues --   -0.51277  -0.51193  -0.50993  -0.50933  -0.50628
 Alpha  occ. eigenvalues --   -0.50464  -0.50401  -0.50324  -0.50183  -0.49986
 Alpha  occ. eigenvalues --   -0.49966  -0.49878  -0.49765  -0.49631  -0.49334
 Alpha  occ. eigenvalues --   -0.49164  -0.48738  -0.48609  -0.48418  -0.48146
 Alpha  occ. eigenvalues --   -0.48140  -0.47940  -0.47899  -0.47647  -0.47411
 Alpha  occ. eigenvalues --   -0.47392  -0.47256  -0.46982  -0.46906  -0.46859
 Alpha  occ. eigenvalues --   -0.46687  -0.46542  -0.46436  -0.46430  -0.46162
 Alpha  occ. eigenvalues --   -0.46077  -0.46063  -0.45817  -0.45796  -0.45646
 Alpha  occ. eigenvalues --   -0.45255  -0.45047  -0.44861  -0.44632  -0.44592
 Alpha  occ. eigenvalues --   -0.44456  -0.44362  -0.44153  -0.44125  -0.43995
 Alpha  occ. eigenvalues --   -0.43881  -0.43533  -0.43488  -0.43339  -0.43179
 Alpha  occ. eigenvalues --   -0.42946  -0.42567  -0.42291  -0.42227  -0.42222
 Alpha  occ. eigenvalues --   -0.41873  -0.41771  -0.41618  -0.41358  -0.41258
 Alpha  occ. eigenvalues --   -0.40859  -0.40208  -0.39884  -0.39750  -0.39714
 Alpha  occ. eigenvalues --   -0.39313  -0.39147  -0.38578  -0.38446  -0.38139
 Alpha  occ. eigenvalues --   -0.37590  -0.37439  -0.36637  -0.36293  -0.36015
 Alpha  occ. eigenvalues --   -0.35391  -0.35356  -0.34958  -0.34027  -0.33917
 Alpha  occ. eigenvalues --   -0.33736  -0.33606  -0.33282  -0.32481  -0.32339
 Alpha  occ. eigenvalues --   -0.32202  -0.30943  -0.30703  -0.26480  -0.25746
 Alpha  occ. eigenvalues --   -0.23349  -0.22893
 Alpha virt. eigenvalues --   -0.07216  -0.06753  -0.00884   0.00171   0.01798
 Alpha virt. eigenvalues --    0.01971   0.03566   0.04241   0.04289   0.05890
 Alpha virt. eigenvalues --    0.06713   0.06879   0.07871   0.07913   0.08506

 Mulliken charges:
               1
     1  Mg   0.966446
     2  C   -0.023638
     3  C   -0.063327
     4  C   -0.091866
     5  C   -0.100723
     6  N   -0.282582
     7  C   -0.034356
     8  C    0.018264
     9  C   -0.119907
    10  C   -0.007956
    11  C    0.015570
    12  C    0.017712
    13  C   -0.124294
    14  H    0.019782
    15  N   -0.499458
    16  C    0.163223
    17  C   -0.190184
    18  C   -0.055530
    19  C    0.215225
    20  C    0.096876
    21  C    0.017789
    22  O   -0.245794
    23  C    0.020117
    24  N   -0.384718
    25  C    0.048291
    26  C   -0.125814
    27  C   -0.090114
    28  C    0.045194
    29  C    0.037727
    30  C   -0.003884
    31  C   -0.042740
    32  N   -0.423372
    33  C    0.155194
    34  C   -0.159218
    35  C   -0.021108
    36  C    0.159352
    37  C    0.093554
    38  C    0.074558
    39  O   -0.216060
    40  C   -0.098973
    41  C    0.286921
    42  O   -0.257266
    43  O   -0.417644
    44  C    0.139145
    45  H   -0.001822
    46  H   -0.023507
    47  H   -0.001542
    48  H    0.034585
    49  H    0.043736
    50  H    0.047692
    51  H    0.036726
    52  H    0.049674
    53  H    0.048599
    54  H    0.044091
    55  H    0.055715
    56  H    0.053287
    57  H    0.068295
    58  H    0.069255
    59  H    0.030546
    60  H    0.075467
    61  H    0.064187
    62  H    0.054944
    63  H    0.036139
    64  H    0.020071
    65  H    0.037989
    66  H    0.042383
    67  H    0.042151
    68  H    0.029070
    69  H    0.036589
    70  H    0.015345
    71  H    0.040424
    72  H    0.050472
    73  H    0.034476
    74  H    0.048012
    75  H    0.063089
    76  H    0.071252
    77  H    0.050853
    78  H    0.068471
    79  H    0.052878
    80  Mg   0.972667
    81  C    0.039403
    82  C   -0.094869
    83  C   -0.084798
    84  C   -0.089124
    85  N   -0.280127
    86  C   -0.033659
    87  C   -0.039016
    88  C   -0.125138
    89  C    0.009388
    90  C    0.002154
    91  C   -0.006625
    92  C   -0.125907
    93  H    0.047635
    94  N   -0.445279
    95  C    0.188907
    96  C   -0.135460
    97  C   -0.078390
    98  C    0.173908
    99  C    0.050798
   100  C    0.084212
   101  O   -0.232692
   102  C   -0.006889
   103  N   -0.424609
   104  C    0.030404
   105  C   -0.065373
   106  C   -0.064764
   107  C    0.113622
   108  C    0.012754
   109  C   -0.040672
   110  C   -0.047830
   111  N   -0.454876
   112  C    0.145783
   113  C   -0.198960
   114  C   -0.045293
   115  C    0.123236
   116  C    0.077732
   117  C    0.112951
   118  O   -0.225723
   119  C   -0.112573
   120  C    0.233138
   121  O   -0.269112
   122  O   -0.309865
   123  C    0.147711
   124  H    0.001529
   125  H    0.015781
   126  H   -0.006237
   127  H    0.061030
   128  H    0.045333
   129  H    0.052725
   130  H    0.037247
   131  H    0.036716
   132  H    0.038131
   133  H    0.032394
   134  H    0.061873
   135  H    0.052819
   136  H    0.054364
   137  H    0.035214
   138  H    0.047978
   139  H    0.039576
   140  H    0.049654
   141  H    0.061058
   142  H    0.053869
   143  H    0.031494
   144  H    0.057181
   145  H    0.025090
   146  H    0.034973
   147  H    0.036648
   148  H    0.031115
   149  H    0.037338
   150  H    0.043441
   151  H    0.025414
   152  H    0.056309
   153  H    0.061674
   154  H    0.025165
   155  H    0.076181
   156  H    0.050128
   157  H    0.055043
   158  H    0.052968
 Sum of Mulliken charges =  -0.00000

 Dipole moment (field-independent basis, Debye):
    X=              4.5477    Y=              7.3407    Z=             -1.3558  Tot=              8.7410
 Quadrupole moment (field-independent basis, Debye-Ang):
   XX=           -415.2973   YY=           -563.9809   ZZ=           -483.5673
   XY=             -6.9191   XZ=             29.3334   YZ=            -27.7573

 Normal termination of Gaussian 16 at Mon Sep 20 07:35:20 2021.
