 Gaussian 16, Revision A.03,
 Gaussian 16:  ES64L-G16RevA.03 25-Dec-2016

 --------------------------------
 #p wB97XD/Def2SVP td=(nstates=5)
 --------------------------------

 --------------------------------
 TDDFT excited states in gaussian
 --------------------------------
 Symbolic Z-matrix:
 Charge =  0 Multiplicity = 1

                         Standard orientation:
 ---------------------------------------------------------------------
 Center     Atomic      Atomic             Coordinates (Angstroms)
 Number     Number       Type             X           Y           Z
 ---------------------------------------------------------------------
      1         12           0       -0.737706    0.055767   -0.555699
      2          6           0        2.785459   -0.001306   -0.668025
      3          6           0       -0.652941   -3.326883   -0.158645
      4          6           0       -4.041419    0.195296    0.308862
      5          6           0       -0.460716    3.607358   -0.458264
      6          7           0        0.925522   -1.493901   -0.283637
      7          6           0        2.264854   -1.356435   -0.511110
      8          6           0        3.037154   -2.661663   -0.252622
      9          6           0        1.807516   -3.670023   -0.484404
     10          6           0        0.606937   -2.775407   -0.300376
     11          6           0        1.773336   -4.385555   -1.861494
     12          6           0        3.629820   -2.801539    1.221338
     13          6           0        4.821380   -3.718331    1.451084
     14          1           0        4.702095   -5.039512    2.240246
     15          7           0       -2.259418   -1.362863   -0.012122
     16          6           0       -2.008834   -2.703614   -0.054707
     17          6           0       -3.189038   -3.439465    0.064287
     18          6           0       -4.235287   -2.448343    0.179251
     19          6           0       -3.561065   -1.119421    0.197744
     20          6           0       -3.280020   -4.960453    0.037316
     21          6           0       -5.697407   -2.818052    0.286910
     22          8           0       -6.034200   -4.030051    0.268403
     23          6           0       -6.861944   -1.766392    0.311191
     24          7           0       -1.986707    1.671967   -0.158886
     25          6           0       -3.358423    1.466084    0.150662
     26          6           0       -4.110914    2.762178    0.031516
     27          6           0       -3.019748    3.849849    0.134416
     28          6           0       -1.744742    3.046415   -0.255074
     29          6           0       -4.933227    3.060064   -1.242632
     30          6           0       -2.870494    4.431615    1.637532
     31          6           0       -3.806634    5.545499    2.081544
     32          7           0        0.848775    1.498128   -0.748659
     33          6           0        0.804788    2.883391   -0.700375
     34          6           0        2.069277    3.437416   -0.767398
     35          6           0        2.924057    2.322780   -0.813779
     36          6           0        2.125185    1.167556   -0.774603
     37          6           0        2.370197    4.902952   -0.779418
     38          6           0        4.224871    1.936951   -0.979437
     39          8           0        5.213221    2.599243   -1.227090
     40          6           0        4.207732    0.433290   -0.632841
     41          6           0        4.871471    0.339736    0.708605
     42          8           0        4.493184    0.913085    1.682383
     43          8           0        6.023546   -0.444013    0.623150
     44          6           0        6.778856   -0.426001    1.827374
     45          1           0       -0.688996   -4.415633   -0.237761
     46          1           0       -5.126786    0.296652    0.380063
     47          1           0       -0.468595    4.694015   -0.563721
     48          1           0        3.748742   -2.889014   -1.045678
     49          1           0        1.912502   -4.456519    0.262411
     50          1           0        2.208935   -5.358095   -1.630605
     51          1           0        2.405791   -3.892596   -2.599701
     52          1           0        0.751945   -4.527329   -2.215090
     53          1           0        2.873947   -3.200426    1.897899
     54          1           0        3.819021   -1.787143    1.573160
     55          1           0        5.549706   -3.078326    1.951226
     56          1           0        5.237043   -3.954959    0.471761
     57          1           0       -4.135152   -5.442357   -0.437808
     58          1           0       -3.189106   -5.135181    1.109119
     59          1           0       -2.464828   -5.370297   -0.559037
     60          1           0       -6.865638   -1.208552   -0.624848
     61          1           0       -6.614978   -1.170777    1.189808
     62          1           0       -7.852460   -2.151262    0.553424
     63          1           0       -4.738876    2.832179    0.919104
     64          1           0       -3.200345    4.682996   -0.544911
     65          1           0       -4.551575    3.872121   -1.861259
     66          1           0       -6.001194    2.932742   -1.064396
     67          1           0       -4.744670    2.194859   -1.878016
     68          1           0       -1.836939    4.775169    1.599747
     69          1           0       -2.960129    3.632003    2.373090
     70          1           0       -4.283449    5.258492    3.018372
     71          1           0       -4.571373    5.696776    1.319204
     72          1           0       -3.259609    6.465806    2.287872
     73          1           0        3.141265    5.054961   -0.024694
     74          1           0        1.520617    5.509565   -0.463407
     75          1           0        2.757673    5.248743   -1.737900
     76          1           0        4.795213   -0.091626   -1.385332
     77          1           0        7.529297    0.362399    1.776206
     78          1           0        7.412864   -1.304111    1.955855
     79          1           0        6.157074   -0.261691    2.705769
 ---------------------------------------------------------------------

 SCF Done:  E(RwB97XD) =  -2035.28047729     A.U. after   20 cycles

 Excitation energies and oscillator strengths:

 Excited State   1:      Singlet-A      1.6461 eV  753.18 nm  f=0.4009  <S**2>=0.000
     155 ->158        -0.19129
     156 ->157         0.68053
     155 <-158        -0.11799
 This state for optimization and/or second-order correction.
 Total Energy, E(TD-HF/TD-DFT) =  -2035.21998241
 Copying the excited state density for this state as the 1-particle RhoCI density.

 Excited State   2:      Singlet-A      2.0912 eV  592.88 nm  f=0.1262  <S**2>=0.000
     155 ->157         0.64856
     156 ->158         0.26299

 Excited State   3:      Singlet-A      3.1710 eV  390.99 nm  f=0.0097  <S**2>=0.000
     153 ->157        -0.26097
     154 ->157         0.61031
     154 ->159        -0.13676

 Excited State   4:      Singlet-A      3.2923 eV  376.59 nm  f=0.0006  <S**2>=0.000
     151 ->157         0.42542
     151 ->159         0.20835
     151 ->161        -0.10955
     152 ->157        -0.11097
     153 ->157        -0.34232
     153 ->159         0.13825
     153 ->161         0.10295
     154 ->157        -0.15351
     154 ->159         0.15009

 Excited State   5:      Singlet-A      3.3009 eV  375.60 nm  f=0.0008  <S**2>=0.000
     150 ->157         0.10736
     151 ->157         0.31085
     151 ->159         0.15058
     151 ->161        -0.10968
     152 ->157        -0.27761
     152 ->159        -0.13408
     153 ->157         0.42907
     153 ->159        -0.12596
     154 ->159        -0.10183

 The electronic state is 1-A.
 Alpha  occ. eigenvalues --  -46.96662 -19.30641 -19.25854 -19.23176 -19.22935
 Alpha  occ. eigenvalues --  -14.47791 -14.47282 -14.44415 -14.43826 -10.43569
 Alpha  occ. eigenvalues --  -10.39031 -10.37364 -10.36481 -10.36377 -10.35699
 Alpha  occ. eigenvalues --  -10.35002 -10.34751 -10.34737 -10.34296 -10.33988
 Alpha  occ. eigenvalues --  -10.33332 -10.33090 -10.32484 -10.32384 -10.32378
 Alpha  occ. eigenvalues --  -10.32118 -10.32102 -10.32045 -10.31910 -10.31875
 Alpha  occ. eigenvalues --  -10.31720 -10.31659 -10.31539 -10.31506 -10.31313
 Alpha  occ. eigenvalues --  -10.30481 -10.30440 -10.30358 -10.30241 -10.29972
 Alpha  occ. eigenvalues --  -10.29803 -10.29473 -10.28204  -3.22433  -1.96013
 Alpha  occ. eigenvalues --   -1.95541  -1.95391  -1.19809  -1.12272  -1.11752
 Alpha  occ. eigenvalues --   -1.09539  -1.07789  -1.06724  -1.05989  -1.03915
 Alpha  occ. eigenvalues --   -0.96384  -0.90877  -0.90643  -0.90570  -0.89535
 Alpha  occ. eigenvalues --   -0.89039  -0.87877  -0.86312  -0.85542  -0.84845
 Alpha  occ. eigenvalues --   -0.83828  -0.82662  -0.82312  -0.80030  -0.79318
 Alpha  occ. eigenvalues --   -0.78907  -0.77917  -0.77659  -0.75619  -0.74252
 Alpha  occ. eigenvalues --   -0.71488  -0.70428  -0.70402  -0.69175  -0.68264
 Alpha  occ. eigenvalues --   -0.67335  -0.66723  -0.66248  -0.64817  -0.62516
 Alpha  occ. eigenvalues --   -0.62171  -0.61596  -0.61201  -0.61043  -0.60098
 Alpha  occ. eigenvalues --   -0.58506  -0.57703  -0.57293  -0.57088  -0.55820
 Alpha  occ. eigenvalues --   -0.55520  -0.55133  -0.54746  -0.54537  -0.54229
 Alpha  occ. eigenvalues --   -0.53795  -0.53366  -0.53162  -0.52801  -0.52559
 Alpha  occ. eigenvalues --   -0.52078  -0.51792  -0.51675  -0.51346  -0.50944
 Alpha  occ. eigenvalues --   -0.50751  -0.50428  -0.49881  -0.49289  -0.49167
 Alpha  occ. eigenvalues --   -0.48974  -0.48554  -0.48355  -0.48268  -0.47982
 Alpha  occ. eigenvalues --   -0.47733  -0.47246  -0.47015  -0.46676  -0.46524
 Alpha  occ. eigenvalues --   -0.45828  -0.45727  -0.45297  -0.45183  -0.44906
 Alpha  occ. eigenvalues --   -0.44564  -0.44449  -0.44167  -0.43461  -0.43303
 Alpha  occ. eigenvalues --   -0.43185  -0.42926  -0.42404  -0.42213  -0.41369
 Alpha  occ. eigenvalues --   -0.40451  -0.39834  -0.39590  -0.39143  -0.38909
 Alpha  occ. eigenvalues --   -0.38642  -0.37502  -0.37071  -0.35682  -0.33666
 Alpha  occ. eigenvalues --   -0.32472  -0.32168  -0.31991  -0.31648  -0.26246
 Alpha  occ. eigenvalues --   -0.23848
 Alpha virt. eigenvalues --   -0.07965  -0.00593   0.01995   0.04553   0.04686
 Alpha virt. eigenvalues --    0.06742   0.07430   0.07982   0.09921   0.10260
 Alpha virt. eigenvalues --    0.10900   0.11879   0.12923   0.13443   0.13607

 Mulliken charges:
               1
     1  Mg   0.948396
     2  C    0.000456
     3  C   -0.064824
     4  C   -0.087400
     5  C   -0.085732
     6  N   -0.297856
     7  C   -0.038112
     8  C   -0.036581
     9  C   -0.151887
    10  C    0.082416
    11  C    0.029907
    12  C   -0.001063
    13  C   -0.097699
    14  H    0.043765
    15  N   -0.425816
    16  C    0.122569
    17  C   -0.157893
    18  C   -0.085108
    19  C    0.168977
    20  C    0.086412
    21  C    0.032028
    22  O   -0.271700
    23  C   -0.011370
    24  N   -0.428207
    25  C    0.087212
    26  C   -0.091945
    27  C   -0.113474
    28  C    0.082417
    29  C    0.055250
    30  C   -0.033204
    31  C   -0.022702
    32  N   -0.388356
    33  C    0.120731
    34  C   -0.174748
    35  C    0.038929
    36  C    0.121200
    37  C    0.098390
    38  C    0.025893
    39  O   -0.206340
    40  C   -0.074429
    41  C    0.254175
    42  O   -0.209757
    43  O   -0.358135
    44  C    0.118694
    45  H   -0.004342
    46  H   -0.015925
    47  H    0.009981
    48  H    0.028213
    49  H    0.041454
    50  H    0.039141
    51  H    0.042962
    52  H    0.043391
    53  H    0.044054
    54  H    0.047721
    55  H    0.049658
    56  H    0.043081
    57  H    0.069590
    58  H    0.065469
    59  H    0.029156
    60  H    0.067701
    61  H    0.050335
    62  H    0.051439
    63  H    0.031768
    64  H    0.027927
    65  H    0.049152
    66  H    0.044397
    67  H    0.015817
    68  H    0.024912
    69  H    0.036996
    70  H    0.036028
    71  H    0.032846
    72  H    0.043094
    73  H    0.055726
    74  H    0.023761
    75  H    0.063709
    76  H    0.047909
    77  H    0.048932
    78  H    0.048432
    79  H    0.062038
 Sum of Mulliken charges =  -0.00000

 Dipole moment (field-independent basis, Debye):
    X=             -1.4529    Y=              0.5102    Z=             -0.7347  Tot=              1.7061
 Quadrupole moment (field-independent basis, Debye-Ang):
   XX=           -269.4929   YY=           -248.8806   ZZ=           -254.8483
   XY=            -46.8870   XZ=              9.0505   YZ=              4.2345

 Normal termination of Gaussian 16 at Sun Sep 19 12:38:16 2021.
