 Gaussian 16, Revision A.03,
 Gaussian 16:  ES64L-G16RevA.03 25-Dec-2016

 --------------------------------
 #p wB97XD/Def2SVP td=(nstates=5)
 --------------------------------

 --------------------------------
 TDDFT excited states in gaussian
 --------------------------------
 Symbolic Z-matrix:
 Charge =  0 Multiplicity = 1

                         Standard orientation:
 ---------------------------------------------------------------------
 Center     Atomic      Atomic             Coordinates (Angstroms)
 Number     Number       Type             X           Y           Z
 ---------------------------------------------------------------------
      1         12           0      -13.155416   -0.597949    0.196474
      2          6           0      -13.341288    2.317956   -1.633529
      3          6           0      -11.688287    1.375233    2.800698
      4          6           0      -12.605916   -3.322336    1.907885
      5          6           0      -14.269026   -2.429171   -2.518614
      6          7           0      -12.390555    1.621931    0.423620
      7          6           0      -12.801742    2.597569   -0.368816
      8          6           0      -12.694362    3.975887    0.342735
      9          6           0      -11.662639    3.614622    1.467894
     10          6           0      -11.888010    2.102024    1.622398
     11          6           0      -10.186423    3.960698    1.060154
     12          6           0      -14.112293    4.300563    0.863185
     13          6           0      -14.312860    5.689692    1.484089
     14          1           0      -13.116035    6.566267    1.793977
     15          7           0      -12.398226   -1.001287    2.090122
     16          6           0      -11.879374   -0.028736    3.012552
     17          6           0      -11.661457   -0.741665    4.263831
     18          6           0      -12.036261   -2.102847    4.036998
     19          6           0      -12.342097   -2.220001    2.611948
     20          6           0      -11.163825   -0.077130    5.601342
     21          6           0      -12.132388   -3.244570    5.102258
     22          8           0      -12.348368   -4.360276    4.715248
     23          6           0      -11.920867   -2.951538    6.552136
     24          7           0      -13.493496   -2.610382   -0.219035
     25          6           0      -13.187115   -3.592885    0.657932
     26          6           0      -13.434996   -4.995350    0.103729
     27          6           0      -14.096443   -4.686431   -1.259391
     28          6           0      -13.941450   -3.113529   -1.342963
     29          6           0      -12.163280   -5.912232   -0.022829
     30          6           0      -15.472244   -5.250820   -1.506361
     31          6           0      -16.593859   -5.128966   -0.446785
     32          7           0      -13.697239   -0.231969   -1.712596
     33          6           0      -14.139654   -1.050577   -2.712017
     34          6           0      -14.524573   -0.201400   -3.819532
     35          6           0      -14.269999    1.168702   -3.467487
     36          6           0      -13.743898    1.067759   -2.150470
     37          6           0      -15.082558   -0.711618   -5.111415
     38          6           0      -14.268537    2.526375   -3.898096
     39          8           0      -14.584461    3.078506   -4.974512
     40          6           0      -13.383791    3.272684   -2.757774
     41          6           0      -14.015082    4.650793   -2.553128
     42          8           0      -15.143175    4.855392   -2.312688
     43          8           0      -13.042799    5.590713   -2.745059
     44          6           0      -13.290092    6.933550   -2.261664
     45          1           0      -11.181724    1.970897    3.562356
     46          1           0      -12.397181   -4.266913    2.414535
     47          1           0      -14.608955   -2.949115   -3.415865
     48          1           0      -12.250007    4.737643   -0.297704
     49          1           0      -12.026530    4.172188    2.331251
     50          1           0       -9.869370    4.861984    1.583361
     51          1           0      -10.162896    4.093873   -0.021595
     52          1           0       -9.463433    3.201137    1.357701
     53          1           0      -14.327204    3.601750    1.671209
     54          1           0      -14.882192    4.065920    0.128774
     55          1           0      -15.071371    5.704093    2.267068
     56          1           0      -14.893992    6.231718    0.737801
     57          1           0      -10.320656   -0.610656    6.041111
     58          1           0      -12.038268   -0.040281    6.250830
     59          1           0      -10.915863    0.968808    5.416720
     60          1           0      -12.527107   -3.724499    7.024999
     61          1           0      -12.374700   -2.010821    6.861781
     62          1           0      -10.920925   -2.753605    6.938094
     63          1           0      -14.139193   -5.450636    0.799734
     64          1           0      -13.484341   -4.991436   -2.108127
     65          1           0      -12.324715   -6.510587   -0.919101
     66          1           0      -12.225957   -6.517972    0.881430
     67          1           0      -11.254488   -5.312291    0.023763
     68          1           0      -15.251491   -6.315447   -1.436986
     69          1           0      -15.953715   -5.012347   -2.455330
     70          1           0      -17.008400   -6.044521   -0.026951
     71          1           0      -17.502471   -4.707948   -0.877150
     72          1           0      -16.225885   -4.545727    0.397455
     73          1           0      -15.205823    0.167820   -5.742828
     74          1           0      -16.078366   -1.126438   -4.949563
     75          1           0      -14.529852   -1.533070   -5.566352
     76          1           0      -12.371228    3.291317   -3.161380
     77          1           0      -13.062081    7.354549   -3.240988
     78          1           0      -12.690578    7.205957   -1.392796
     79          1           0      -14.334735    7.144880   -2.031797
     80         12           0       12.783493   -0.560126   -0.367329
     81          6           0       15.081127    1.960924   -0.049918
     82          6           0       10.360218    1.496863    0.679524
     83          6           0       10.694870   -3.202832   -0.497373
     84          6           0       15.532509   -2.857162   -0.988465
     85          7           0       12.810569    1.473412    0.513506
     86          6           0       13.816800    2.352978    0.439870
     87          6           0       13.337467    3.810494    0.941449
     88          6           0       11.799332    3.536223    1.136127
     89          6           0       11.606562    2.044439    0.796693
     90          6           0       11.259327    3.982372    2.508823
     91          6           0       13.643810    4.953677   -0.067313
     92          6           0       12.922660    6.327358    0.127252
     93          1           0       13.756950    7.510316    0.750036
     94          7           0       10.789348   -0.827532    0.087472
     95          6           0        9.945082    0.134314    0.397370
     96          6           0        8.612959   -0.438312    0.518750
     97          6           0        8.666368   -1.846337    0.290967
     98          6           0       10.092904   -2.014278   -0.063369
     99          6           0        7.373448    0.303267    0.991318
    100          6           0        7.588046   -2.917486    0.417212
    101          8           0        7.881328   -4.108534    0.466389
    102          6           0        6.162694   -2.493358    0.485204
    103          7           0       13.091535   -2.738944   -0.654044
    104          6           0       12.065922   -3.580288   -0.709519
    105          6           0       12.495206   -4.985813   -1.161974
    106          6           0       13.964908   -4.742266   -1.494790
    107          6           0       14.207930   -3.372705   -0.980031
    108          6           0       12.242874   -6.160279   -0.204886
    109          6           0       14.341234   -5.088269   -2.913245
    110          6           0       15.383317   -6.249532   -3.090893
    111          7           0       14.818923   -0.496336   -0.547604
    112          6           0       15.816359   -1.472441   -0.882758
    113          6           0       17.116318   -0.858196   -1.040446
    114          6           0       16.812064    0.495788   -0.727145
    115          6           0       15.449795    0.641574   -0.436378
    116          6           0       18.406391   -1.392799   -1.554466
    117          6           0       17.441054    1.790368   -0.800283
    118          8           0       18.524218    2.202324   -1.241762
    119          6           0       16.453884    2.795072   -0.260908
    120          6           0       16.937816    3.253859    1.132366
    121          8           0       17.405937    2.550606    2.040840
    122          8           0       16.752860    4.602442    1.207601
    123          6           0       17.184461    5.295673    2.462630
    124          1           0        9.466677    2.089326    0.887009
    125          1           0       10.141842   -4.135808   -0.370187
    126          1           0       16.284178   -3.578819   -1.313326
    127          1           0       13.845114    3.933544    1.897449
    128          1           0       11.269444    4.081561    0.355181
    129          1           0       10.303875    4.473383    2.327339
    130          1           0       11.905719    4.722551    2.980555
    131          1           0       11.132910    3.128000    3.173892
    132          1           0       13.220750    4.615238   -1.013121
    133          1           0       14.713228    5.163919   -0.078070
    134          1           0       12.146775    6.171053    0.877405
    135          1           0       12.567688    6.674631   -0.842445
    136          1           0        7.592309    1.350144    1.201559
    137          1           0        6.995936   -0.160260    1.902437
    138          1           0        6.571999    0.265085    0.254627
    139          1           0        6.034195   -1.796969   -0.343901
    140          1           0        5.730156   -2.001030    1.355664
    141          1           0        5.468706   -3.324604    0.365417
    142          1           0       11.951395   -5.215907   -2.077541
    143          1           0       14.550602   -5.421949   -0.876099
    144          1           0       11.931134   -6.971644   -0.862149
    145          1           0       11.521939   -5.881669    0.563565
    146          1           0       13.098641   -6.427398    0.415043
    147          1           0       14.856634   -4.195260   -3.265365
    148          1           0       13.489560   -5.351640   -3.539788
    149          1           0       15.699813   -6.618466   -2.114917
    150          1           0       16.254726   -5.825990   -3.591198
    151          1           0       15.071499   -7.062246   -3.747072
    152          1           0       18.259034   -2.386501   -1.976661
    153          1           0       19.019741   -1.553941   -0.668686
    154          1           0       18.734745   -0.660929   -2.293883
    155          1           0       16.477114    3.606859   -0.988177
    156          1           0       16.874096    4.812846    3.389587
    157          1           0       16.909422    6.348709    2.512418
    158          1           0       18.271760    5.221495    2.471966
 ---------------------------------------------------------------------

 SCF Done:  E(RwB97XD) =  -4070.60693770     A.U. after   19 cycles

 Excitation energies and oscillator strengths:

 Excited State   1:      Singlet-A      1.6633 eV  745.42 nm  f=0.4170  <S**2>=0.000
     309 -> 316        0.18011
     312 -> 313        0.67589
     309 <- 316        0.11156
 This state for optimization and/or second-order correction.
 Total Energy, E(TD-HF/TD-DFT) =  -4070.54581315
 Copying the excited state density for this state as the 1-particle RhoCI density.

 Excited State   2:      Singlet-A      1.6765 eV  739.54 nm  f=0.3594  <S**2>=0.000
     310 -> 315       -0.20015
     311 -> 314        0.67300
     310 <- 315       -0.11939

 Excited State   3:      Singlet-A      2.1629 eV  573.23 nm  f=0.0871  <S**2>=0.000
     310 -> 314        0.63318
     311 -> 315        0.30173

 Excited State   4:      Singlet-A      2.2223 eV  557.92 nm  f=0.1095  <S**2>=0.000
     309 -> 313        0.63694
     312 -> 316       -0.28921

 Excited State   5:      Singlet-A      3.3462 eV  370.52 nm  f=0.0451  <S**2>=0.000
     302 -> 314        0.24592
     302 -> 317       -0.17869
     304 -> 314       -0.41160
     304 -> 317        0.24496
     304 -> 320       -0.11266
     305 -> 314        0.15562
     308 -> 314        0.18607
     311 -> 315        0.18211

 The electronic state is 1-A.
 Alpha  occ. eigenvalues --  -46.95556 -46.94691 -19.30855 -19.29717 -19.25274
 Alpha  occ. eigenvalues --  -19.24601 -19.24413 -19.24211 -19.24142 -19.22759
 Alpha  occ. eigenvalues --  -14.46681 -14.46407 -14.46365 -14.46290 -14.44708
 Alpha  occ. eigenvalues --  -14.43983 -14.43978 -14.43901 -10.43430 -10.42858
 Alpha  occ. eigenvalues --  -10.40102 -10.39274 -10.39224 -10.37371 -10.35944
 Alpha  occ. eigenvalues --  -10.35745 -10.35291 -10.35023 -10.34827 -10.34709
 Alpha  occ. eigenvalues --  -10.34660 -10.34525 -10.34505 -10.34455 -10.34389
 Alpha  occ. eigenvalues --  -10.34371 -10.34047 -10.33999 -10.33761 -10.33458
 Alpha  occ. eigenvalues --  -10.33367 -10.33037 -10.32877 -10.32824 -10.32812
 Alpha  occ. eigenvalues --  -10.32757 -10.32655 -10.32457 -10.32240 -10.32205
 Alpha  occ. eigenvalues --  -10.32176 -10.32147 -10.31936 -10.31876 -10.31851
 Alpha  occ. eigenvalues --  -10.31830 -10.31810 -10.31786 -10.31694 -10.31686
 Alpha  occ. eigenvalues --  -10.31625 -10.31597 -10.31067 -10.31001 -10.30786
 Alpha  occ. eigenvalues --  -10.30746 -10.30737 -10.30663 -10.30629 -10.30599
 Alpha  occ. eigenvalues --  -10.30454 -10.30433 -10.30261 -10.30213 -10.30203
 Alpha  occ. eigenvalues --  -10.30202 -10.30136 -10.30127 -10.30068 -10.29931
 Alpha  occ. eigenvalues --  -10.29782 -10.29554 -10.29526 -10.29135 -10.29007
 Alpha  occ. eigenvalues --  -10.28452  -3.21523  -3.20755  -1.95104  -1.94638
 Alpha  occ. eigenvalues --   -1.94506  -1.94348  -1.93898  -1.93716  -1.19869
 Alpha  occ. eigenvalues --   -1.17744  -1.13774  -1.12639  -1.12101  -1.10371
 Alpha  occ. eigenvalues --   -1.10206  -1.08742  -1.07752  -1.07300  -1.06430
 Alpha  occ. eigenvalues --   -1.06169  -1.05928  -1.05193  -1.05006  -1.04171
 Alpha  occ. eigenvalues --   -0.95123  -0.93259  -0.91795  -0.91282  -0.90673
 Alpha  occ. eigenvalues --   -0.90609  -0.90477  -0.90122  -0.89523  -0.89328
 Alpha  occ. eigenvalues --   -0.89104  -0.88969  -0.88478  -0.87675  -0.86128
 Alpha  occ. eigenvalues --   -0.86068  -0.85686  -0.85239  -0.84398  -0.84310
 Alpha  occ. eigenvalues --   -0.84083  -0.83731  -0.83456  -0.83054  -0.82327
 Alpha  occ. eigenvalues --   -0.82024  -0.80517  -0.80018  -0.79493  -0.79341
 Alpha  occ. eigenvalues --   -0.78819  -0.78689  -0.78035  -0.77907  -0.77518
 Alpha  occ. eigenvalues --   -0.77307  -0.74759  -0.74651  -0.74064  -0.73684
 Alpha  occ. eigenvalues --   -0.72246  -0.71381  -0.71083  -0.70946  -0.70165
 Alpha  occ. eigenvalues --   -0.69718  -0.69600  -0.68263  -0.67791  -0.67238
 Alpha  occ. eigenvalues --   -0.66937  -0.66913  -0.66435  -0.66361  -0.66206
 Alpha  occ. eigenvalues --   -0.65925  -0.64639  -0.64431  -0.62754  -0.62556
 Alpha  occ. eigenvalues --   -0.61708  -0.61640  -0.61228  -0.60904  -0.60890
 Alpha  occ. eigenvalues --   -0.60637  -0.60234  -0.60002  -0.59957  -0.59387
 Alpha  occ. eigenvalues --   -0.58332  -0.58201  -0.58183  -0.57714  -0.57664
 Alpha  occ. eigenvalues --   -0.57357  -0.57101  -0.56484  -0.56272  -0.56082
 Alpha  occ. eigenvalues --   -0.55704  -0.55702  -0.55549  -0.55367  -0.54976
 Alpha  occ. eigenvalues --   -0.54762  -0.54500  -0.54395  -0.54281  -0.54134
 Alpha  occ. eigenvalues --   -0.54076  -0.53791  -0.53643  -0.53144  -0.53067
 Alpha  occ. eigenvalues --   -0.52794  -0.52724  -0.52668  -0.52473  -0.52141
 Alpha  occ. eigenvalues --   -0.51983  -0.51884  -0.51755  -0.51698  -0.51619
 Alpha  occ. eigenvalues --   -0.51569  -0.51331  -0.51294  -0.51286  -0.51018
 Alpha  occ. eigenvalues --   -0.50900  -0.50832  -0.50505  -0.50259  -0.50155
 Alpha  occ. eigenvalues --   -0.50146  -0.49981  -0.49779  -0.49642  -0.49641
 Alpha  occ. eigenvalues --   -0.49258  -0.48899  -0.48751  -0.48626  -0.48551
 Alpha  occ. eigenvalues --   -0.48343  -0.48093  -0.47997  -0.47899  -0.47832
 Alpha  occ. eigenvalues --   -0.47614  -0.47247  -0.47024  -0.46930  -0.46692
 Alpha  occ. eigenvalues --   -0.46692  -0.46458  -0.46346  -0.46085  -0.45950
 Alpha  occ. eigenvalues --   -0.45879  -0.45794  -0.45554  -0.45372  -0.45281
 Alpha  occ. eigenvalues --   -0.44989  -0.44930  -0.44860  -0.44737  -0.44705
 Alpha  occ. eigenvalues --   -0.44346  -0.44197  -0.44133  -0.44027  -0.43996
 Alpha  occ. eigenvalues --   -0.43912  -0.43863  -0.43776  -0.43651  -0.43471
 Alpha  occ. eigenvalues --   -0.43420  -0.43121  -0.42928  -0.42741  -0.42368
 Alpha  occ. eigenvalues --   -0.42201  -0.41576  -0.41394  -0.41203  -0.41008
 Alpha  occ. eigenvalues --   -0.40371  -0.40201  -0.39938  -0.39804  -0.39644
 Alpha  occ. eigenvalues --   -0.39249  -0.39199  -0.38704  -0.38463  -0.38229
 Alpha  occ. eigenvalues --   -0.37904  -0.37835  -0.37259  -0.36290  -0.36024
 Alpha  occ. eigenvalues --   -0.36013  -0.35652  -0.35589  -0.33947  -0.33748
 Alpha  occ. eigenvalues --   -0.33352  -0.33099  -0.32812  -0.32584  -0.32102
 Alpha  occ. eigenvalues --   -0.31973  -0.31835  -0.31589  -0.25858  -0.25812
 Alpha  occ. eigenvalues --   -0.22984  -0.22939
 Alpha virt. eigenvalues --   -0.06923  -0.06870  -0.00055   0.00133   0.02157
 Alpha virt. eigenvalues --    0.02603   0.04593   0.04636   0.05053   0.06027
 Alpha virt. eigenvalues --    0.07456   0.07808   0.07917   0.08140   0.08422

 Mulliken charges:
               1
     1  Mg   0.965918
     2  C   -0.025678
     3  C   -0.077150
     4  C   -0.088067
     5  C   -0.117627
     6  N   -0.288334
     7  C   -0.035950
     8  C   -0.084267
     9  C   -0.089523
    10  C    0.019556
    11  C    0.040489
    12  C    0.000338
    13  C   -0.089394
    14  H    0.043993
    15  N   -0.478777
    16  C    0.175896
    17  C   -0.189464
    18  C   -0.081192
    19  C    0.188841
    20  C    0.062566
    21  C    0.064973
    22  O   -0.213633
    23  C   -0.007448
    24  N   -0.342010
    25  C    0.014471
    26  C   -0.099263
    27  C   -0.054308
    28  C    0.091089
    29  C    0.035498
    30  C   -0.010019
    31  C   -0.072607
    32  N   -0.486585
    33  C    0.144511
    34  C   -0.184367
    35  C   -0.031058
    36  C    0.180404
    37  C    0.067889
    38  C    0.153415
    39  O   -0.233680
    40  C   -0.147687
    41  C    0.243053
    42  O   -0.185809
    43  O   -0.368706
    44  C    0.110568
    45  H    0.003657
    46  H    0.009700
    47  H   -0.005400
    48  H    0.019480
    49  H    0.022978
    50  H    0.039724
    51  H    0.043800
    52  H    0.040120
    53  H    0.025840
    54  H    0.066008
    55  H    0.042842
    56  H    0.038226
    57  H    0.058922
    58  H    0.057851
    59  H    0.030107
    60  H    0.058318
    61  H    0.020638
    62  H    0.069223
    63  H    0.048028
    64  H    0.031221
    65  H    0.046391
    66  H    0.047987
    67  H    0.054082
    68  H    0.029292
    69  H    0.040744
    70  H    0.032888
    71  H    0.032960
    72  H    0.039539
    73  H    0.062308
    74  H    0.043065
    75  H    0.047415
    76  H    0.085588
    77  H    0.070083
    78  H    0.062509
    79  H    0.063002
    80  Mg   0.970744
    81  C   -0.074941
    82  C   -0.078804
    83  C   -0.049356
    84  C   -0.066374
    85  N   -0.355746
    86  C   -0.025945
    87  C   -0.008874
    88  C   -0.153393
    89  C    0.119904
    90  C    0.024340
    91  C   -0.009723
    92  C   -0.131298
    93  H    0.015007
    94  N   -0.438388
    95  C    0.116723
    96  C   -0.187045
    97  C   -0.059071
    98  C    0.130829
    99  C    0.069536
   100  C    0.087695
   101  O   -0.227298
   102  C   -0.033284
   103  N   -0.274205
   104  C   -0.007334
   105  C   -0.114783
   106  C   -0.055364
   107  C    0.009715
   108  C    0.036083
   109  C    0.000395
   110  C   -0.068109
   111  N   -0.456956
   112  C    0.123504
   113  C   -0.170374
   114  C   -0.077018
   115  C    0.206020
   116  C    0.109163
   117  C    0.102795
   118  O   -0.239361
   119  C   -0.055564
   120  C    0.293542
   121  O   -0.266031
   122  O   -0.365188
   123  C    0.138554
   124  H   -0.019936
   125  H    0.029565
   126  H    0.004127
   127  H    0.040421
   128  H    0.037085
   129  H    0.033927
   130  H    0.041446
   131  H    0.049612
   132  H    0.031982
   133  H    0.073462
   134  H    0.048255
   135  H    0.065681
   136  H    0.031669
   137  H    0.051379
   138  H    0.041237
   139  H    0.048834
   140  H    0.063018
   141  H    0.052485
   142  H    0.038904
   143  H    0.021337
   144  H    0.046565
   145  H    0.044251
   146  H    0.029764
   147  H    0.030522
   148  H    0.036967
   149  H    0.033078
   150  H    0.033451
   151  H    0.042015
   152  H    0.019347
   153  H    0.065433
   154  H    0.081115
   155  H    0.069661
   156  H    0.058543
   157  H    0.063574
   158  H    0.056502
 Sum of Mulliken charges =  -0.00000

 Dipole moment (field-independent basis, Debye):
    X=             -3.4395    Y=              0.2065    Z=              3.1800  Tot=              4.6888
 Quadrupole moment (field-independent basis, Debye-Ang):
   XX=           -696.7851   YY=           -476.5923   ZZ=           -510.2323
   XY=              8.6867   XZ=            -66.0131   YZ=             53.7550

 Normal termination of Gaussian 16 at Sat Sep 18 23:58:31 2021.
