 Gaussian 16, Revision A.03,
 Gaussian 16:  ES64L-G16RevA.03 25-Dec-2016

 --------------------------------
 #p wB97XD/Def2SVP td=(nstates=5)
 --------------------------------

 --------------------------------
 TDDFT excited states in gaussian
 --------------------------------
 Symbolic Z-matrix:
 Charge =  0 Multiplicity = 1

                         Standard orientation:
 ---------------------------------------------------------------------
 Center     Atomic      Atomic             Coordinates (Angstroms)
 Number     Number       Type             X           Y           Z
 ---------------------------------------------------------------------
      1         12           0      -30.438958    0.018839    0.098301
      2          6           0      -27.169419    0.660571   -0.757364
      3          6           0      -29.648223   -3.131791    1.182589
      4          6           0      -33.736984   -0.536242    1.140565
      5          6           0      -31.185931    3.381386   -0.149722
      6          7           0      -28.526764   -0.967311    0.367205
      7          6           0      -27.298877   -0.629158   -0.208151
      8          6           0      -26.228643   -1.679696    0.098843
      9          6           0      -27.143311   -2.854974    0.527937
     10          6           0      -28.550429   -2.286802    0.804207
     11          6           0      -27.090661   -4.051269   -0.447354
     12          6           0      -25.250860   -1.213796    1.195765
     13          6           0      -23.732364   -1.532821    0.971859
     14          1           0      -22.927792   -1.766108    2.190533
     15          7           0      -31.509214   -1.597798    0.960704
     16          6           0      -31.033633   -2.831342    1.247084
     17          6           0      -32.069228   -3.772893    1.551114
     18          6           0      -33.287325   -3.086862    1.415410
     19          6           0      -32.880122   -1.649784    1.125719
     20          6           0      -31.836638   -5.265694    1.792920
     21          6           0      -34.733051   -3.674638    1.601547
     22          8           0      -34.848545   -4.865001    1.990650
     23          6           0      -36.062033   -2.879008    1.246009
     24          7           0      -32.135187    1.301633    0.733938
     25          6           0      -33.380235    0.819462    0.966479
     26          6           0      -34.434242    1.896680    0.981199
     27          6           0      -33.638971    3.169765    0.619842
     28          6           0      -32.245013    2.600838    0.343092
     29          6           0      -35.677080    1.607678    0.075510
     30          6           0      -33.744750    4.319441    1.731474
     31          6           0      -34.652415    5.495102    1.351613
     32          7           0      -29.440302    1.696360   -0.408945
     33          6           0      -29.852775    3.043143   -0.511918
     34          6           0      -28.798168    3.823126   -1.172957
     35          6           0      -27.779557    2.895772   -1.342625
     36          6           0      -28.191169    1.689860   -0.751664
     37          6           0      -28.764765    5.259304   -1.556255
     38          6           0      -26.408468    2.735292   -1.847453
     39          8           0      -25.703915    3.457406   -2.571889
     40          6           0      -25.966305    1.251463   -1.526150
     41          6           0      -25.656813    0.476335   -2.799845
     42          8           0      -26.317340    0.444812   -3.842963
     43          8           0      -24.453998   -0.106731   -2.531972
     44          6           0      -23.801115   -0.785465   -3.638860
     45          1           0      -29.409868   -4.140540    1.525932
     46          1           0      -34.805454   -0.598945    1.357373
     47          1           0      -31.358331    4.453891   -0.259825
     48          1           0      -25.644842   -1.879580   -0.800283
     49          1           0      -26.701614   -3.182587    1.468989
     50          1           0      -26.235021   -4.164400   -1.113039
     51          1           0      -27.935445   -3.913003   -1.121962
     52          1           0      -27.174972   -5.007449    0.068557
     53          1           0      -25.541653   -1.547117    2.191606
     54          1           0      -25.435293   -0.144034    1.297138
     55          1           0      -23.277868   -0.713398    0.415079
     56          1           0      -23.656068   -2.463857    0.408472
     57          1           0      -32.452192   -5.779734    1.055055
     58          1           0      -31.947695   -5.487603    2.854369
     59          1           0      -30.802564   -5.429377    1.489739
     60          1           0      -36.296205   -2.277883    2.123813
     61          1           0      -36.834229   -3.633070    1.095479
     62          1           0      -35.894610   -2.429609    0.266804
     63          1           0      -34.815201    1.977906    1.999304
     64          1           0      -33.846033    3.610403   -0.355103
     65          1           0      -35.952492    2.479311   -0.517575
     66          1           0      -36.553899    1.308491    0.649481
     67          1           0      -35.469261    0.736474   -0.544339
     68          1           0      -32.784519    4.794453    1.932105
     69          1           0      -34.035053    3.886804    2.688830
     70          1           0      -35.212373    5.824173    2.227154
     71          1           0      -35.352625    5.183464    0.576872
     72          1           0      -34.116816    6.357117    0.954340
     73          1           0      -29.753198    5.672661   -1.355562
     74          1           0      -28.308304    5.371257   -2.539923
     75          1           0      -28.128752    5.748945   -0.818019
     76          1           0      -25.117301    1.209280   -0.843346
     77          1           0      -24.469853   -1.413256   -4.229100
     78          1           0      -22.932343   -1.399359   -3.401302
     79          1           0      -23.377108   -0.048640   -4.321548
     80         12           0       29.754442    0.656022    0.560845
     81          6           0       28.801362   -2.470749   -0.953663
     82          6           0       29.011211    2.224397   -2.292854
     83          6           0       31.465151    3.286935    1.736651
     84          6           0       30.913479   -1.226111    3.284532
     85          7           0       29.058300   -0.058184   -1.372314
     86          6           0       28.548223   -1.318309   -1.728398
     87          6           0       27.805911   -1.265744   -3.117918
     88          6           0       27.960684    0.231071   -3.524312
     89          6           0       28.674013    0.864303   -2.300150
     90          6           0       28.683453    0.527089   -4.813878
     91          6           0       26.282679   -1.815715   -3.037108
     92          6           0       25.926258   -2.905650   -4.055517
     93          1           0       24.722080   -2.531535   -4.997510
     94          7           0       30.061000    2.558476   -0.126601
     95          6           0       29.695349    3.034208   -1.321241
     96          6           0       30.113267    4.426037   -1.498027
     97          6           0       30.918763    4.690007   -0.336804
     98          6           0       30.862332    3.483127    0.494664
     99          6           0       29.759838    5.234435   -2.671829
    100          6           0       31.748589    5.996823   -0.135710
    101          8           0       32.369844    6.216277    0.890655
    102          6           0       31.821051    7.076765   -1.167625
    103          7           0       30.962767    0.953715    2.218489
    104          6           0       31.467385    2.204539    2.557582
    105          6           0       32.185615    2.161688    3.946283
    106          6           0       31.681368    0.800806    4.556255
    107          6           0       31.098292    0.138959    3.307920
    108          6           0       33.726120    2.426477    3.980079
    109          6           0       30.607450    0.960539    5.667049
    110          6           0       30.665549    0.049093    6.866885
    111          7           0       29.901626   -1.420690    1.071220
    112          6           0       30.392399   -2.010114    2.201567
    113          6           0       30.080981   -3.504997    2.145246
    114          6           0       29.418955   -3.713878    0.959573
    115          6           0       29.395502   -2.433004    0.308362
    116          6           0       30.383486   -4.446307    3.288867
    117          6           0       28.792616   -4.677038    0.071586
    118          8           0       28.679793   -5.894151    0.327339
    119          6           0       28.423089   -3.897100   -1.326652
    120          6           0       29.219075   -4.346872   -2.533987
    121          8           0       30.465722   -4.357922   -2.509401
    122          8           0       28.412159   -4.889123   -3.535118
    123          6           0       29.173837   -5.690587   -4.485938
    124          1           0       28.690499    2.818282   -3.151039
    125          1           0       31.943092    4.209735    2.071016
    126          1           0       31.188847   -1.724388    4.216885
    127          1           0       28.397704   -1.951306   -3.724137
    128          1           0       26.948884    0.551407   -3.776577
    129          1           0       29.067013   -0.366595   -5.306312
    130          1           0       29.568872    1.016520   -4.409599
    131          1           0       28.068911    1.058810   -5.540941
    132          1           0       25.694672   -0.909560   -3.180133
    133          1           0       26.071084   -2.121174   -2.012746
    134          1           0       25.764029   -3.820941   -3.486287
    135          1           0       26.780711   -3.073986   -4.712258
    136          1           0       30.541157    5.704152   -3.268514
    137          1           0       29.327746    6.142184   -2.252194
    138          1           0       28.942842    4.846448   -3.280568
    139          1           0       30.792685    7.418999   -1.289602
    140          1           0       32.110363    6.593734   -2.101362
    141          1           0       32.533341    7.804627   -0.781108
    142          1           0       31.719678    2.977220    4.499426
    143          1           0       32.495958    0.151079    4.875386
    144          1           0       33.965368    2.729917    2.961123
    145          1           0       34.317450    1.586831    4.344234
    146          1           0       33.975070    3.331411    4.535735
    147          1           0       29.732995    0.750711    5.051393
    148          1           0       30.489403    1.975434    6.047273
    149          1           0       30.463478    0.687157    7.727281
    150          1           0       31.650315   -0.392761    7.022266
    151          1           0       29.791342   -0.597975    6.790898
    152          1           0       30.870960   -3.858843    4.066701
    153          1           0       31.127378   -5.165422    2.946667
    154          1           0       29.471018   -4.960300    3.590375
    155          1           0       27.348171   -3.977833   -1.488344
    156          1           0       28.985921   -6.762681   -4.447477
    157          1           0       30.252833   -5.547562   -4.425810
    158          1           0       28.881258   -5.341761   -5.475968
 ---------------------------------------------------------------------

 SCF Done:  E(RwB97XD) =  -4070.61454954     A.U. after   19 cycles

 Excitation energies and oscillator strengths:

 Excited State   1:      Singlet-A      1.6412 eV  755.44 nm  f=0.4105  <S**2>=0.000
     310 -> 316       -0.17865
     312 -> 314        0.68585
     310 <- 316       -0.11673
 This state for optimization and/or second-order correction.
 Total Energy, E(TD-HF/TD-DFT) =  -4070.55423619
 Copying the excited state density for this state as the 1-particle RhoCI density.

 Excited State   2:      Singlet-A      1.6650 eV  744.65 nm  f=0.3657  <S**2>=0.000
     309 -> 315        0.17867
     311 -> 313        0.68382
     309 <- 315        0.11336

 Excited State   3:      Singlet-A      2.1965 eV  564.45 nm  f=0.0912  <S**2>=0.000
     309 -> 313        0.62316
     311 -> 315       -0.31716

 Excited State   4:      Singlet-A      2.2310 eV  555.74 nm  f=0.0893  <S**2>=0.000
     310 -> 314        0.62834
     312 -> 316        0.31482

 Excited State   5:      Singlet-A      3.4369 eV  360.75 nm  f=0.1122  <S**2>=0.000
     299 -> 318       -0.10306
     302 -> 313       -0.23222
     302 -> 315       -0.10677
     302 -> 318       -0.21909
     302 -> 319       -0.12528
     303 -> 313        0.44705
     303 -> 318        0.16231
     309 -> 313        0.11400
     311 -> 315        0.29104

 The electronic state is 1-A.
 Alpha  occ. eigenvalues --  -46.95537 -46.94745 -19.31939 -19.31586 -19.25823
 Alpha  occ. eigenvalues --  -19.25219 -19.25070 -19.24802 -19.23529 -19.23482
 Alpha  occ. eigenvalues --  -14.47185 -14.47037 -14.46769 -14.46251 -14.44883
 Alpha  occ. eigenvalues --  -14.44309 -14.43937 -14.43682 -10.44723 -10.43817
 Alpha  occ. eigenvalues --  -10.40773 -10.40613 -10.38859 -10.38764 -10.36335
 Alpha  occ. eigenvalues --  -10.35793 -10.35753 -10.35670 -10.35487 -10.35249
 Alpha  occ. eigenvalues --  -10.35123 -10.34962 -10.34740 -10.34534 -10.34441
 Alpha  occ. eigenvalues --  -10.34361 -10.34117 -10.34042 -10.33769 -10.33650
 Alpha  occ. eigenvalues --  -10.33483 -10.33187 -10.33063 -10.33018 -10.32777
 Alpha  occ. eigenvalues --  -10.32720 -10.32647 -10.32566 -10.32411 -10.32341
 Alpha  occ. eigenvalues --  -10.32211 -10.32181 -10.32147 -10.32074 -10.32008
 Alpha  occ. eigenvalues --  -10.31989 -10.31798 -10.31780 -10.31741 -10.31722
 Alpha  occ. eigenvalues --  -10.31504 -10.31419 -10.31417 -10.31403 -10.31294
 Alpha  occ. eigenvalues --  -10.31267 -10.31012 -10.31010 -10.30996 -10.30845
 Alpha  occ. eigenvalues --  -10.30642 -10.30552 -10.30522 -10.30272 -10.30053
 Alpha  occ. eigenvalues --  -10.29997 -10.29948 -10.29841 -10.29823 -10.29803
 Alpha  occ. eigenvalues --  -10.29569 -10.29365 -10.29341 -10.29241 -10.29206
 Alpha  occ. eigenvalues --  -10.28578  -3.21515  -3.20818  -1.95069  -1.94624
 Alpha  occ. eigenvalues --   -1.94511  -1.94391  -1.93929  -1.93818  -1.19027
 Alpha  occ. eigenvalues --   -1.18534  -1.12287  -1.11346  -1.10918  -1.10553
 Alpha  occ. eigenvalues --   -1.10175  -1.09959  -1.06683  -1.06038  -1.05929
 Alpha  occ. eigenvalues --   -1.05601  -1.05334  -1.04637  -1.04181  -1.03914
 Alpha  occ. eigenvalues --   -0.94640  -0.93369  -0.90997  -0.90825  -0.90727
 Alpha  occ. eigenvalues --   -0.90607  -0.90576  -0.89924  -0.89289  -0.89198
 Alpha  occ. eigenvalues --   -0.89139  -0.88969  -0.88401  -0.88080  -0.86246
 Alpha  occ. eigenvalues --   -0.86196  -0.85780  -0.85559  -0.84621  -0.84417
 Alpha  occ. eigenvalues --   -0.83836  -0.83583  -0.83167  -0.83097  -0.82198
 Alpha  occ. eigenvalues --   -0.82147  -0.80384  -0.79876  -0.79540  -0.79444
 Alpha  occ. eigenvalues --   -0.78879  -0.78702  -0.78146  -0.77819  -0.77254
 Alpha  occ. eigenvalues --   -0.76654  -0.74704  -0.74461  -0.73728  -0.72952
 Alpha  occ. eigenvalues --   -0.71132  -0.71015  -0.70926  -0.70337  -0.69843
 Alpha  occ. eigenvalues --   -0.69840  -0.69293  -0.68682  -0.68057  -0.67267
 Alpha  occ. eigenvalues --   -0.67085  -0.66985  -0.66944  -0.66903  -0.66580
 Alpha  occ. eigenvalues --   -0.66364  -0.64675  -0.64598  -0.62255  -0.61921
 Alpha  occ. eigenvalues --   -0.61754  -0.61620  -0.60953  -0.60891  -0.60611
 Alpha  occ. eigenvalues --   -0.60505  -0.60346  -0.59707  -0.59321  -0.59229
 Alpha  occ. eigenvalues --   -0.58253  -0.58004  -0.57741  -0.57411  -0.57248
 Alpha  occ. eigenvalues --   -0.57057  -0.56972  -0.56857  -0.55725  -0.55709
 Alpha  occ. eigenvalues --   -0.55448  -0.55334  -0.55119  -0.55118  -0.54777
 Alpha  occ. eigenvalues --   -0.54548  -0.54543  -0.54360  -0.53922  -0.53763
 Alpha  occ. eigenvalues --   -0.53550  -0.53540  -0.53450  -0.53300  -0.53186
 Alpha  occ. eigenvalues --   -0.53180  -0.53066  -0.53050  -0.52793  -0.52779
 Alpha  occ. eigenvalues --   -0.52186  -0.51873  -0.51564  -0.51389  -0.51343
 Alpha  occ. eigenvalues --   -0.51253  -0.51071  -0.51033  -0.50730  -0.50573
 Alpha  occ. eigenvalues --   -0.50439  -0.50263  -0.50255  -0.50097  -0.50082
 Alpha  occ. eigenvalues --   -0.49871  -0.49761  -0.49699  -0.49407  -0.49186
 Alpha  occ. eigenvalues --   -0.49129  -0.48930  -0.48830  -0.48688  -0.48523
 Alpha  occ. eigenvalues --   -0.48430  -0.48301  -0.47987  -0.47959  -0.47893
 Alpha  occ. eigenvalues --   -0.47602  -0.47463  -0.47325  -0.47160  -0.46744
 Alpha  occ. eigenvalues --   -0.46506  -0.46362  -0.46323  -0.46083  -0.46076
 Alpha  occ. eigenvalues --   -0.45951  -0.45721  -0.45713  -0.45667  -0.45558
 Alpha  occ. eigenvalues --   -0.45466  -0.45215  -0.45154  -0.44958  -0.44942
 Alpha  occ. eigenvalues --   -0.44820  -0.44601  -0.44521  -0.44383  -0.44108
 Alpha  occ. eigenvalues --   -0.43904  -0.43727  -0.43636  -0.43502  -0.43087
 Alpha  occ. eigenvalues --   -0.43036  -0.42728  -0.42688  -0.42514  -0.42460
 Alpha  occ. eigenvalues --   -0.42095  -0.41620  -0.41428  -0.41282  -0.41031
 Alpha  occ. eigenvalues --   -0.40695  -0.40301  -0.40208  -0.40081  -0.39749
 Alpha  occ. eigenvalues --   -0.39490  -0.39434  -0.39429  -0.38926  -0.38503
 Alpha  occ. eigenvalues --   -0.38397  -0.38037  -0.37087  -0.36860  -0.36788
 Alpha  occ. eigenvalues --   -0.36437  -0.35289  -0.35163  -0.33757  -0.33710
 Alpha  occ. eigenvalues --   -0.33513  -0.33318  -0.32704  -0.32611  -0.32577
 Alpha  occ. eigenvalues --   -0.32416  -0.31953  -0.31940  -0.26145  -0.26099
 Alpha  occ. eigenvalues --   -0.22913  -0.22580
 Alpha virt. eigenvalues --   -0.06927  -0.06768  -0.00134   0.00592   0.01974
 Alpha virt. eigenvalues --    0.02229   0.04051   0.04284   0.04804   0.04882
 Alpha virt. eigenvalues --    0.05114   0.06998   0.07142   0.07402   0.08012

 Mulliken charges:
               1
     1  Mg   0.973315
     2  C   -0.080349
     3  C   -0.109942
     4  C   -0.086304
     5  C   -0.082909
     6  N   -0.403855
     7  C   -0.008547
     8  C   -0.052898
     9  C   -0.091956
    10  C    0.125763
    11  C    0.013984
    12  C    0.023141
    13  C   -0.127719
    14  H    0.043599
    15  N   -0.430212
    16  C    0.152912
    17  C   -0.190623
    18  C   -0.078507
    19  C    0.194691
    20  C    0.116419
    21  C    0.044355
    22  O   -0.256229
    23  C   -0.009164
    24  N   -0.324917
    25  C    0.022946
    26  C   -0.076415
    27  C   -0.052211
    28  C    0.038410
    29  C    0.010524
    30  C   -0.007621
    31  C   -0.058081
    32  N   -0.440990
    33  C    0.101314
    34  C   -0.206481
    35  C   -0.044044
    36  C    0.153187
    37  C    0.107369
    38  C    0.155630
    39  O   -0.229721
    40  C   -0.059931
    41  C    0.289135
    42  O   -0.247452
    43  O   -0.356424
    44  C    0.133480
    45  H    0.007811
    46  H   -0.019726
    47  H   -0.011116
    48  H    0.025035
    49  H    0.032693
    50  H    0.036828
    51  H    0.034838
    52  H    0.038409
    53  H    0.030660
    54  H    0.030147
    55  H    0.066465
    56  H    0.049611
    57  H    0.065600
    58  H    0.072125
    59  H    0.012140
    60  H    0.080680
    61  H    0.058282
    62  H    0.060665
    63  H    0.046736
    64  H    0.034047
    65  H    0.046869
    66  H    0.033555
    67  H    0.037716
    68  H    0.032982
    69  H    0.028787
    70  H    0.039101
    71  H    0.028616
    72  H    0.041141
    73  H    0.021208
    74  H    0.075379
    75  H    0.050508
    76  H    0.064430
    77  H    0.055258
    78  H    0.052192
    79  H    0.053659
    80  Mg   0.976036
    81  C   -0.099735
    82  C   -0.080625
    83  C   -0.088196
    84  C   -0.101362
    85  N   -0.370338
    86  C   -0.011400
    87  C   -0.072367
    88  C   -0.107081
    89  C    0.104452
    90  C    0.024209
    91  C    0.006613
    92  C   -0.108915
    93  H    0.027743
    94  N   -0.454631
    95  C    0.114071
    96  C   -0.149544
    97  C   -0.076318
    98  C    0.118130
    99  C    0.069434
   100  C    0.031615
   101  O   -0.238339
   102  C    0.011655
   103  N   -0.400995
   104  C    0.093377
   105  C   -0.058192
   106  C   -0.103763
   107  C    0.063850
   108  C    0.035211
   109  C   -0.016664
   110  C   -0.026195
   111  N   -0.388673
   112  C    0.149050
   113  C   -0.228817
   114  C    0.015714
   115  C    0.154353
   116  C    0.098518
   117  C    0.146801
   118  O   -0.221206
   119  C   -0.037231
   120  C    0.292831
   121  O   -0.256294
   122  O   -0.367205
   123  C    0.121083
   124  H   -0.014044
   125  H    0.016143
   126  H   -0.003790
   127  H    0.041647
   128  H    0.034179
   129  H    0.028906
   130  H    0.041580
   131  H    0.042997
   132  H    0.031997
   133  H    0.037984
   134  H    0.064379
   135  H    0.054507
   136  H    0.046791
   137  H    0.028279
   138  H    0.042602
   139  H    0.049490
   140  H    0.052087
   141  H    0.067741
   142  H    0.030979
   143  H    0.029183
   144  H    0.038579
   145  H    0.045334
   146  H    0.035503
   147  H    0.029344
   148  H    0.034950
   149  H    0.028929
   150  H    0.041847
   151  H    0.043811
   152  H    0.023015
   153  H    0.059022
   154  H    0.067083
   155  H    0.058131
   156  H    0.063449
   157  H    0.072072
   158  H    0.044636
 Sum of Mulliken charges =  -0.00000

 Dipole moment (field-independent basis, Debye):
    X=             -4.6717    Y=              1.6777    Z=              0.1138  Tot=              4.9651
 Quadrupole moment (field-independent basis, Debye-Ang):
   XX=           -517.8656   YY=           -535.3944   ZZ=           -488.2030
   XY=             39.7776   XZ=            -63.9131   YZ=             15.1363

 Normal termination of Gaussian 16 at Mon Sep 20 18:03:48 2021.
