 Gaussian 16, Revision A.03,
 Gaussian 16:  ES64L-G16RevA.03 25-Dec-2016

 --------------------------------
 #p wB97XD/Def2SVP td=(nstates=5)
 --------------------------------

 --------------------------------
 TDDFT excited states in gaussian
 --------------------------------
 Symbolic Z-matrix:
 Charge =  0 Multiplicity = 1

                         Standard orientation:
 ---------------------------------------------------------------------
 Center     Atomic      Atomic             Coordinates (Angstroms)
 Number     Number       Type             X           Y           Z
 ---------------------------------------------------------------------
      1         12           0       12.651091   -0.073555    0.326798
      2          6           0        9.253565   -0.498264   -0.716589
      3          6           0       13.247260    1.365662   -2.709039
      4          6           0       15.740278   -0.099276    1.042958
      5          6           0       12.057827   -2.510761    2.746245
      6          7           0       11.335523    0.328251   -1.407699
      7          6           0       10.039355    0.170991   -1.657480
      8          6           0        9.578167    0.851654   -2.980877
      9          6           0       10.975219    0.881845   -3.748557
     10          6           0       11.909780    0.895086   -2.551751
     11          6           0       11.246475   -0.374604   -4.569690
     12          6           0        9.023165    2.296545   -2.744246
     13          6           0        8.255798    2.902866   -3.922751
     14          1           0        7.113149    3.760704   -3.647402
     15          7           0       14.153731    0.950822   -0.444936
     16          6           0       14.219601    1.476790   -1.691654
     17          6           0       15.536762    2.142540   -1.784081
     18          6           0       16.307590    1.798507   -0.557068
     19          6           0       15.430098    0.835949    0.058455
     20          6           0       15.929195    3.035965   -2.920539
     21          6           0       17.630636    2.255630   -0.029130
     22          8           0       18.220553    1.659651    0.935951
     23          6           0       18.267969    3.379913   -0.738240
     24          7           0       13.814970   -1.300768    1.550305
     25          6           0       15.117854   -1.058452    1.731302
     26          6           0       15.675585   -1.882033    2.854062
     27          6           0       14.420607   -2.564840    3.567195
     28          6           0       13.304656   -2.049408    2.625254
     29          6           0       16.685717   -2.965422    2.451682
     30          6           0       14.265302   -2.332295    5.091079
     31          6           0       13.951210   -0.877385    5.358811
     32          7           0       10.926901   -1.175895    1.050027
     33          6           0       10.913464   -2.158774    2.050248
     34          6           0        9.540365   -2.692358    2.113147
     35          6           0        8.849929   -1.989900    1.127401
     36          6           0        9.741895   -1.094132    0.471437
     37          6           0        9.092042   -3.741281    2.963559
     38          6           0        7.571997   -1.805264    0.459078
     39          8           0        6.427742   -2.221679    0.645552
     40          6           0        7.810723   -0.919935   -0.842855
     41          6           0        6.761751    0.158370   -0.857857
     42          8           0        6.757064    1.058383    0.006620
     43          8           0        6.079691    0.099035   -2.011900
     44          6           0        5.042490    1.161077   -2.103739
     45          1           0       13.604246    1.616604   -3.709803
     46          1           0       16.772975   -0.063591    1.396087
     47          1           0       11.777821   -3.212974    3.533612
     48          1           0        8.849597    0.280012   -3.556058
     49          1           0       11.097686    1.792195   -4.335061
     50          1           0       10.491645   -1.139655   -4.388451
     51          1           0       12.228057   -0.724978   -4.249959
     52          1           0       11.345074   -0.131873   -5.628055
     53          1           0        9.856585    2.996574   -2.685673
     54          1           0        8.397046    2.327984   -1.851883
     55          1           0        7.994689    2.144132   -4.661030
     56          1           0        8.925167    3.579193   -4.454472
     57          1           0       15.224888    2.963785   -3.748360
     58          1           0       16.863506    2.646143   -3.324038
     59          1           0       16.069248    4.068776   -2.601136
     60          1           0       18.421735    3.106130   -1.782246
     61          1           0       19.162052    3.627544   -0.167151
     62          1           0       17.583583    4.228768   -0.741515
     63          1           0       16.199434   -1.256161    3.575375
     64          1           0       14.431814   -3.650115    3.463620
     65          1           0       17.649731   -2.872972    2.952517
     66          1           0       16.802738   -2.931617    1.368882
     67          1           0       16.342109   -3.988726    2.600676
     68          1           0       15.198088   -2.559125    5.606254
     69          1           0       13.481135   -2.940878    5.541589
     70          1           0       14.936112   -0.411767    5.359031
     71          1           0       13.466138   -0.765252    6.329039
     72          1           0       13.382217   -0.435824    4.540424
     73          1           0        8.128380   -3.421710    3.360043
     74          1           0        9.805585   -3.934140    3.764349
     75          1           0        9.029620   -4.564952    2.252557
     76          1           0        7.721852   -1.589443   -1.697830
     77          1           0        4.090070    0.664398   -2.289318
     78          1           0        5.394704    1.874573   -2.848906
     79          1           0        4.818579    1.697268   -1.180861
     80         12           0      -12.141008   -0.392233   -0.332098
     81          6           0      -11.250321    2.736879    0.958875
     82          6           0       -8.782927   -0.794060   -1.054944
     83          6           0      -12.829559   -3.522569   -1.264245
     84          6           0      -15.257693   -0.124608    1.228362
     85          7           0      -10.128529    0.874470    0.150929
     86          6           0      -10.077594    2.154083    0.567906
     87          6           0       -8.677748    2.717500    0.619062
     88          6           0       -8.013988    1.635907   -0.315877
     89          6           0       -8.973624    0.453620   -0.403249
     90          6           0       -7.819508    2.216312   -1.742097
     91          6           0       -8.197045    2.888964    2.065610
     92          6           0       -8.536453    1.814639    3.119701
     93          1           0       -7.371923    1.327296    3.973664
     94          7           0      -10.995071   -1.922889   -1.059199
     95          6           0       -9.668957   -1.830092   -1.389241
     96          6           0       -9.333986   -2.915421   -2.320359
     97          6           0      -10.451229   -3.842695   -2.292271
     98          6           0      -11.487238   -3.085313   -1.525794
     99          6           0       -7.874810   -3.149143   -2.869795
    100          6           0      -10.502612   -5.239661   -2.915903
    101          8           0       -9.612085   -5.627378   -3.619745
    102          6           0      -11.696712   -6.120819   -2.687517
    103          7           0      -13.792833   -1.715077    0.165002
    104          6           0      -13.925932   -2.977093   -0.443228
    105          6           0      -15.309701   -3.680940   -0.112966
    106          6           0      -16.084845   -2.502683    0.648253
    107          6           0      -14.991582   -1.338349    0.653957
    108          6           0      -16.171813   -4.370885   -1.284525
    109          6           0      -16.678762   -2.826021    2.094523
    110          6           0      -18.043305   -2.011439    2.340454
    111          7           0      -13.152141    1.022362    0.827205
    112          6           0      -14.445768    1.022306    1.307958
    113          6           0      -14.727938    2.314671    1.920695
    114          6           0      -13.551008    3.094113    1.778363
    115          6           0      -12.579227    2.222612    1.166587
    116          6           0      -16.062574    2.795750    2.426848
    117          6           0      -12.823603    4.370561    2.077339
    118          8           0      -13.165635    5.331358    2.730012
    119          6           0      -11.360088    4.158368    1.499413
    120          6           0      -11.164236    5.202030    0.434297
    121          8           0      -10.922810    6.411949    0.672229
    122          8           0      -11.143880    4.595468   -0.813274
    123          6           0      -10.738326    5.430118   -1.894430
    124          1           0       -7.740592   -0.886398   -1.367411
    125          1           0      -13.233083   -4.442264   -1.693476
    126          1           0      -16.296739    0.017662    1.533081
    127          1           0       -8.600275    3.656550    0.071401
    128          1           0       -7.046712    1.231254   -0.021091
    129          1           0       -7.951881    1.376508   -2.424664
    130          1           0       -6.867788    2.740666   -1.815498
    131          1           0       -8.570685    2.895335   -2.146756
    132          1           0       -8.703018    3.779473    2.437279
    133          1           0       -7.119465    3.052312    2.045979
    134          1           0       -8.911638    0.927569    2.609962
    135          1           0       -9.257596    2.241476    3.816146
    136          1           0       -7.182536   -3.607051   -2.162748
    137          1           0       -7.458769   -2.201404   -3.211723
    138          1           0       -7.796190   -3.732660   -3.786368
    139          1           0      -11.533111   -7.133697   -3.056947
    140          1           0      -12.607787   -5.736785   -3.146821
    141          1           0      -11.701600   -6.208095   -1.600703
    142          1           0      -14.958671   -4.438455    0.586776
    143          1           0      -16.912799   -2.128077    0.047061
    144          1           0      -15.848612   -5.409202   -1.349215
    145          1           0      -16.030919   -3.861773   -2.237568
    146          1           0      -17.227999   -4.291267   -1.026357
    147          1           0      -16.029066   -2.439841    2.879847
    148          1           0      -16.798678   -3.899997    2.239120
    149          1           0      -17.945193   -1.331571    3.186870
    150          1           0      -18.849712   -2.712811    2.552658
    151          1           0      -18.386361   -1.311756    1.579093
    152          1           0      -16.398280    2.115246    3.208622
    153          1           0      -16.789446    2.777728    1.614510
    154          1           0      -16.003740    3.787420    2.875135
    155          1           0      -10.710484    4.450424    2.324231
    156          1           0      -10.665284    4.830940   -2.801749
    157          1           0       -9.843013    5.998086   -1.641000
    158          1           0      -11.513082    6.144472   -2.172785
 ---------------------------------------------------------------------

 SCF Done:  E(RwB97XD) =  -4070.61092641     A.U. after   20 cycles

 Excitation energies and oscillator strengths:

 Excited State   1:      Singlet-A      1.6215 eV  764.63 nm  f=0.3986  <S**2>=0.000
     309 -> 316        0.18171
     312 -> 313        0.68292
     309 <- 316        0.11451
 This state for optimization and/or second-order correction.
 Total Energy, E(TD-HF/TD-DFT) =  -4070.55133792
 Copying the excited state density for this state as the 1-particle RhoCI density.

 Excited State   2:      Singlet-A      1.6944 eV  731.74 nm  f=0.3514  <S**2>=0.000
     310 -> 315        0.19903
     311 -> 314        0.67825
     310 <- 315        0.11851

 Excited State   3:      Singlet-A      2.1387 eV  579.72 nm  f=0.0971  <S**2>=0.000
     309 -> 313        0.63827
     312 -> 316       -0.28196

 Excited State   4:      Singlet-A      2.1843 eV  567.62 nm  f=0.1016  <S**2>=0.000
     310 -> 314        0.63334
     311 -> 315       -0.30074

 Excited State   5:      Singlet-A      3.3011 eV  375.59 nm  f=0.0077  <S**2>=0.000
     307 -> 313       -0.44148
     308 -> 313        0.48864
     312 -> 316       -0.17139

 The electronic state is 1-A.
 Alpha  occ. eigenvalues --  -46.96661 -46.94117 -19.31522 -19.31181 -19.24918
 Alpha  occ. eigenvalues --  -19.24494 -19.24007 -19.23996 -19.23877 -19.23225
 Alpha  occ. eigenvalues --  -14.47038 -14.46765 -14.46333 -14.46050 -14.45051
 Alpha  occ. eigenvalues --  -14.44015 -14.43963 -14.43157 -10.43780 -10.42952
 Alpha  occ. eigenvalues --  -10.39731 -10.39423 -10.39208 -10.38414 -10.36880
 Alpha  occ. eigenvalues --  -10.35873 -10.35647 -10.35470 -10.35450 -10.35101
 Alpha  occ. eigenvalues --  -10.34906 -10.34880 -10.34607 -10.34539 -10.34484
 Alpha  occ. eigenvalues --  -10.34190 -10.34113 -10.33890 -10.33887 -10.33824
 Alpha  occ. eigenvalues --  -10.33720 -10.33478 -10.33239 -10.33170 -10.32950
 Alpha  occ. eigenvalues --  -10.32818 -10.32512 -10.32480 -10.32412 -10.32364
 Alpha  occ. eigenvalues --  -10.32358 -10.32329 -10.32148 -10.32085 -10.32063
 Alpha  occ. eigenvalues --  -10.31958 -10.31863 -10.31823 -10.31786 -10.31738
 Alpha  occ. eigenvalues --  -10.31705 -10.31664 -10.31562 -10.31540 -10.31509
 Alpha  occ. eigenvalues --  -10.31465 -10.31421 -10.31195 -10.30711 -10.30642
 Alpha  occ. eigenvalues --  -10.30267 -10.30251 -10.30188 -10.30076 -10.30072
 Alpha  occ. eigenvalues --  -10.30069 -10.30050 -10.30041 -10.29987 -10.29854
 Alpha  occ. eigenvalues --  -10.29715 -10.29671 -10.29265 -10.28864 -10.28800
 Alpha  occ. eigenvalues --  -10.28462  -3.22506  -3.20277  -1.96050  -1.95639
 Alpha  occ. eigenvalues --   -1.95456  -1.93854  -1.93418  -1.93258  -1.18844
 Alpha  occ. eigenvalues --   -1.18562  -1.13671  -1.12808  -1.10854  -1.09424
 Alpha  occ. eigenvalues --   -1.09180  -1.08851  -1.06715  -1.06565  -1.05882
 Alpha  occ. eigenvalues --   -1.05765  -1.05252  -1.04873  -1.04431  -1.03828
 Alpha  occ. eigenvalues --   -0.94387  -0.93926  -0.91404  -0.91049  -0.90802
 Alpha  occ. eigenvalues --   -0.90218  -0.90161  -0.89783  -0.89586  -0.89519
 Alpha  occ. eigenvalues --   -0.89222  -0.89186  -0.87901  -0.87589  -0.86876
 Alpha  occ. eigenvalues --   -0.86679  -0.85807  -0.85177  -0.84887  -0.84561
 Alpha  occ. eigenvalues --   -0.84530  -0.83733  -0.83529  -0.82677  -0.82554
 Alpha  occ. eigenvalues --   -0.82265  -0.80764  -0.79417  -0.79149  -0.79136
 Alpha  occ. eigenvalues --   -0.78851  -0.78546  -0.78252  -0.77857  -0.77201
 Alpha  occ. eigenvalues --   -0.76806  -0.74746  -0.74715  -0.73963  -0.73625
 Alpha  occ. eigenvalues --   -0.71786  -0.71782  -0.71254  -0.70829  -0.70142
 Alpha  occ. eigenvalues --   -0.69642  -0.69173  -0.69126  -0.67756  -0.67220
 Alpha  occ. eigenvalues --   -0.66838  -0.66774  -0.66759  -0.66591  -0.66539
 Alpha  occ. eigenvalues --   -0.66217  -0.65621  -0.64288  -0.62428  -0.62000
 Alpha  occ. eigenvalues --   -0.61755  -0.61190  -0.60966  -0.60859  -0.60489
 Alpha  occ. eigenvalues --   -0.60079  -0.59642  -0.59548  -0.59265  -0.59260
 Alpha  occ. eigenvalues --   -0.58288  -0.58189  -0.57945  -0.57869  -0.57491
 Alpha  occ. eigenvalues --   -0.57397  -0.57260  -0.56920  -0.56469  -0.56140
 Alpha  occ. eigenvalues --   -0.55813  -0.55580  -0.55237  -0.55161  -0.55064
 Alpha  occ. eigenvalues --   -0.54940  -0.54876  -0.54683  -0.54674  -0.54310
 Alpha  occ. eigenvalues --   -0.53827  -0.53758  -0.53543  -0.53529  -0.53283
 Alpha  occ. eigenvalues --   -0.53127  -0.52956  -0.52569  -0.52525  -0.52407
 Alpha  occ. eigenvalues --   -0.51933  -0.51928  -0.51870  -0.51831  -0.51603
 Alpha  occ. eigenvalues --   -0.51446  -0.51423  -0.51167  -0.51016  -0.50812
 Alpha  occ. eigenvalues --   -0.50526  -0.50515  -0.50414  -0.50378  -0.50225
 Alpha  occ. eigenvalues --   -0.49616  -0.49423  -0.49237  -0.49187  -0.49098
 Alpha  occ. eigenvalues --   -0.48806  -0.48690  -0.48551  -0.48475  -0.48308
 Alpha  occ. eigenvalues --   -0.48183  -0.48099  -0.47922  -0.47737  -0.47551
 Alpha  occ. eigenvalues --   -0.47363  -0.47170  -0.47096  -0.47038  -0.46750
 Alpha  occ. eigenvalues --   -0.46502  -0.46408  -0.46107  -0.46046  -0.45993
 Alpha  occ. eigenvalues --   -0.45937  -0.45823  -0.45732  -0.45521  -0.45384
 Alpha  occ. eigenvalues --   -0.45320  -0.45311  -0.45155  -0.44959  -0.44855
 Alpha  occ. eigenvalues --   -0.44672  -0.44616  -0.44553  -0.44167  -0.44093
 Alpha  occ. eigenvalues --   -0.43910  -0.43851  -0.43706  -0.43561  -0.43428
 Alpha  occ. eigenvalues --   -0.43052  -0.43024  -0.42854  -0.42736  -0.42445
 Alpha  occ. eigenvalues --   -0.42169  -0.42126  -0.41745  -0.41371  -0.40937
 Alpha  occ. eigenvalues --   -0.40763  -0.40354  -0.39999  -0.39690  -0.39350
 Alpha  occ. eigenvalues --   -0.39271  -0.39190  -0.39128  -0.38721  -0.38721
 Alpha  occ. eigenvalues --   -0.38188  -0.38159  -0.36598  -0.36328  -0.36280
 Alpha  occ. eigenvalues --   -0.35788  -0.35345  -0.35310  -0.33479  -0.33350
 Alpha  occ. eigenvalues --   -0.33180  -0.33147  -0.32852  -0.32735  -0.32005
 Alpha  occ. eigenvalues --   -0.31782  -0.31612  -0.31476  -0.26001  -0.25878
 Alpha  occ. eigenvalues --   -0.23135  -0.22918
 Alpha virt. eigenvalues --   -0.07101  -0.06907  -0.00097   0.00185   0.01989
 Alpha virt. eigenvalues --    0.02262   0.03997   0.04222   0.04313   0.06274
 Alpha virt. eigenvalues --    0.06732   0.07103   0.07243   0.07981   0.08767

 Mulliken charges:
               1
     1  Mg   0.978540
     2  C   -0.019835
     3  C   -0.101372
     4  C   -0.061260
     5  C   -0.070990
     6  N   -0.323082
     7  C   -0.008778
     8  C   -0.058336
     9  C   -0.138102
    10  C    0.061995
    11  C    0.058280
    12  C    0.014101
    13  C   -0.126864
    14  H    0.052155
    15  N   -0.518380
    16  C    0.183587
    17  C   -0.196044
    18  C   -0.037010
    19  C    0.166750
    20  C    0.060889
    21  C    0.056727
    22  O   -0.279982
    23  C    0.001624
    24  N   -0.410378
    25  C    0.066242
    26  C   -0.084933
    27  C   -0.063839
    28  C    0.089650
    29  C    0.031870
    30  C   -0.016714
    31  C   -0.058136
    32  N   -0.398735
    33  C    0.097313
    34  C   -0.187909
    35  C   -0.040191
    36  C    0.126329
    37  C    0.081459
    38  C    0.128904
    39  O   -0.224898
    40  C   -0.076974
    41  C    0.275870
    42  O   -0.284547
    43  O   -0.335629
    44  C    0.120778
    45  H    0.007875
    46  H    0.010728
    47  H   -0.017291
    48  H    0.025948
    49  H    0.022596
    50  H    0.047093
    51  H    0.037849
    52  H    0.040072
    53  H    0.035470
    54  H    0.067649
    55  H    0.038876
    56  H    0.040684
    57  H    0.029634
    58  H    0.048975
    59  H    0.062145
    60  H    0.057826
    61  H    0.061895
    62  H    0.053081
    63  H    0.042987
    64  H    0.035689
    65  H    0.045359
    66  H    0.034316
    67  H    0.025736
    68  H    0.032654
    69  H    0.029443
    70  H    0.029231
    71  H    0.042268
    72  H    0.049622
    73  H    0.070897
    74  H    0.031461
    75  H    0.069417
    76  H    0.065848
    77  H    0.060822
    78  H    0.062811
    79  H    0.070190
    80  Mg   0.954839
    81  C    0.126413
    82  C   -0.086808
    83  C   -0.102855
    84  C   -0.086840
    85  N   -0.280240
    86  C   -0.106077
    87  C    0.024809
    88  C   -0.115449
    89  C    0.019769
    90  C    0.018077
    91  C    0.021142
    92  C   -0.133420
    93  H    0.033574
    94  N   -0.458935
    95  C    0.175566
    96  C   -0.148478
    97  C   -0.099922
    98  C    0.211840
    99  C    0.047984
   100  C    0.038206
   101  O   -0.200570
   102  C   -0.012818
   103  N   -0.368178
   104  C    0.007653
   105  C   -0.062970
   106  C   -0.084181
   107  C    0.069887
   108  C    0.005019
   109  C   -0.009897
   110  C   -0.093947
   111  N   -0.439658
   112  C    0.138830
   113  C   -0.213569
   114  C   -0.016400
   115  C    0.078936
   116  C    0.071670
   117  C    0.139896
   118  O   -0.173559
   119  C   -0.210831
   120  C    0.295798
   121  O   -0.267013
   122  O   -0.352023
   123  C    0.141441
   124  H    0.007584
   125  H   -0.025214
   126  H   -0.021056
   127  H    0.029350
   128  H    0.028821
   129  H    0.024440
   130  H    0.050117
   131  H    0.027192
   132  H    0.036835
   133  H    0.046503
   134  H    0.070599
   135  H    0.060314
   136  H    0.063839
   137  H    0.025659
   138  H    0.055962
   139  H    0.046946
   140  H    0.079975
   141  H    0.053843
   142  H    0.053750
   143  H    0.040141
   144  H    0.049427
   145  H    0.047418
   146  H    0.050371
   147  H    0.049822
   148  H    0.043933
   149  H    0.038411
   150  H    0.044328
   151  H    0.039939
   152  H    0.037418
   153  H    0.051810
   154  H    0.058808
   155  H    0.085244
   156  H    0.049387
   157  H    0.054930
   158  H    0.046445
 Sum of Mulliken charges =  -0.00000

 Dipole moment (field-independent basis, Debye):
    X=              0.7351    Y=             -2.9428    Z=             -6.6624  Tot=              7.3204
 Quadrupole moment (field-independent basis, Debye-Ang):
   XX=           -401.6791   YY=           -538.6253   ZZ=           -491.7258
   XY=             82.1530   XZ=             -0.7222   YZ=            -53.4606

 Normal termination of Gaussian 16 at Sun Sep 19 10:22:58 2021.
