 Gaussian 16, Revision A.03,
 Gaussian 16:  ES64L-G16RevA.03 25-Dec-2016

 --------------------------------
 #p wB97XD/Def2SVP td=(nstates=5)
 --------------------------------

 --------------------------------
 TDDFT excited states in gaussian
 --------------------------------
 Symbolic Z-matrix:
 Charge =  0 Multiplicity = 1

                         Standard orientation:
 ---------------------------------------------------------------------
 Center     Atomic      Atomic             Coordinates (Angstroms)
 Number     Number       Type             X           Y           Z
 ---------------------------------------------------------------------
      1         12           0      -28.702681    0.183255    0.264407
      2          6           0      -26.740928   -2.203237   -1.262752
      3          6           0      -28.654233    1.915737   -2.685712
      4          6           0      -30.376835    2.662680    1.830954
      5          6           0      -28.193922   -1.360679    3.337933
      6          7           0      -27.632429   -0.126654   -1.715350
      7          6           0      -27.095358   -1.199999   -2.152368
      8          6           0      -26.678402   -1.215549   -3.712588
      9          6           0      -27.055298    0.280102   -4.054038
     10          6           0      -27.769659    0.796926   -2.716559
     11          6           0      -25.797887    1.253910   -4.350188
     12          6           0      -27.430545   -2.291010   -4.610347
     13          6           0      -26.653597   -2.893138   -5.834442
     14          1           0      -25.367070   -2.221833   -6.209705
     15          7           0      -29.467072    1.949677   -0.332377
     16          6           0      -29.429014    2.506357   -1.670970
     17          6           0      -30.191188    3.750482   -1.647918
     18          6           0      -30.601392    4.038137   -0.322234
     19          6           0      -30.191849    2.845115    0.452745
     20          6           0      -30.402554    4.436615   -2.949376
     21          6           0      -31.414183    5.218786    0.258887
     22          8           0      -31.623433    5.418209    1.418483
     23          6           0      -31.821102    6.294587   -0.768313
     24          7           0      -29.157739    0.707575    2.318525
     25          6           0      -29.831355    1.738157    2.721535
     26          6           0      -29.799420    1.877580    4.270010
     27          6           0      -29.200910    0.533652    4.750083
     28          6           0      -28.829057   -0.121044    3.398840
     29          6           0      -28.984610    3.116408    4.698824
     30          6           0      -30.193757   -0.280813    5.634997
     31          6           0      -30.433966    0.295175    7.039887
     32          7           0      -27.675769   -1.466946    0.956486
     33          6           0      -27.654563   -2.017303    2.225698
     34          6           0      -26.910800   -3.245533    2.127258
     35          6           0      -26.463606   -3.394436    0.780277
     36          6           0      -27.024225   -2.257480    0.136978
     37          6           0      -26.621899   -4.110041    3.211976
     38          6           0      -25.797574   -4.205589   -0.188360
     39          8           0      -25.136115   -5.270374   -0.003200
     40          6           0      -25.863768   -3.379953   -1.531406
     41          6           0      -24.501573   -3.111132   -1.939996
     42          8           0      -23.809013   -2.196936   -1.493503
     43          8           0      -24.117870   -4.137012   -2.765747
     44          6           0      -22.668360   -4.136568   -3.055648
     45          1           0      -28.635177    2.503173   -3.605545
     46          1           0      -30.944197    3.490087    2.263749
     47          1           0      -28.124088   -1.843474    4.315384
     48          1           0      -25.594630   -1.330812   -3.682542
     49          1           0      -27.690025    0.313268   -4.939322
     50          1           0      -24.907462    0.791014   -3.923833
     51          1           0      -25.968557    2.224839   -3.885400
     52          1           0      -25.589741    1.470086   -5.398573
     53          1           0      -28.287017   -1.741396   -4.999930
     54          1           0      -27.993929   -3.057697   -4.077361
     55          1           0      -27.243969   -2.940726   -6.749401
     56          1           0      -26.333248   -3.905119   -5.586537
     57          1           0      -29.551444    5.074137   -3.190410
     58          1           0      -31.381390    4.909941   -3.027754
     59          1           0      -30.457310    3.657130   -3.708942
     60          1           0      -32.634068    6.003257   -1.434111
     61          1           0      -30.880545    6.451123   -1.295503
     62          1           0      -32.081646    7.269484   -0.357330
     63          1           0      -30.858068    1.946657    4.519057
     64          1           0      -28.266948    0.719252    5.280474
     65          1           0      -28.236974    3.461935    3.984519
     66          1           0      -28.352428    3.032933    5.583461
     67          1           0      -29.722556    3.902405    4.859022
     68          1           0      -29.784565   -1.277816    5.792257
     69          1           0      -31.147506   -0.386142    5.116812
     70          1           0      -29.910336    1.249436    7.097486
     71          1           0      -29.862751   -0.289789    7.760898
     72          1           0      -31.453080    0.347677    7.422212
     73          1           0      -27.562662   -4.184514    3.757566
     74          1           0      -25.876967   -3.758281    3.925540
     75          1           0      -26.205049   -5.035849    2.814133
     76          1           0      -26.310706   -4.088936   -2.228816
     77          1           0      -22.172305   -4.354814   -2.109502
     78          1           0      -22.355619   -3.227372   -3.568053
     79          1           0      -22.476085   -4.965676   -3.736790
     80         12           0       28.438912    0.388448   -0.390500
     81          6           0       25.989410   -1.886484    0.235942
     82          6           0       25.932918    2.724517   -1.268718
     83          6           0       30.685616    2.820641    0.046474
     84          6           0       30.869634   -1.870489    1.034776
     85          7           0       26.267195    0.359988   -0.510517
     86          6           0       25.448764   -0.597655   -0.224487
     87          6           0       23.976235   -0.316795   -0.691294
     88          6           0       24.053587    1.067740   -1.440460
     89          6           0       25.536247    1.452266   -1.107115
     90          6           0       23.576004    1.082567   -2.893227
     91          6           0       22.905935   -0.395159    0.551778
     92          6           0       23.415786   -0.183541    1.968122
     93          1           0       22.451705    0.191858    3.093507
     94          7           0       28.308122    2.484974   -0.579676
     95          6           0       27.245062    3.243812   -1.006825
     96          6           0       27.593996    4.597740   -0.984168
     97          6           0       28.976698    4.688420   -0.563028
     98          6           0       29.390396    3.285029   -0.299217
     99          6           0       26.650560    5.654308   -1.529147
    100          6           0       29.754872    6.009875   -0.428784
    101          8           0       29.150515    7.071954   -0.699226
    102          6           0       31.122437    6.137696   -0.015417
    103          7           0       30.505322    0.496004    0.600354
    104          6           0       31.193969    1.587743    0.423939
    105          6           0       32.693181    1.429895    0.806330
    106          6           0       32.775010   -0.088617    1.075408
    107          6           0       31.291092   -0.604474    0.887996
    108          6           0       33.648244    1.848531   -0.252588
    109          6           0       33.400445   -0.433170    2.508438
    110          6           0       34.830415   -1.114509    2.500133
    111          7           0       28.530254   -1.526999    0.366116
    112          6           0       29.548080   -2.344856    0.872611
    113          6           0       28.965167   -3.682828    1.201881
    114          6           0       27.590315   -3.496242    0.999721
    115          6           0       27.357232   -2.171004    0.526111
    116          6           0       29.628137   -4.878247    1.687230
    117          6           0       26.383859   -4.170629    1.154405
    118          8           0       26.081796   -5.317020    1.517149
    119          6           0       25.302634   -3.208743    0.585003
    120          6           0       24.554135   -3.945203   -0.551332
    121          8           0       23.351563   -4.113503   -0.661072
    122          8           0       25.414857   -4.432492   -1.511023
    123          6           0       24.832269   -5.187389   -2.626805
    124          1           0       25.087243    3.383666   -1.474861
    125          1           0       31.504216    3.543064    0.053156
    126          1           0       31.641319   -2.595603    1.301136
    127          1           0       23.770977   -1.030807   -1.489335
    128          1           0       23.482993    1.843898   -0.929511
    129          1           0       24.417059    1.294759   -3.553017
    130          1           0       22.830077    1.857337   -3.074242
    131          1           0       23.067124    0.180567   -3.233255
    132          1           0       22.459390   -1.375194    0.382108
    133          1           0       22.119203    0.359410    0.536267
    134          1           0       24.152938    0.609361    1.844290
    135          1           0       23.970911   -1.090599    2.207927
    136          1           0       26.981912    6.317735   -2.328427
    137          1           0       26.259550    6.234369   -0.692911
    138          1           0       25.765877    5.162038   -1.932551
    139          1           0       31.886851    5.663470   -0.630696
    140          1           0       31.285467    5.607860    0.922552
    141          1           0       31.415623    7.160933    0.217301
    142          1           0       33.073898    1.980705    1.666325
    143          1           0       33.307565   -0.635601    0.297308
    144          1           0       34.143801    2.803039   -0.075969
    145          1           0       33.117967    2.090655   -1.174306
    146          1           0       34.403295    1.077320   -0.404136
    147          1           0       32.761316   -1.179540    2.982137
    148          1           0       33.572622    0.433649    3.145033
    149          1           0       35.472157   -0.625303    3.231823
    150          1           0       35.299428   -0.893243    1.541314
    151          1           0       34.651937   -2.139597    2.825376
    152          1           0       30.625868   -4.827974    1.250589
    153          1           0       29.118974   -5.773287    1.328006
    154          1           0       29.541435   -4.854021    2.773104
    155          1           0       24.437337   -3.100209    1.238494
    156          1           0       25.600316   -5.846798   -3.031458
    157          1           0       24.487846   -4.632738   -3.499486
    158          1           0       23.929868   -5.739045   -2.361640
 ---------------------------------------------------------------------

 SCF Done:  E(RwB97XD) =  -4070.59038008     A.U. after   19 cycles

 Excitation energies and oscillator strengths:

 Excited State   1:      Singlet-A      1.6548 eV  749.24 nm  f=0.4298  <S**2>=0.000
     309 -> 315        0.16632
     311 -> 313        0.68664
     309 <- 315        0.11152
 This state for optimization and/or second-order correction.
 Total Energy, E(TD-HF/TD-DFT) =  -4070.52956750
 Copying the excited state density for this state as the 1-particle RhoCI density.

 Excited State   2:      Singlet-A      1.7222 eV  719.92 nm  f=0.3828  <S**2>=0.000
     310 -> 316        0.20375
     312 -> 314        0.67764
     310 <- 316        0.11868

 Excited State   3:      Singlet-A      2.1613 eV  573.65 nm  f=0.1082  <S**2>=0.000
     310 -> 314        0.64086
     312 -> 316       -0.28351

 Excited State   4:      Singlet-A      2.1980 eV  564.07 nm  f=0.1160  <S**2>=0.000
     309 -> 313        0.64044
     311 -> 315       -0.27516

 Excited State   5:      Singlet-A      3.2250 eV  384.44 nm  f=0.0080  <S**2>=0.000
     303 -> 313        0.15899
     308 -> 313        0.66799
     308 -> 317        0.10502

 The electronic state is 1-A.
 Alpha  occ. eigenvalues --  -46.96672 -46.94719 -19.30170 -19.29982 -19.25180
 Alpha  occ. eigenvalues --  -19.25098 -19.24209 -19.24122 -19.23263 -19.22393
 Alpha  occ. eigenvalues --  -14.47812 -14.46769 -14.46498 -14.46079 -14.45185
 Alpha  occ. eigenvalues --  -14.44378 -14.44316 -14.43479 -10.43634 -10.42354
 Alpha  occ. eigenvalues --  -10.40247 -10.38804 -10.38755 -10.38162 -10.37078
 Alpha  occ. eigenvalues --  -10.35918 -10.35909 -10.35333 -10.35280 -10.34962
 Alpha  occ. eigenvalues --  -10.34787 -10.34750 -10.34741 -10.34697 -10.34617
 Alpha  occ. eigenvalues --  -10.34483 -10.34441 -10.34414 -10.34284 -10.33867
 Alpha  occ. eigenvalues --  -10.33602 -10.33524 -10.33366 -10.33128 -10.33040
 Alpha  occ. eigenvalues --  -10.32980 -10.32948 -10.32924 -10.32859 -10.32555
 Alpha  occ. eigenvalues --  -10.32394 -10.32343 -10.32221 -10.32110 -10.31823
 Alpha  occ. eigenvalues --  -10.31736 -10.31709 -10.31617 -10.31598 -10.31561
 Alpha  occ. eigenvalues --  -10.31147 -10.31129 -10.31127 -10.31126 -10.31122
 Alpha  occ. eigenvalues --  -10.31073 -10.31061 -10.31010 -10.30844 -10.30796
 Alpha  occ. eigenvalues --  -10.30742 -10.30644 -10.30460 -10.30258 -10.30145
 Alpha  occ. eigenvalues --  -10.30006 -10.29997 -10.29859 -10.29736 -10.29499
 Alpha  occ. eigenvalues --  -10.29464 -10.29353 -10.29175 -10.28771 -10.28444
 Alpha  occ. eigenvalues --  -10.28436  -3.22544  -3.20762  -1.96104  -1.95695
 Alpha  occ. eigenvalues --   -1.95475  -1.94346  -1.93893  -1.93735  -1.18354
 Alpha  occ. eigenvalues --   -1.17646  -1.14741  -1.11368  -1.09763  -1.09607
 Alpha  occ. eigenvalues --   -1.09371  -1.08918  -1.07370  -1.07061  -1.06517
 Alpha  occ. eigenvalues --   -1.06278  -1.05726  -1.05447  -1.04234  -1.02918
 Alpha  occ. eigenvalues --   -0.95056  -0.94466  -0.91615  -0.91289  -0.91170
 Alpha  occ. eigenvalues --   -0.90914  -0.90333  -0.90248  -0.89696  -0.89689
 Alpha  occ. eigenvalues --   -0.89363  -0.88868  -0.88770  -0.87194  -0.86564
 Alpha  occ. eigenvalues --   -0.86068  -0.85826  -0.85320  -0.84829  -0.84410
 Alpha  occ. eigenvalues --   -0.84198  -0.83622  -0.83449  -0.82963  -0.82268
 Alpha  occ. eigenvalues --   -0.82216  -0.80509  -0.80448  -0.79343  -0.79271
 Alpha  occ. eigenvalues --   -0.78874  -0.78300  -0.78263  -0.77636  -0.77220
 Alpha  occ. eigenvalues --   -0.76743  -0.75410  -0.74165  -0.73946  -0.73418
 Alpha  occ. eigenvalues --   -0.71620  -0.71287  -0.70844  -0.70707  -0.70346
 Alpha  occ. eigenvalues --   -0.70135  -0.68980  -0.68825  -0.67948  -0.67724
 Alpha  occ. eigenvalues --   -0.67635  -0.67282  -0.66831  -0.66742  -0.66545
 Alpha  occ. eigenvalues --   -0.66051  -0.65358  -0.63510  -0.62893  -0.62020
 Alpha  occ. eigenvalues --   -0.61991  -0.61341  -0.61058  -0.60925  -0.60528
 Alpha  occ. eigenvalues --   -0.60240  -0.60013  -0.59828  -0.59601  -0.59232
 Alpha  occ. eigenvalues --   -0.58295  -0.57963  -0.57609  -0.57596  -0.57565
 Alpha  occ. eigenvalues --   -0.57139  -0.56743  -0.56487  -0.56422  -0.55861
 Alpha  occ. eigenvalues --   -0.55844  -0.55433  -0.55289  -0.55203  -0.55092
 Alpha  occ. eigenvalues --   -0.54885  -0.54789  -0.54658  -0.54597  -0.54165
 Alpha  occ. eigenvalues --   -0.53988  -0.53776  -0.53412  -0.53255  -0.53223
 Alpha  occ. eigenvalues --   -0.53048  -0.52842  -0.52826  -0.52631  -0.52606
 Alpha  occ. eigenvalues --   -0.52335  -0.52254  -0.51898  -0.51477  -0.51295
 Alpha  occ. eigenvalues --   -0.51163  -0.51038  -0.50923  -0.50815  -0.50750
 Alpha  occ. eigenvalues --   -0.50475  -0.50462  -0.50350  -0.50251  -0.50105
 Alpha  occ. eigenvalues --   -0.49731  -0.49677  -0.49562  -0.49340  -0.49123
 Alpha  occ. eigenvalues --   -0.48946  -0.48804  -0.48738  -0.48549  -0.48343
 Alpha  occ. eigenvalues --   -0.48127  -0.48105  -0.47934  -0.47851  -0.47659
 Alpha  occ. eigenvalues --   -0.47512  -0.47185  -0.47050  -0.46967  -0.46829
 Alpha  occ. eigenvalues --   -0.46743  -0.46537  -0.46386  -0.46287  -0.46183
 Alpha  occ. eigenvalues --   -0.46056  -0.45744  -0.45715  -0.45572  -0.45436
 Alpha  occ. eigenvalues --   -0.45142  -0.44860  -0.44703  -0.44647  -0.44548
 Alpha  occ. eigenvalues --   -0.44531  -0.44190  -0.44174  -0.44062  -0.43890
 Alpha  occ. eigenvalues --   -0.43633  -0.43606  -0.43416  -0.43359  -0.43065
 Alpha  occ. eigenvalues --   -0.42870  -0.42753  -0.42612  -0.42501  -0.42091
 Alpha  occ. eigenvalues --   -0.41974  -0.41759  -0.41679  -0.41243  -0.40976
 Alpha  occ. eigenvalues --   -0.40669  -0.40109  -0.40105  -0.39865  -0.39799
 Alpha  occ. eigenvalues --   -0.39508  -0.39026  -0.38812  -0.38529  -0.38507
 Alpha  occ. eigenvalues --   -0.38401  -0.38208  -0.36810  -0.36316  -0.36266
 Alpha  occ. eigenvalues --   -0.36243  -0.35846  -0.35592  -0.33794  -0.33791
 Alpha  occ. eigenvalues --   -0.33322  -0.33193  -0.33137  -0.32417  -0.32246
 Alpha  occ. eigenvalues --   -0.32018  -0.31280  -0.31131  -0.26866  -0.25570
 Alpha  occ. eigenvalues --   -0.23474  -0.23029
 Alpha virt. eigenvalues --   -0.07879  -0.06740   0.00033   0.00248   0.01998
 Alpha virt. eigenvalues --    0.02051   0.03813   0.04227   0.04361   0.05728
 Alpha virt. eigenvalues --    0.07197   0.07612   0.07678   0.08032   0.08314

 Mulliken charges:
               1
     1  Mg   0.972770
     2  C    0.036692
     3  C   -0.076528
     4  C   -0.083429
     5  C   -0.099842
     6  N   -0.274838
     7  C   -0.097057
     8  C   -0.014349
     9  C   -0.137577
    10  C    0.066000
    11  C    0.000622
    12  C    0.023675
    13  C   -0.131694
    14  H    0.035229
    15  N   -0.532105
    16  C    0.160511
    17  C   -0.146751
    18  C   -0.100045
    19  C    0.147751
    20  C    0.050307
    21  C    0.084745
    22  O   -0.192564
    23  C   -0.045312
    24  N   -0.332343
    25  C    0.040059
    26  C   -0.054417
    27  C   -0.067572
    28  C    0.054620
    29  C    0.016559
    30  C   -0.022545
    31  C   -0.039128
    32  N   -0.427621
    33  C    0.163681
    34  C   -0.180232
    35  C    0.016128
    36  C    0.116640
    37  C    0.057396
    38  C    0.086176
    39  O   -0.253844
    40  C   -0.075636
    41  C    0.267943
    42  O   -0.262101
    43  O   -0.366883
    44  C    0.144975
    45  H   -0.003071
    46  H    0.012729
    47  H   -0.006262
    48  H    0.049197
    49  H    0.040248
    50  H    0.048186
    51  H    0.038264
    52  H    0.039839
    53  H    0.016284
    54  H    0.039509
    55  H    0.057639
    56  H    0.064724
    57  H    0.067838
    58  H    0.043796
    59  H    0.042677
    60  H    0.070899
    61  H    0.053273
    62  H    0.049670
    63  H    0.038208
    64  H    0.035342
    65  H    0.043611
    66  H    0.034041
    67  H    0.050527
    68  H    0.028768
    69  H    0.032080
    70  H    0.024469
    71  H    0.026127
    72  H    0.050554
    73  H    0.038271
    74  H    0.050045
    75  H    0.057921
    76  H    0.063340
    77  H    0.068115
    78  H    0.056055
    79  H    0.049017
    80  Mg   0.956835
    81  C    0.004144
    82  C   -0.071990
    83  C   -0.044081
    84  C   -0.099281
    85  N   -0.349337
    86  C    0.010871
    87  C   -0.050984
    88  C   -0.100556
    89  C    0.039653
    90  C    0.023930
    91  C   -0.030466
    92  C   -0.101616
    93  H    0.062381
    94  N   -0.458700
    95  C    0.154370
    96  C   -0.150832
    97  C   -0.094611
    98  C    0.205555
    99  C    0.091948
   100  C    0.063153
   101  O   -0.267853
   102  C    0.000071
   103  N   -0.297812
   104  C    0.011011
   105  C   -0.080715
   106  C   -0.045991
   107  C    0.048309
   108  C    0.002563
   109  C   -0.042804
   110  C   -0.065012
   111  N   -0.464726
   112  C    0.133775
   113  C   -0.171344
   114  C   -0.013189
   115  C    0.155500
   116  C    0.081423
   117  C    0.117946
   118  O   -0.220260
   119  C   -0.108075
   120  C    0.242761
   121  O   -0.244084
   122  O   -0.368891
   123  C    0.139859
   124  H    0.011762
   125  H   -0.042744
   126  H    0.000696
   127  H    0.052532
   128  H    0.038597
   129  H    0.039467
   130  H    0.034756
   131  H    0.041357
   132  H    0.057289
   133  H    0.041173
   134  H    0.052194
   135  H    0.036560
   136  H    0.060551
   137  H    0.046843
   138  H    0.000099
   139  H    0.063437
   140  H    0.040888
   141  H    0.054658
   142  H    0.045304
   143  H    0.032483
   144  H    0.028501
   145  H    0.031379
   146  H    0.039475
   147  H    0.036145
   148  H    0.041012
   149  H    0.033302
   150  H    0.036179
   151  H    0.047809
   152  H    0.043711
   153  H    0.066878
   154  H    0.074608
   155  H    0.058582
   156  H    0.052696
   157  H    0.037429
   158  H    0.061541
 Sum of Mulliken charges =  -0.00000

 Dipole moment (field-independent basis, Debye):
    X=              1.8165    Y=              1.7179    Z=             -5.1332  Tot=              5.7097
 Quadrupole moment (field-independent basis, Debye-Ang):
   XX=            -68.1361   YY=           -576.6495   ZZ=           -463.0374
   XY=           -110.2430   XZ=             37.8374   YZ=              7.3646

 Normal termination of Gaussian 16 at Mon Sep 20 09:12:36 2021.
