 Gaussian 16, Revision A.03,
 Gaussian 16:  ES64L-G16RevA.03 25-Dec-2016

 --------------------------------
 #p wB97XD/Def2SVP td=(nstates=5)
 --------------------------------

 --------------------------------
 TDDFT excited states in gaussian
 --------------------------------
 Symbolic Z-matrix:
 Charge =  0 Multiplicity = 1

                         Standard orientation:
 ---------------------------------------------------------------------
 Center     Atomic      Atomic             Coordinates (Angstroms)
 Number     Number       Type             X           Y           Z
 ---------------------------------------------------------------------
      1         12           0      -26.468196    0.403009    0.048493
      2          6           0      -24.209151   -2.266770    0.190858
      3          6           0      -23.724836    2.386820   -0.658007
      4          6           0      -28.573712    2.944000   -0.453674
      5          6           0      -29.117980   -1.873968   -0.071551
      6          7           0      -24.123559   -0.026862   -0.405167
      7          6           0      -23.464195   -1.173902   -0.153349
      8          6           0      -21.975672   -1.078980   -0.387685
      9          6           0      -21.888642    0.494575   -0.357960
     10          6           0      -23.303746    1.035924   -0.533336
     11          6           0      -21.348796    0.969222    1.017566
     12          6           0      -21.557465   -1.852934   -1.644297
     13          6           0      -22.447988   -1.810914   -2.903537
     14          1           0      -21.733830   -1.506821   -4.215173
     15          7           0      -26.200639    2.365385   -0.463608
     16          6           0      -24.989092    2.992396   -0.586603
     17          6           0      -25.188345    4.441440   -0.453581
     18          6           0      -26.618907    4.671785   -0.549969
     19          6           0      -27.180004    3.288372   -0.474013
     20          6           0      -24.012317    5.481715   -0.596722
     21          6           0      -27.325432    6.022560   -0.688891
     22          8           0      -26.709006    7.046977   -0.592216
     23          6           0      -28.810876    6.075008   -0.901440
     24          7           0      -28.585349    0.446519   -0.442751
     25          6           0      -29.295974    1.659658   -0.503151
     26          6           0      -30.862628    1.452982   -0.652044
     27          6           0      -30.987683   -0.132918   -0.457425
     28          6           0      -29.461360   -0.563455   -0.267940
     29          6           0      -31.885301    2.299002    0.259109
     30          6           0      -31.745522   -0.957093   -1.595581
     31          6           0      -32.532168   -2.207223   -0.959680
     32          7           0      -26.701999   -1.672851    0.108463
     33          6           0      -27.847778   -2.441397    0.141946
     34          6           0      -27.481199   -3.837001    0.349753
     35          6           0      -26.066344   -3.871868    0.449368
     36          6           0      -25.626647   -2.519300    0.214064
     37          6           0      -28.423524   -4.984089    0.604890
     38          6           0      -24.817071   -4.691483    0.573342
     39          8           0      -24.670165   -5.892789    0.610540
     40          6           0      -23.624903   -3.648747    0.462255
     41          6           0      -22.873153   -3.716806    1.763139
     42          8           0      -22.073683   -4.637905    2.065175
     43          8           0      -23.087028   -2.551860    2.485582
     44          6           0      -22.257512   -2.379633    3.631119
     45          1           0      -22.852075    3.029847   -0.790030
     46          1           0      -29.357339    3.703457   -0.408259
     47          1           0      -29.962508   -2.547433    0.089462
     48          1           0      -21.408183   -1.414149    0.480281
     49          1           0      -21.271607    0.985650   -1.109212
     50          1           0      -21.843608    1.919754    1.218416
     51          1           0      -20.259993    0.993725    1.013711
     52          1           0      -21.635672    0.424919    1.917857
     53          1           0      -21.571264   -2.903949   -1.357365
     54          1           0      -20.543302   -1.550165   -1.905162
     55          1           0      -23.186204   -1.017963   -2.786254
     56          1           0      -22.898035   -2.794990   -3.031305
     57          1           0      -23.683235    5.669493   -1.619113
     58          1           0      -23.159635    5.150575   -0.003854
     59          1           0      -24.183299    6.461616   -0.152496
     60          1           0      -29.154275    7.083145   -1.135751
     61          1           0      -29.380197    5.714923   -0.044286
     62          1           0      -28.921029    5.510791   -1.827902
     63          1           0      -30.977764    1.732120   -1.698713
     64          1           0      -31.481730   -0.372905    0.483635
     65          1           0      -32.120932    3.210841   -0.288408
     66          1           0      -31.454526    2.532539    1.232366
     67          1           0      -32.773275    1.691171    0.433933
     68          1           0      -31.036056   -1.441655   -2.266275
     69          1           0      -32.393988   -0.308386   -2.184973
     70          1           0      -32.156265   -3.149299   -1.358997
     71          1           0      -33.591757   -2.128209   -1.201077
     72          1           0      -32.435498   -2.405993    0.107119
     73          1           0      -29.098490   -5.069038   -0.246086
     74          1           0      -29.014231   -4.779858    1.498152
     75          1           0      -27.902974   -5.937683    0.691592
     76          1           0      -22.964803   -4.087933   -0.285401
     77          1           0      -22.441670   -1.395842    4.062182
     78          1           0      -21.214421   -2.596269    3.399965
     79          1           0      -22.554362   -3.031178    4.452945
     80         12           0       26.356122   -0.290297   -0.579269
     81          6           0       25.168082    1.352443    2.285174
     82          6           0       27.141669   -2.992239    1.210685
     83          6           0       27.478261   -1.608773   -3.313504
     84          6           0       26.413663    2.983384   -2.118221
     85          7           0       26.249292   -0.674857    1.538038
     86          6           0       25.605136    0.007791    2.492954
     87          6           0       25.713571   -0.664392    3.837293
     88          6           0       26.710244   -1.855909    3.541166
     89          6           0       26.698194   -1.866726    2.024811
     90          6           0       28.153805   -1.785315    4.136734
     91          6           0       24.281077   -1.249727    4.294211
     92          6           0       23.902275   -0.887474    5.767653
     93          1           0       22.344417   -1.219664    6.082478
     94          7           0       26.941112   -2.089369   -1.026836
     95          6           0       27.180720   -3.136126   -0.152967
     96          6           0       27.372057   -4.335573   -0.920937
     97          6           0       27.454791   -4.005233   -2.335383
     98          6           0       27.175849   -2.518175   -2.321266
     99          6           0       27.627873   -5.674853   -0.171787
    100          6           0       27.693909   -4.779414   -3.626654
    101          8           0       27.639140   -4.322312   -4.782647
    102          6           0       27.900071   -6.233694   -3.390253
    103          7           0       26.992744    0.655021   -2.349372
    104          6           0       27.429236   -0.207290   -3.324635
    105          6           0       27.927460    0.559773   -4.550016
    106          6           0       27.305703    1.959878   -4.306035
    107          6           0       26.929206    1.911468   -2.823938
    108          6           0       29.498816    0.436288   -4.662882
    109          6           0       26.070476    2.344897   -5.226113
    110          6           0       25.799844    3.844230   -5.429486
    111          7           0       25.861757    1.768497   -0.082062
    112          6           0       25.944399    2.919004   -0.806289
    113          6           0       25.366941    4.032309   -0.086988
    114          6           0       24.987765    3.410269    1.116638
    115          6           0       25.361526    2.058840    1.104295
    116          6           0       25.176403    5.520743   -0.459073
    117          6           0       24.342673    3.668135    2.373750
    118          8           0       23.713707    4.598567    2.805360
    119          6           0       24.597998    2.337611    3.254753
    120          6           0       23.277157    2.156307    3.862687
    121          8           0       22.251966    1.611271    3.381056
    122          8           0       23.374645    2.722535    5.077897
    123          6           0       22.186208    2.739168    5.931944
    124          1           0       27.317017   -3.912481    1.772073
    125          1           0       27.784727   -2.062477   -4.258535
    126          1           0       26.365356    3.927355   -2.665066
    127          1           0       26.046910   -0.021481    4.652414
    128          1           0       26.359953   -2.851928    3.812644
    129          1           0       28.845783   -1.630511    3.308922
    130          1           0       28.321445   -2.764177    4.585644
    131          1           0       28.382880   -1.004594    4.861216
    132          1           0       24.137991   -2.321762    4.153625
    133          1           0       23.558071   -0.877385    3.568367
    134          1           0       24.068772    0.173009    5.955615
    135          1           0       24.423648   -1.459250    6.534963
    136          1           0       26.663306   -6.149757    0.002228
    137          1           0       27.926112   -5.544362    0.869192
    138          1           0       28.441048   -6.300933   -0.538292
    139          1           0       27.056677   -6.742370   -2.924653
    140          1           0       28.807445   -6.236393   -2.785063
    141          1           0       28.152783   -6.792740   -4.291644
    142          1           0       27.481416    0.051555   -5.405021
    143          1           0       28.054218    2.724809   -4.512486
    144          1           0       29.971233    1.381060   -4.394236
    145          1           0       29.936121    0.186803   -5.629293
    146          1           0       29.989113   -0.239716   -3.962052
    147          1           0       25.219813    2.002407   -4.636274
    148          1           0       26.024734    1.902474   -6.221470
    149          1           0       24.856350    4.156107   -4.979665
    150          1           0       25.770276    4.246648   -6.442257
    151          1           0       26.552248    4.354314   -4.829622
    152          1           0       25.941086    5.737649   -1.204939
    153          1           0       25.290562    6.162115    0.415834
    154          1           0       24.187344    5.597766   -0.910538
    155          1           0       25.309821    2.557629    4.050564
    156          1           0       22.353468    2.060967    6.768522
    157          1           0       21.269615    2.572313    5.367157
    158          1           0       22.118197    3.721711    6.398774
 ---------------------------------------------------------------------

 SCF Done:  E(RwB97XD) =  -4070.59854649     A.U. after   18 cycles

 Excitation energies and oscillator strengths:

 Excited State   1:      Singlet-A      1.6708 eV  742.08 nm  f=0.3714  <S**2>=0.000
     309 -> 315       -0.20302
     312 -> 314        0.67875
     309 <- 315       -0.12001
 This state for optimization and/or second-order correction.
 Total Energy, E(TD-HF/TD-DFT) =  -4070.53714718
 Copying the excited state density for this state as the 1-particle RhoCI density.

 Excited State   2:      Singlet-A      1.6941 eV  731.87 nm  f=0.3625  <S**2>=0.000
     310 -> 316        0.19919
     311 -> 313        0.67859
     310 <- 316        0.11861

 Excited State   3:      Singlet-A      2.1842 eV  567.64 nm  f=0.1019  <S**2>=0.000
     310 -> 313        0.63337
     311 -> 316       -0.30089

 Excited State   4:      Singlet-A      2.1931 eV  565.34 nm  f=0.0610  <S**2>=0.000
     309 -> 314        0.61587
     312 -> 315        0.33611

 Excited State   5:      Singlet-A      3.4187 eV  362.66 nm  f=0.4054  <S**2>=0.000
     306 -> 314        0.13477
     308 -> 314       -0.33962
     309 -> 314       -0.25507
     312 -> 315        0.52618

 The electronic state is 1-A.
 Alpha  occ. eigenvalues --  -46.96724 -46.93918 -19.31231 -19.30076 -19.24971
 Alpha  occ. eigenvalues --  -19.24727 -19.24554 -19.24062 -19.24062 -19.23396
 Alpha  occ. eigenvalues --  -14.47174 -14.46829 -14.46397 -14.46307 -14.45116
 Alpha  occ. eigenvalues --  -14.44088 -14.44028 -14.42992 -10.43834 -10.42417
 Alpha  occ. eigenvalues --  -10.39983 -10.39792 -10.39273 -10.38655 -10.36941
 Alpha  occ. eigenvalues --  -10.35936 -10.35752 -10.35688 -10.35192 -10.35168
 Alpha  occ. eigenvalues --  -10.34944 -10.34818 -10.34734 -10.34664 -10.34546
 Alpha  occ. eigenvalues --  -10.34249 -10.34244 -10.34181 -10.34146 -10.33944
 Alpha  occ. eigenvalues --  -10.33785 -10.33543 -10.33453 -10.33235 -10.33218
 Alpha  occ. eigenvalues --  -10.33006 -10.32786 -10.32686 -10.32574 -10.32486
 Alpha  occ. eigenvalues --  -10.32466 -10.32431 -10.32409 -10.32150 -10.32127
 Alpha  occ. eigenvalues --  -10.32023 -10.31986 -10.31890 -10.31878 -10.31802
 Alpha  occ. eigenvalues --  -10.31788 -10.31769 -10.31750 -10.31719 -10.31676
 Alpha  occ. eigenvalues --  -10.31645 -10.31613 -10.31328 -10.30800 -10.30757
 Alpha  occ. eigenvalues --  -10.30514 -10.30349 -10.30348 -10.30312 -10.30264
 Alpha  occ. eigenvalues --  -10.30257 -10.30139 -10.30103 -10.30101 -10.29927
 Alpha  occ. eigenvalues --  -10.29918 -10.29862 -10.29771 -10.29723 -10.29181
 Alpha  occ. eigenvalues --  -10.28473  -3.22569  -3.20161  -1.96113  -1.95703
 Alpha  occ. eigenvalues --   -1.95519  -1.93743  -1.93306  -1.93150  -1.18613
 Alpha  occ. eigenvalues --   -1.18110  -1.13737  -1.12997  -1.12868  -1.11623
 Alpha  occ. eigenvalues --   -1.09232  -1.07713  -1.07193  -1.06782  -1.06306
 Alpha  occ. eigenvalues --   -1.05946  -1.05607  -1.04937  -1.04463  -1.03891
 Alpha  occ. eigenvalues --   -0.94686  -0.94451  -0.91052  -0.90879  -0.90283
 Alpha  occ. eigenvalues --   -0.90117  -0.89890  -0.89575  -0.89369  -0.89249
 Alpha  occ. eigenvalues --   -0.88925  -0.88208  -0.87965  -0.87655  -0.86746
 Alpha  occ. eigenvalues --   -0.86446  -0.85726  -0.85234  -0.84600  -0.84384
 Alpha  occ. eigenvalues --   -0.84161  -0.83792  -0.83226  -0.82737  -0.82328
 Alpha  occ. eigenvalues --   -0.82237  -0.80180  -0.79481  -0.79230  -0.79207
 Alpha  occ. eigenvalues --   -0.78820  -0.78618  -0.78310  -0.77843  -0.77314
 Alpha  occ. eigenvalues --   -0.77266  -0.74778  -0.74768  -0.74108  -0.74025
 Alpha  occ. eigenvalues --   -0.71845  -0.71320  -0.71217  -0.70710  -0.70208
 Alpha  occ. eigenvalues --   -0.69842  -0.69192  -0.69192  -0.67982  -0.67813
 Alpha  occ. eigenvalues --   -0.67457  -0.66873  -0.66838  -0.66828  -0.66605
 Alpha  occ. eigenvalues --   -0.66432  -0.65678  -0.63749  -0.62256  -0.62065
 Alpha  occ. eigenvalues --   -0.61786  -0.61254  -0.61139  -0.60927  -0.60613
 Alpha  occ. eigenvalues --   -0.60141  -0.59982  -0.59699  -0.59321  -0.59102
 Alpha  occ. eigenvalues --   -0.58316  -0.58252  -0.58006  -0.57841  -0.57463
 Alpha  occ. eigenvalues --   -0.57435  -0.56989  -0.56279  -0.56196  -0.55836
 Alpha  occ. eigenvalues --   -0.55638  -0.55373  -0.55170  -0.55124  -0.55004
 Alpha  occ. eigenvalues --   -0.54750  -0.54747  -0.54484  -0.54142  -0.53834
 Alpha  occ. eigenvalues --   -0.53609  -0.53517  -0.53340  -0.53331  -0.53015
 Alpha  occ. eigenvalues --   -0.52972  -0.52673  -0.52632  -0.52465  -0.52305
 Alpha  occ. eigenvalues --   -0.52116  -0.51996  -0.51942  -0.51892  -0.51665
 Alpha  occ. eigenvalues --   -0.51485  -0.51352  -0.51010  -0.50871  -0.50834
 Alpha  occ. eigenvalues --   -0.50581  -0.50393  -0.50284  -0.50077  -0.49923
 Alpha  occ. eigenvalues --   -0.49492  -0.49309  -0.49255  -0.49182  -0.49161
 Alpha  occ. eigenvalues --   -0.48868  -0.48806  -0.48615  -0.48405  -0.48251
 Alpha  occ. eigenvalues --   -0.48245  -0.47991  -0.47835  -0.47643  -0.47608
 Alpha  occ. eigenvalues --   -0.47450  -0.47437  -0.47234  -0.47101  -0.47060
 Alpha  occ. eigenvalues --   -0.46844  -0.46815  -0.46162  -0.45955  -0.45882
 Alpha  occ. eigenvalues --   -0.45794  -0.45681  -0.45586  -0.45496  -0.45409
 Alpha  occ. eigenvalues --   -0.45376  -0.45219  -0.45005  -0.44917  -0.44804
 Alpha  occ. eigenvalues --   -0.44773  -0.44685  -0.44585  -0.44229  -0.44154
 Alpha  occ. eigenvalues --   -0.44154  -0.44018  -0.43912  -0.43867  -0.43620
 Alpha  occ. eigenvalues --   -0.43250  -0.43145  -0.43112  -0.42700  -0.42456
 Alpha  occ. eigenvalues --   -0.42247  -0.42194  -0.41807  -0.41495  -0.40994
 Alpha  occ. eigenvalues --   -0.40837  -0.40719  -0.40064  -0.39763  -0.39455
 Alpha  occ. eigenvalues --   -0.39337  -0.39213  -0.38939  -0.38775  -0.38230
 Alpha  occ. eigenvalues --   -0.37507  -0.37212  -0.36660  -0.36388  -0.36148
 Alpha  occ. eigenvalues --   -0.35968  -0.35373  -0.34951  -0.33714  -0.33543
 Alpha  occ. eigenvalues --   -0.33496  -0.33212  -0.32913  -0.32801  -0.32613
 Alpha  occ. eigenvalues --   -0.32457  -0.31845  -0.31767  -0.26111  -0.25943
 Alpha  occ. eigenvalues --   -0.23199  -0.22925
 Alpha virt. eigenvalues --   -0.06973  -0.06780  -0.00389  -0.00162   0.01758
 Alpha virt. eigenvalues --    0.02198   0.03942   0.04160   0.04568   0.06225
 Alpha virt. eigenvalues --    0.06674   0.07379   0.07607   0.07915   0.08251

 Mulliken charges:
               1
     1  Mg   0.954711
     2  C    0.126741
     3  C   -0.086853
     4  C   -0.102774
     5  C   -0.086854
     6  N   -0.280247
     7  C   -0.106093
     8  C    0.024764
     9  C   -0.115419
    10  C    0.019694
    11  C    0.018017
    12  C    0.021146
    13  C   -0.133135
    14  H    0.032725
    15  N   -0.458814
    16  C    0.175404
    17  C   -0.148315
    18  C   -0.099985
    19  C    0.211709
    20  C    0.047874
    21  C    0.038145
    22  O   -0.200603
    23  C   -0.012788
    24  N   -0.368033
    25  C    0.007454
    26  C   -0.062952
    27  C   -0.084168
    28  C    0.069853
    29  C    0.005013
    30  C   -0.009869
    31  C   -0.094039
    32  N   -0.439523
    33  C    0.138853
    34  C   -0.213561
    35  C   -0.016283
    36  C    0.078716
    37  C    0.071686
    38  C    0.140014
    39  O   -0.173452
    40  C   -0.211016
    41  C    0.295896
    42  O   -0.266925
    43  O   -0.352079
    44  C    0.141279
    45  H    0.007252
    46  H   -0.025096
    47  H   -0.020930
    48  H    0.029511
    49  H    0.028347
    50  H    0.024560
    51  H    0.050199
    52  H    0.027437
    53  H    0.036952
    54  H    0.046214
    55  H    0.070666
    56  H    0.060454
    57  H    0.063298
    58  H    0.025832
    59  H    0.056070
    60  H    0.046986
    61  H    0.080135
    62  H    0.053728
    63  H    0.053703
    64  H    0.040263
    65  H    0.049434
    66  H    0.047512
    67  H    0.050468
    68  H    0.049738
    69  H    0.043963
    70  H    0.038419
    71  H    0.044426
    72  H    0.040035
    73  H    0.037440
    74  H    0.051947
    75  H    0.058881
    76  H    0.085122
    77  H    0.049532
    78  H    0.054990
    79  H    0.046599
    80  Mg   0.994572
    81  C    0.048528
    82  C   -0.082885
    83  C   -0.068809
    84  C   -0.108808
    85  N   -0.341532
    86  C    0.045926
    87  C   -0.121751
    88  C   -0.075770
    89  C    0.029418
    90  C    0.026875
    91  C    0.023887
    92  C   -0.140398
    93  H    0.018725
    94  N   -0.559218
    95  C    0.189744
    96  C   -0.126401
    97  C   -0.130618
    98  C    0.181188
    99  C    0.043877
   100  C    0.089277
   101  O   -0.240705
   102  C   -0.020841
   103  N   -0.364194
   104  C    0.073192
   105  C   -0.083681
   106  C   -0.059604
   107  C    0.063381
   108  C    0.017223
   109  C   -0.011436
   110  C   -0.064753
   111  N   -0.360605
   112  C    0.130487
   113  C   -0.202701
   114  C   -0.017964
   115  C    0.092355
   116  C    0.097844
   117  C    0.101700
   118  O   -0.185111
   119  C   -0.133311
   120  C    0.263611
   121  O   -0.285037
   122  O   -0.350131
   123  C    0.138274
   124  H   -0.014428
   125  H    0.026623
   126  H   -0.019348
   127  H    0.037179
   128  H    0.028912
   129  H    0.042195
   130  H    0.037581
   131  H    0.042986
   132  H    0.031569
   133  H    0.058196
   134  H    0.053266
   135  H    0.056609
   136  H    0.054095
   137  H    0.028113
   138  H    0.054131
   139  H    0.074592
   140  H    0.050217
   141  H    0.047494
   142  H    0.043283
   143  H    0.027322
   144  H    0.021179
   145  H    0.043989
   146  H    0.041019
   147  H    0.036411
   148  H    0.043303
   149  H    0.035200
   150  H    0.044627
   151  H    0.027518
   152  H    0.034211
   153  H    0.066259
   154  H    0.064441
   155  H    0.073469
   156  H    0.048556
   157  H    0.075993
   158  H    0.049420
 Sum of Mulliken charges =  -0.00000

 Dipole moment (field-independent basis, Debye):
    X=              0.2444    Y=              0.9602    Z=              2.4234  Tot=              2.6181
 Quadrupole moment (field-independent basis, Debye-Ang):
   XX=           -102.2063   YY=           -562.3790   ZZ=           -492.2156
   XY=           -156.1526   XZ=             14.4813   YZ=            -18.7081

 Normal termination of Gaussian 16 at Sun Sep 19 19:26:48 2021.
