 Gaussian 16, Revision A.03,
 Gaussian 16:  ES64L-G16RevA.03 25-Dec-2016

 --------------------------------
 #p wB97XD/Def2SVP td=(nstates=5)
 --------------------------------

 --------------------------------
 TDDFT excited states in gaussian
 --------------------------------
 Symbolic Z-matrix:
 Charge =  0 Multiplicity = 1

                         Standard orientation:
 ---------------------------------------------------------------------
 Center     Atomic      Atomic             Coordinates (Angstroms)
 Number     Number       Type             X           Y           Z
 ---------------------------------------------------------------------
      1         12           0       22.023448   -0.685425    0.266437
      2          6           0       21.578181    2.394511   -1.531972
      3          6           0       22.858458    1.327350    3.063289
      4          6           0       22.642549   -3.551574    2.163332
      5          6           0       21.607260   -2.473901   -2.524342
      6          7           0       22.388248    1.683303    0.607674
      7          6           0       22.024100    2.674181   -0.234265
      8          6           0       22.345081    4.070017    0.411335
      9          6           0       22.946937    3.615381    1.788912
     10          6           0       22.652935    2.100950    1.888909
     11          6           0       24.468867    3.971389    1.921412
     12          6           0       21.114738    4.963255    0.568347
     13          6           0       21.286842    6.397060    0.187315
     14          1           0       20.063529    7.324327    0.227014
     15          7           0       22.447655   -1.089814    2.325725
     16          6           0       22.759984   -0.124110    3.276777
     17          6           0       22.987511   -0.795256    4.541208
     18          6           0       22.838455   -2.160005    4.357874
     19          6           0       22.705732   -2.336199    2.872368
     20          6           0       23.460365   -0.118701    5.795716
     21          6           0       22.989720   -3.370559    5.367374
     22          8           0       22.846637   -4.546098    5.135536
     23          6           0       23.174834   -3.066050    6.838174
     24          7           0       22.265549   -2.660968   -0.105968
     25          6           0       22.508130   -3.692751    0.762920
     26          6           0       22.758673   -5.029839    0.027206
     27          6           0       22.186853   -4.737340   -1.424978
     28          6           0       21.975160   -3.178004   -1.333806
     29          6           0       24.251329   -5.487491    0.082781
     30          6           0       20.875138   -5.505585   -1.771141
     31          6           0       19.635381   -5.086857   -0.984072
     32          7           0       21.701430   -0.230314   -1.627268
     33          6           0       21.469325   -1.096569   -2.731814
     34          6           0       21.217527   -0.323959   -3.946265
     35          6           0       21.200167    1.011327   -3.504892
     36          6           0       21.479889    1.037540   -2.112918
     37          6           0       20.971983   -0.868516   -5.276370
     38          6           0       21.012659    2.370146   -4.003041
     39          8           0       20.701165    2.751269   -5.118926
     40          6           0       21.338899    3.354886   -2.755480
     41          6           0       20.057447    4.191867   -2.749580
     42          8           0       18.914186    3.852515   -2.394727
     43          8           0       20.324225    5.380907   -3.261252
     44          6           0       19.307060    6.499359   -3.111712
     45          1           0       23.040966    1.957692    3.935760
     46          1           0       22.825570   -4.500958    2.672625
     47          1           0       21.408770   -3.122067   -3.380113
     48          1           0       22.999063    4.553855   -0.313357
     49          1           0       22.416722    4.066630    2.628642
     50          1           0       24.746619    4.564567    2.792671
     51          1           0       24.917150    4.354205    1.004377
     52          1           0       25.138787    3.140000    2.141878
     53          1           0       21.106241    5.113634    1.648036
     54          1           0       20.193696    4.490937    0.224957
     55          1           0       21.771714    6.655964   -0.755339
     56          1           0       21.958041    6.773570    0.959295
     57          1           0       23.439706    0.966049    5.694070
     58          1           0       24.465451   -0.392551    6.120268
     59          1           0       22.850730   -0.291460    6.682772
     60          1           0       22.344278   -2.494059    7.251678
     61          1           0       24.132213   -2.544922    6.830945
     62          1           0       23.373988   -4.046900    7.269920
     63          1           0       22.224689   -5.760558    0.635690
     64          1           0       22.898764   -4.720606   -2.250503
     65          1           0       24.395870   -6.376000    0.697348
     66          1           0       25.007264   -4.747729    0.343910
     67          1           0       24.437191   -5.705407   -0.969073
     68          1           0       21.126711   -6.563935   -1.841175
     69          1           0       20.626018   -5.267868   -2.805182
     70          1           0       19.801237   -4.372145   -0.178804
     71          1           0       19.261866   -6.001264   -0.523822
     72          1           0       18.882152   -4.534535   -1.544754
     73          1           0       20.812387   -0.124592   -6.057149
     74          1           0       20.086732   -1.494403   -5.164379
     75          1           0       21.812788   -1.517852   -5.524413
     76          1           0       22.125290    4.072622   -2.988960
     77          1           0       19.855205    7.422028   -3.303566
     78          1           0       18.926409    6.593505   -2.095139
     79          1           0       18.433078    6.380978   -3.753267
     80         12           0      -21.545829   -0.520246   -0.324546
     81          6           0      -23.266327    1.549468    1.749500
     82          6           0      -19.625481    2.030434   -1.631974
     83          6           0      -20.090659   -2.762838   -2.463851
     84          6           0      -23.785487   -3.193012    0.640410
     85          7           0      -21.618609    1.561826   -0.117362
     86          6           0      -22.241914    2.205727    1.003695
     87          6           0      -21.719346    3.574741    1.183878
     88          6           0      -20.886980    3.771816   -0.161682
     89          6           0      -20.671632    2.380863   -0.715273
     90          6           0      -21.635340    4.705762   -1.238665
     91          6           0      -21.006048    3.827779    2.547606
     92          6           0      -21.373194    5.104865    3.232240
     93          1           0      -21.549317    6.367438    2.299623
     94          7           0      -20.007938   -0.396065   -1.791529
     95          6           0      -19.394867    0.768068   -2.148323
     96          6           0      -18.423426    0.453595   -3.139103
     97          6           0      -18.448828   -0.977582   -3.367813
     98          6           0      -19.520786   -1.503088   -2.457532
     99          6           0      -17.604217    1.544443   -3.862953
    100          6           0      -17.636450   -1.890627   -4.231952
    101          8           0      -17.800819   -3.097575   -4.442475
    102          6           0      -16.384009   -1.224068   -4.917166
    103          7           0      -21.955255   -2.703334   -0.940059
    104          6           0      -21.158238   -3.368655   -1.738571
    105          6           0      -21.412316   -4.874004   -1.693788
    106          6           0      -22.598433   -4.990515   -0.694314
    107          6           0      -22.820406   -3.530017   -0.306134
    108          6           0      -21.750278   -5.516422   -3.133911
    109          6           0      -22.142410   -5.888743    0.538751
    110          6           0      -21.052305   -5.398955    1.523786
    111          7           0      -23.299967   -0.754819    0.815269
    112          6           0      -24.027131   -1.885268    1.137031
    113          6           0      -24.988976   -1.477420    2.181206
    114          6           0      -24.771189   -0.170989    2.501126
    115          6           0      -23.706214    0.227609    1.614221
    116          6           0      -26.110545   -2.331906    2.662580
    117          6           0      -25.168223    0.966015    3.331241
    118          8           0      -26.035371    1.075889    4.181779
    119          6           0      -24.189580    2.122844    2.844045
    120          6           0      -25.030913    3.185489    2.257013
    121          8           0      -25.856603    3.085383    1.332792
    122          8           0      -24.697034    4.313769    2.978374
    123          6           0      -25.272738    5.560328    2.456931
    124          1           0      -18.962085    2.799544   -2.032639
    125          1           0      -19.504795   -3.444576   -3.084948
    126          1           0      -24.419709   -4.004588    1.001395
    127          1           0      -22.609689    4.204800    1.178906
    128          1           0      -19.923010    4.205365    0.102847
    129          1           0      -22.467963    5.272456   -0.821894
    130          1           0      -22.126776    4.025892   -1.934489
    131          1           0      -20.819842    5.264310   -1.696231
    132          1           0      -19.926253    3.843558    2.399358
    133          1           0      -21.336290    2.980660    3.148631
    134          1           0      -20.608548    5.451719    3.926187
    135          1           0      -22.240133    5.171661    3.889694
    136          1           0      -16.782453    1.977899   -3.293053
    137          1           0      -18.374556    2.262141   -4.144578
    138          1           0      -17.049350    1.161702   -4.719267
    139          1           0      -16.726422   -0.576506   -5.724370
    140          1           0      -15.660685   -2.010676   -5.131215
    141          1           0      -15.777783   -0.628756   -4.234074
    142          1           0      -20.535040   -5.359202   -1.266584
    143          1           0      -23.488944   -5.448836   -1.124567
    144          1           0      -20.858598   -6.071165   -3.428116
    145          1           0      -21.931096   -4.727037   -3.864203
    146          1           0      -22.561446   -6.237416   -3.226906
    147          1           0      -21.851963   -6.907939    0.284354
    148          1           0      -23.060094   -5.908129    1.127514
    149          1           0      -21.607258   -5.299662    2.456771
    150          1           0      -20.576330   -4.474527    1.199114
    151          1           0      -20.232479   -6.103835    1.661898
    152          1           0      -26.215780   -2.020104    3.701261
    153          1           0      -25.900927   -3.397950    2.572806
    154          1           0      -27.026432   -1.938805    2.223243
    155          1           0      -23.815516    2.452616    3.812925
    156          1           0      -24.985948    6.280328    3.223933
    157          1           0      -26.353925    5.429014    2.500533
    158          1           0      -25.029449    5.798581    1.421281
 ---------------------------------------------------------------------

 SCF Done:  E(RwB97XD) =  -4070.59176011     A.U. after   19 cycles

 Excitation energies and oscillator strengths:

 Excited State   1:      Singlet-A      1.5888 eV  780.34 nm  f=0.3644  <S**2>=0.000
     310 -> 316       -0.18994
     311 -> 313        0.68305
     310 <- 316       -0.12270
 This state for optimization and/or second-order correction.
 Total Energy, E(TD-HF/TD-DFT) =  -4070.53337126
 Copying the excited state density for this state as the 1-particle RhoCI density.

 Excited State   2:      Singlet-A      1.6461 eV  753.18 nm  f=0.3822  <S**2>=0.000
     309 -> 315       -0.19182
     312 -> 314        0.68166
     309 <- 315       -0.11821

 Excited State   3:      Singlet-A      2.1588 eV  574.31 nm  f=0.0891  <S**2>=0.000
     310 -> 313        0.62433
     311 -> 316        0.32215

 Excited State   4:      Singlet-A      2.2139 eV  560.02 nm  f=0.0445  <S**2>=0.000
     309 -> 314        0.60813
     312 -> 315        0.34950

 Excited State   5:      Singlet-A      3.3630 eV  368.67 nm  f=0.3705  <S**2>=0.000
     306 -> 314       -0.18337
     308 -> 314       -0.37743
     309 -> 314       -0.24774
     312 -> 315        0.50110

 The electronic state is 1-A.
 Alpha  occ. eigenvalues --  -46.95598 -46.94644 -19.30865 -19.30162 -19.25201
 Alpha  occ. eigenvalues --  -19.24585 -19.24574 -19.24556 -19.24420 -19.22988
 Alpha  occ. eigenvalues --  -14.47088 -14.46897 -14.46782 -14.46152 -14.44746
 Alpha  occ. eigenvalues --  -14.44315 -14.44113 -14.44063 -10.43369 -10.42342
 Alpha  occ. eigenvalues --  -10.39731 -10.39592 -10.39436 -10.39422 -10.36065
 Alpha  occ. eigenvalues --  -10.36003 -10.35813 -10.35575 -10.35484 -10.35399
 Alpha  occ. eigenvalues --  -10.35285 -10.35153 -10.35147 -10.34890 -10.34714
 Alpha  occ. eigenvalues --  -10.34426 -10.34140 -10.34048 -10.33965 -10.33957
 Alpha  occ. eigenvalues --  -10.33560 -10.33447 -10.33053 -10.32952 -10.32913
 Alpha  occ. eigenvalues --  -10.32779 -10.32747 -10.32678 -10.32521 -10.32495
 Alpha  occ. eigenvalues --  -10.32483 -10.32449 -10.32429 -10.32413 -10.32391
 Alpha  occ. eigenvalues --  -10.32250 -10.32172 -10.32006 -10.31945 -10.31804
 Alpha  occ. eigenvalues --  -10.31669 -10.31650 -10.31532 -10.31491 -10.31424
 Alpha  occ. eigenvalues --  -10.31399 -10.31397 -10.31356 -10.30867 -10.30785
 Alpha  occ. eigenvalues --  -10.30696 -10.30464 -10.30435 -10.30340 -10.30108
 Alpha  occ. eigenvalues --  -10.30041 -10.29938 -10.29895 -10.29748 -10.29717
 Alpha  occ. eigenvalues --  -10.29617 -10.29478 -10.29420 -10.29304 -10.29230
 Alpha  occ. eigenvalues --  -10.28736  -3.21455  -3.20772  -1.95044  -1.94565
 Alpha  occ. eigenvalues --   -1.94425  -1.94350  -1.93912  -1.93745  -1.18148
 Alpha  occ. eigenvalues --   -1.18124  -1.13700  -1.12420  -1.12289  -1.11861
 Alpha  occ. eigenvalues --   -1.09650  -1.07493  -1.07127  -1.05797  -1.05777
 Alpha  occ. eigenvalues --   -1.05139  -1.04951  -1.04280  -1.03761  -1.03729
 Alpha  occ. eigenvalues --   -0.94330  -0.92839  -0.91116  -0.91032  -0.90663
 Alpha  occ. eigenvalues --   -0.90623  -0.89948  -0.89899  -0.89316  -0.89199
 Alpha  occ. eigenvalues --   -0.88912  -0.88843  -0.88415  -0.88227  -0.86578
 Alpha  occ. eigenvalues --   -0.86057  -0.85482  -0.85276  -0.84291  -0.84287
 Alpha  occ. eigenvalues --   -0.83470  -0.83457  -0.83177  -0.82990  -0.82148
 Alpha  occ. eigenvalues --   -0.81925  -0.80121  -0.80045  -0.79280  -0.79231
 Alpha  occ. eigenvalues --   -0.79131  -0.78899  -0.77915  -0.77726  -0.77083
 Alpha  occ. eigenvalues --   -0.76913  -0.74598  -0.74441  -0.74167  -0.73641
 Alpha  occ. eigenvalues --   -0.71987  -0.71789  -0.71218  -0.70749  -0.70320
 Alpha  occ. eigenvalues --   -0.69517  -0.69445  -0.68273  -0.67443  -0.67254
 Alpha  occ. eigenvalues --   -0.67084  -0.66946  -0.66672  -0.66615  -0.66367
 Alpha  occ. eigenvalues --   -0.66091  -0.64507  -0.63795  -0.62321  -0.61618
 Alpha  occ. eigenvalues --   -0.61382  -0.61310  -0.60934  -0.60906  -0.60767
 Alpha  occ. eigenvalues --   -0.59932  -0.59727  -0.59482  -0.59385  -0.58208
 Alpha  occ. eigenvalues --   -0.57904  -0.57660  -0.57474  -0.57432  -0.57059
 Alpha  occ. eigenvalues --   -0.56942  -0.56903  -0.56600  -0.56366  -0.55913
 Alpha  occ. eigenvalues --   -0.55457  -0.55294  -0.55170  -0.55148  -0.55119
 Alpha  occ. eigenvalues --   -0.54853  -0.54667  -0.54348  -0.54305  -0.54197
 Alpha  occ. eigenvalues --   -0.54081  -0.54073  -0.53904  -0.53479  -0.53451
 Alpha  occ. eigenvalues --   -0.52984  -0.52918  -0.52857  -0.52836  -0.52077
 Alpha  occ. eigenvalues --   -0.51823  -0.51763  -0.51576  -0.51570  -0.51233
 Alpha  occ. eigenvalues --   -0.51225  -0.51181  -0.50928  -0.50889  -0.50583
 Alpha  occ. eigenvalues --   -0.50489  -0.50464  -0.50395  -0.50382  -0.50091
 Alpha  occ. eigenvalues --   -0.50081  -0.49616  -0.49462  -0.49379  -0.49308
 Alpha  occ. eigenvalues --   -0.49173  -0.48800  -0.48700  -0.48691  -0.48597
 Alpha  occ. eigenvalues --   -0.48308  -0.48138  -0.48124  -0.47771  -0.47766
 Alpha  occ. eigenvalues --   -0.47510  -0.47446  -0.47228  -0.47114  -0.46850
 Alpha  occ. eigenvalues --   -0.46700  -0.46487  -0.46354  -0.46085  -0.45909
 Alpha  occ. eigenvalues --   -0.45852  -0.45612  -0.45483  -0.45415  -0.45166
 Alpha  occ. eigenvalues --   -0.45085  -0.44973  -0.44938  -0.44921  -0.44873
 Alpha  occ. eigenvalues --   -0.44729  -0.44526  -0.44298  -0.44079  -0.44063
 Alpha  occ. eigenvalues --   -0.44009  -0.43869  -0.43798  -0.43606  -0.43440
 Alpha  occ. eigenvalues --   -0.43319  -0.42846  -0.42689  -0.42403  -0.42286
 Alpha  occ. eigenvalues --   -0.42125  -0.41685  -0.41484  -0.41400  -0.41103
 Alpha  occ. eigenvalues --   -0.40549  -0.39994  -0.39845  -0.39561  -0.39522
 Alpha  occ. eigenvalues --   -0.39097  -0.38731  -0.38712  -0.38351  -0.38269
 Alpha  occ. eigenvalues --   -0.38054  -0.37669  -0.36624  -0.36199  -0.35918
 Alpha  occ. eigenvalues --   -0.35714  -0.35356  -0.34733  -0.33619  -0.33421
 Alpha  occ. eigenvalues --   -0.33123  -0.33006  -0.32962  -0.32823  -0.32527
 Alpha  occ. eigenvalues --   -0.32522  -0.32168  -0.32085  -0.26347  -0.26041
 Alpha  occ. eigenvalues --   -0.22774  -0.22759
 Alpha virt. eigenvalues --   -0.07081  -0.06829  -0.00461  -0.00142   0.01808
 Alpha virt. eigenvalues --    0.02689   0.04229   0.04465   0.05059   0.06490
 Alpha virt. eigenvalues --    0.06939   0.07448   0.07577   0.07808   0.07954

 Mulliken charges:
               1
     1  Mg   0.988062
     2  C    0.030605
     3  C   -0.071687
     4  C   -0.057304
     5  C   -0.104981
     6  N   -0.311569
     7  C   -0.008563
     8  C   -0.088521
     9  C   -0.082914
    10  C    0.047627
    11  C    0.016125
    12  C    0.051525
    13  C   -0.150284
    14  H    0.031525
    15  N   -0.450267
    16  C    0.180725
    17  C   -0.160777
    18  C   -0.081944
    19  C    0.134176
    20  C    0.055089
    21  C    0.056998
    22  O   -0.215977
    23  C   -0.009424
    24  N   -0.398635
    25  C    0.036586
    26  C   -0.083170
    27  C   -0.076461
    28  C    0.060712
    29  C    0.027329
    30  C   -0.006082
    31  C   -0.051453
    32  N   -0.527248
    33  C    0.158548
    34  C   -0.163576
    35  C   -0.041808
    36  C    0.162166
    37  C    0.081439
    38  C    0.128538
    39  O   -0.198790
    40  C   -0.129992
    41  C    0.252058
    42  O   -0.286960
    43  O   -0.341635
    44  C    0.147830
    45  H   -0.001392
    46  H    0.022965
    47  H   -0.006063
    48  H    0.039137
    49  H    0.035191
    50  H    0.033071
    51  H    0.038324
    52  H    0.025674
    53  H    0.023393
    54  H    0.069067
    55  H    0.048358
    56  H    0.037561
    57  H    0.022362
    58  H    0.055813
    59  H    0.037867
    60  H    0.076476
    61  H    0.035092
    62  H    0.053211
    63  H    0.040842
    64  H    0.043009
    65  H    0.048299
    66  H    0.047208
    67  H    0.024273
    68  H    0.039522
    69  H    0.022301
    70  H    0.040652
    71  H    0.045470
    72  H    0.042404
    73  H    0.065298
    74  H    0.051799
    75  H    0.044453
    76  H    0.067565
    77  H    0.057684
    78  H    0.052471
    79  H    0.073000
    80  Mg   0.932548
    81  C   -0.005053
    82  C   -0.105958
    83  C   -0.037065
    84  C   -0.077779
    85  N   -0.442531
    86  C   -0.000964
    87  C   -0.039788
    88  C   -0.135896
    89  C    0.130613
    90  C    0.033338
    91  C    0.069954
    92  C   -0.138343
    93  H    0.000478
    94  N   -0.460793
    95  C    0.169054
    96  C   -0.150540
    97  C   -0.078090
    98  C    0.134102
    99  C    0.056767
   100  C    0.061840
   101  O   -0.237535
   102  C   -0.054711
   103  N   -0.260575
   104  C    0.017965
   105  C   -0.075304
   106  C   -0.047642
   107  C    0.027344
   108  C   -0.001690
   109  C   -0.063148
   110  C   -0.056328
   111  N   -0.406445
   112  C    0.141295
   113  C   -0.240954
   114  C   -0.006308
   115  C    0.119881
   116  C    0.082700
   117  C    0.139172
   118  O   -0.194738
   119  C   -0.109521
   120  C    0.275638
   121  O   -0.259080
   122  O   -0.369950
   123  C    0.139927
   124  H    0.001542
   125  H    0.024225
   126  H    0.003033
   127  H    0.030721
   128  H    0.027193
   129  H    0.043598
   130  H    0.045661
   131  H    0.050300
   132  H    0.039601
   133  H    0.041756
   134  H    0.043895
   135  H    0.061508
   136  H    0.055383
   137  H    0.062184
   138  H    0.016807
   139  H    0.079287
   140  H    0.051797
   141  H    0.041990
   142  H    0.050167
   143  H    0.039055
   144  H    0.042704
   145  H    0.048636
   146  H    0.040718
   147  H    0.041653
   148  H    0.020544
   149  H    0.044553
   150  H    0.039802
   151  H    0.038693
   152  H    0.047109
   153  H    0.040277
   154  H    0.066226
   155  H    0.068438
   156  H    0.059483
   157  H    0.056203
   158  H    0.059369
 Sum of Mulliken charges =  -0.00000

 Dipole moment (field-independent basis, Debye):
    X=              7.3877    Y=              1.9170    Z=              2.8782  Tot=              8.1571
 Quadrupole moment (field-independent basis, Debye-Ang):
   XX=           -586.0491   YY=           -455.1516   ZZ=           -526.5042
   XY=             -0.5537   XZ=             73.9968   YZ=             19.1557

 Normal termination of Gaussian 16 at Sun Sep 19 07:45:59 2021.
