 Gaussian 16, Revision A.03,
 Gaussian 16:  ES64L-G16RevA.03 25-Dec-2016

 --------------------------------
 #p wB97XD/Def2SVP td=(nstates=5)
 --------------------------------

 --------------------------------
 TDDFT excited states in gaussian
 --------------------------------
 Symbolic Z-matrix:
 Charge =  0 Multiplicity = 1

                         Standard orientation:
 ---------------------------------------------------------------------
 Center     Atomic      Atomic             Coordinates (Angstroms)
 Number     Number       Type             X           Y           Z
 ---------------------------------------------------------------------
      1         12           0      -30.675452   -0.279993   -0.401908
      2          6           0      -27.613523    1.266037    0.428006
      3          6           0      -29.401564   -3.305448    0.777716
      4          6           0      -33.878890   -1.433838   -0.256944
      5          6           0      -31.923078    3.012638   -1.059075
      6          7           0      -28.752993   -0.910111    0.445215
      7          6           0      -27.687065   -0.126021    0.712277
      8          6           0      -26.572826   -0.928201    1.460048
      9          6           0      -27.065772   -2.422779    1.184461
     10          6           0      -28.547106   -2.235351    0.722280
     11          6           0      -26.374745   -3.301203    0.116957
     12          6           0      -26.576861   -0.510788    2.979251
     13          6           0      -25.165633   -0.468940    3.628374
     14          1           0      -25.076049   -1.031627    5.105199
     15          7           0      -31.539266   -2.223357   -0.004232
     16          6           0      -30.804674   -3.301707    0.412353
     17          6           0      -31.701993   -4.389806    0.507536
     18          6           0      -33.029996   -3.915943    0.290762
     19          6           0      -32.880795   -2.464591   -0.063144
     20          6           0      -31.314483   -5.801645    0.879018
     21          6           0      -34.296952   -4.664893    0.527689
     22          8           0      -34.303501   -5.785659    1.010995
     23          6           0      -35.617857   -4.144744    0.287931
     24          7           0      -32.645484    0.735186   -0.529290
     25          6           0      -33.803708   -0.053103   -0.598190
     26          6           0      -34.981777    0.776808   -1.002783
     27          6           0      -34.400151    2.225029   -1.203544
     28          6           0      -32.921952    2.016221   -0.923270
     29          6           0      -35.612767    0.167666   -2.261377
     30          6           0      -35.203319    3.342888   -0.437807
     31          6           0      -35.752384    4.467623   -1.262120
     32          7           0      -29.943555    1.783652   -0.380330
     33          6           0      -30.567284    2.957765   -0.724367
     34          6           0      -29.592839    4.070579   -0.753265
     35          6           0      -28.446476    3.411884   -0.234774
     36          6           0      -28.689040    2.056075   -0.117885
     37          6           0      -29.817064    5.546738   -1.041458
     38          6           0      -27.125049    3.667606    0.273760
     39          8           0      -26.515611    4.740780    0.403153
     40          6           0      -26.495543    2.343730    0.706473
     41          6           0      -25.213079    2.110450    0.016564
     42          8           0      -24.198455    1.968114    0.596962
     43          8           0      -25.345439    1.880221   -1.322263
     44          6           0      -24.071549    1.398478   -1.899010
     45          1           0      -29.011508   -4.284256    1.066104
     46          1           0      -34.868249   -1.893231   -0.283340
     47          1           0      -32.125259    4.078888   -1.184867
     48          1           0      -25.616286   -0.692589    0.993226
     49          1           0      -27.303770   -3.005520    2.074183
     50          1           0      -25.911645   -2.675865   -0.647171
     51          1           0      -26.998440   -4.048076   -0.374356
     52          1           0      -25.568212   -3.815322    0.638640
     53          1           0      -27.244912   -1.151923    3.555065
     54          1           0      -27.011395    0.488882    2.985027
     55          1           0      -24.913644    0.591519    3.609964
     56          1           0      -24.550112   -0.986775    2.892459
     57          1           0      -32.000723   -6.589292    0.567649
     58          1           0      -31.246119   -5.766013    1.965953
     59          1           0      -30.281521   -6.091071    0.685730
     60          1           0      -35.678486   -3.921925   -0.778097
     61          1           0      -35.819592   -3.276085    0.915355
     62          1           0      -36.343764   -4.914821    0.549134
     63          1           0      -35.675969    0.888728   -0.170257
     64          1           0      -34.236474    2.566546   -2.225876
     65          1           0      -35.275123   -0.849043   -2.463836
     66          1           0      -35.364319    0.740148   -3.155043
     67          1           0      -36.667999   -0.032307   -2.077758
     68          1           0      -34.500658    3.720907    0.304812
     69          1           0      -36.129799    2.990642    0.014218
     70          1           0      -35.380550    5.394468   -0.826143
     71          1           0      -36.840126    4.516822   -1.208800
     72          1           0      -35.561473    4.351616   -2.329026
     73          1           0      -30.184771    6.094126   -0.173315
     74          1           0      -30.449587    5.724072   -1.912178
     75          1           0      -28.790363    5.885025   -1.180722
     76          1           0      -26.190916    2.407432    1.750309
     77          1           0      -24.233710    1.231026   -2.964113
     78          1           0      -23.749176    0.480142   -1.408456
     79          1           0      -23.272974    2.139516   -1.906083
     80         12           0       30.851530    0.266475   -0.333429
     81          6           0       27.813192   -1.505920   -0.190033
     82          6           0       29.057858    3.051487    0.724993
     83          6           0       33.713323    1.936759    0.001017
     84          6           0       32.497324   -2.785846   -0.467940
     85          7           0       28.678268    0.615865    0.355199
     86          6           0       27.564766   -0.190348    0.220942
     87          6           0       26.232023    0.523770    0.303806
     88          6           0       26.633994    1.993246    0.574533
     89          6           0       28.196365    1.924504    0.575067
     90          6           0       26.066479    3.029752   -0.478149
     91          6           0       25.211688    0.000239    1.410592
     92          6           0       25.793093   -0.581938    2.709300
     93          1           0       25.739979    0.290098    3.998605
     94          7           0       31.302914    2.183499    0.257305
     95          6           0       30.438681    3.186833    0.592195
     96          6           0       31.180915    4.437616    0.803406
     97          6           0       32.559852    4.131062    0.590637
     98          6           0       32.565014    2.670266    0.271873
     99          6           0       30.517528    5.763746    1.155640
    100          6           0       33.640819    5.247837    0.840527
    101          8           0       33.256745    6.336205    1.245487
    102          6           0       35.182919    4.923257    0.657167
    103          7           0       32.776106   -0.351745   -0.123210
    104          6           0       33.842819    0.543431   -0.158223
    105          6           0       35.261560   -0.255727   -0.262870
    106          6           0       34.733530   -1.791065   -0.250801
    107          6           0       33.249291   -1.617718   -0.289781
    108          6           0       36.073206    0.126328   -1.535591
    109          6           0       35.189394   -2.655711    1.001723
    110          6           0       35.853198   -4.020607    0.762078
    111          7           0       30.309819   -1.770810   -0.456416
    112          6           0       31.057044   -2.920104   -0.494244
    113          6           0       30.137412   -4.077135   -0.516711
    114          6           0       28.832526   -3.515265   -0.516259
    115          6           0       29.023830   -2.107990   -0.428947
    116          6           0       30.495970   -5.537363   -0.517984
    117          6           0       27.406231   -3.888513   -0.469318
    118          8           0       26.814842   -4.972141   -0.582775
    119          6           0       26.694029   -2.544123   -0.455689
    120          6           0       25.912619   -2.318285   -1.624705
    121          8           0       26.429244   -1.951438   -2.711824
    122          8           0       24.540649   -2.521912   -1.376546
    123          6           0       23.589316   -2.174276   -2.427206
    124          1           0       28.529489    3.992952    0.887089
    125          1           0       34.657351    2.482114   -0.053863
    126          1           0       33.088453   -3.697815   -0.570134
    127          1           0       25.816990    0.362538   -0.690387
    128          1           0       26.375409    2.177867    1.616571
    129          1           0       25.315379    3.657972    0.000613
    130          1           0       25.628944    2.432718   -1.278731
    131          1           0       26.853182    3.681771   -0.859169
    132          1           0       24.726143   -0.817401    0.876344
    133          1           0       24.475681    0.778725    1.612778
    134          1           0       26.832856   -0.877638    2.565564
    135          1           0       25.290589   -1.527342    2.909449
    136          1           0       30.607428    6.055986    2.201901
    137          1           0       29.514249    5.824440    0.733734
    138          1           0       30.963706    6.580657    0.588741
    139          1           0       35.284923    4.413266   -0.301051
    140          1           0       35.480722    4.283605    1.487559
    141          1           0       35.839757    5.773863    0.839196
    142          1           0       35.866533    0.104263    0.568772
    143          1           0       35.047802   -2.240256   -1.193178
    144          1           0       35.836811   -0.608484   -2.304900
    145          1           0       37.140436    0.232972   -1.340963
    146          1           0       35.847545    1.118235   -1.926777
    147          1           0       34.313673   -2.755875    1.643760
    148          1           0       35.926514   -1.995366    1.458541
    149          1           0       35.804961   -4.660142    1.643851
    150          1           0       36.881321   -3.739069    0.535597
    151          1           0       35.296560   -4.442671   -0.074915
    152          1           0       31.473399   -5.568413   -0.037317
    153          1           0       30.626655   -5.741173   -1.580740
    154          1           0       29.730272   -6.206001   -0.123526
    155          1           0       26.069437   -2.643293    0.431815
    156          1           0       23.630387   -2.750348   -3.351665
    157          1           0       23.693883   -1.121123   -2.689688
    158          1           0       22.604786   -2.171290   -1.959166
 ---------------------------------------------------------------------

 SCF Done:  E(RwB97XD) =  -4070.57657223     A.U. after   20 cycles

 Excitation energies and oscillator strengths:

 Excited State   1:      Singlet-A      1.6192 eV  765.70 nm  f=0.4050  <S**2>=0.000
     309 -> 315        0.17887
     311 -> 313        0.68466
     309 <- 315        0.11646
 This state for optimization and/or second-order correction.
 Total Energy, E(TD-HF/TD-DFT) =  -4070.51706706
 Copying the excited state density for this state as the 1-particle RhoCI density.

 Excited State   2:      Singlet-A      1.6636 eV  745.26 nm  f=0.3757  <S**2>=0.000
     310 -> 316        0.18690
     312 -> 314        0.68288
     310 <- 316        0.11707

 Excited State   3:      Singlet-A      2.1451 eV  577.98 nm  f=0.1103  <S**2>=0.000
     309 -> 313        0.63986
     311 -> 315       -0.28460

 Excited State   4:      Singlet-A      2.2612 eV  548.31 nm  f=0.0696  <S**2>=0.000
     310 -> 314        0.61504
     312 -> 316       -0.33675

 Excited State   5:      Singlet-A      3.2206 eV  384.98 nm  f=0.0034  <S**2>=0.000
     304 -> 313       -0.13592
     306 -> 313        0.11711
     308 -> 313        0.65563
     308 -> 317        0.10333

 The electronic state is 1-A.
 Alpha  occ. eigenvalues --  -46.97174 -46.95284 -19.31022 -19.30355 -19.25201
 Alpha  occ. eigenvalues --  -19.24861 -19.24644 -19.24258 -19.23958 -19.22317
 Alpha  occ. eigenvalues --  -14.47617 -14.47289 -14.47287 -14.46659 -14.44562
 Alpha  occ. eigenvalues --  -14.44489 -14.43901 -14.43898 -10.43891 -10.42579
 Alpha  occ. eigenvalues --  -10.40508 -10.39386 -10.38837 -10.37415 -10.36315
 Alpha  occ. eigenvalues --  -10.36022 -10.35974 -10.35893 -10.35845 -10.35587
 Alpha  occ. eigenvalues --  -10.35421 -10.35104 -10.35012 -10.35008 -10.34619
 Alpha  occ. eigenvalues --  -10.34583 -10.34252 -10.34105 -10.33899 -10.33874
 Alpha  occ. eigenvalues --  -10.33532 -10.33365 -10.33123 -10.33118 -10.33082
 Alpha  occ. eigenvalues --  -10.32969 -10.32769 -10.32590 -10.32561 -10.32518
 Alpha  occ. eigenvalues --  -10.32507 -10.32502 -10.32358 -10.32349 -10.32289
 Alpha  occ. eigenvalues --  -10.32264 -10.32205 -10.32131 -10.31886 -10.31853
 Alpha  occ. eigenvalues --  -10.31804 -10.31615 -10.31582 -10.31564 -10.31359
 Alpha  occ. eigenvalues --  -10.31253 -10.31024 -10.30984 -10.30914 -10.30765
 Alpha  occ. eigenvalues --  -10.30756 -10.30745 -10.30679 -10.30666 -10.30487
 Alpha  occ. eigenvalues --  -10.30443 -10.30397 -10.30261 -10.29861 -10.29701
 Alpha  occ. eigenvalues --  -10.29573 -10.29543 -10.29419 -10.29228 -10.29174
 Alpha  occ. eigenvalues --  -10.29139  -3.22818  -3.21350  -1.96411  -1.95909
 Alpha  occ. eigenvalues --   -1.95770  -1.94895  -1.94489  -1.94325  -1.20154
 Alpha  occ. eigenvalues --   -1.17142  -1.12644  -1.11735  -1.11293  -1.11274
 Alpha  occ. eigenvalues --   -1.11232  -1.09218  -1.07185  -1.06153  -1.05761
 Alpha  occ. eigenvalues --   -1.05596  -1.05452  -1.04607  -1.04572  -1.03902
 Alpha  occ. eigenvalues --   -0.95130  -0.94647  -0.91299  -0.91058  -0.90967
 Alpha  occ. eigenvalues --   -0.90714  -0.90133  -0.89970  -0.89954  -0.89006
 Alpha  occ. eigenvalues --   -0.88725  -0.88014  -0.87765  -0.87538  -0.86795
 Alpha  occ. eigenvalues --   -0.86609  -0.86459  -0.85784  -0.84687  -0.84644
 Alpha  occ. eigenvalues --   -0.84412  -0.83573  -0.82953  -0.82904  -0.82535
 Alpha  occ. eigenvalues --   -0.82046  -0.80624  -0.80095  -0.79567  -0.79157
 Alpha  occ. eigenvalues --   -0.78816  -0.78697  -0.78446  -0.78425  -0.77375
 Alpha  occ. eigenvalues --   -0.76861  -0.75169  -0.74510  -0.74321  -0.73728
 Alpha  occ. eigenvalues --   -0.71373  -0.71234  -0.71212  -0.70871  -0.70368
 Alpha  occ. eigenvalues --   -0.69940  -0.68861  -0.68825  -0.68305  -0.67692
 Alpha  occ. eigenvalues --   -0.67665  -0.67188  -0.67022  -0.66665  -0.66582
 Alpha  occ. eigenvalues --   -0.66185  -0.65327  -0.64433  -0.62240  -0.62104
 Alpha  occ. eigenvalues --   -0.62040  -0.61599  -0.61028  -0.61001  -0.60884
 Alpha  occ. eigenvalues --   -0.60645  -0.60293  -0.59720  -0.59200  -0.59066
 Alpha  occ. eigenvalues --   -0.58466  -0.58110  -0.58039  -0.57553  -0.57531
 Alpha  occ. eigenvalues --   -0.57092  -0.56880  -0.56523  -0.56364  -0.56149
 Alpha  occ. eigenvalues --   -0.55714  -0.55507  -0.55329  -0.55107  -0.54987
 Alpha  occ. eigenvalues --   -0.54785  -0.54582  -0.54498  -0.54300  -0.54222
 Alpha  occ. eigenvalues --   -0.54055  -0.53686  -0.53482  -0.53449  -0.53294
 Alpha  occ. eigenvalues --   -0.53154  -0.52883  -0.52837  -0.52654  -0.52236
 Alpha  occ. eigenvalues --   -0.51981  -0.51943  -0.51799  -0.51552  -0.51318
 Alpha  occ. eigenvalues --   -0.51251  -0.51251  -0.51182  -0.51043  -0.50903
 Alpha  occ. eigenvalues --   -0.50577  -0.50476  -0.50336  -0.50262  -0.50116
 Alpha  occ. eigenvalues --   -0.50073  -0.49472  -0.49269  -0.49269  -0.49190
 Alpha  occ. eigenvalues --   -0.48953  -0.48723  -0.48635  -0.48549  -0.48377
 Alpha  occ. eigenvalues --   -0.48281  -0.48261  -0.48166  -0.48080  -0.47692
 Alpha  occ. eigenvalues --   -0.47679  -0.47293  -0.47108  -0.47049  -0.46895
 Alpha  occ. eigenvalues --   -0.46812  -0.46722  -0.46648  -0.46570  -0.46464
 Alpha  occ. eigenvalues --   -0.46311  -0.46119  -0.46005  -0.45869  -0.45541
 Alpha  occ. eigenvalues --   -0.45315  -0.45154  -0.45013  -0.44938  -0.44881
 Alpha  occ. eigenvalues --   -0.44827  -0.44646  -0.44561  -0.44352  -0.44352
 Alpha  occ. eigenvalues --   -0.44174  -0.44046  -0.43710  -0.43546  -0.43312
 Alpha  occ. eigenvalues --   -0.42956  -0.42913  -0.42657  -0.42486  -0.42144
 Alpha  occ. eigenvalues --   -0.42073  -0.41761  -0.41596  -0.41552  -0.41141
 Alpha  occ. eigenvalues --   -0.40840  -0.40597  -0.39935  -0.39670  -0.39597
 Alpha  occ. eigenvalues --   -0.39460  -0.39252  -0.39154  -0.38983  -0.38948
 Alpha  occ. eigenvalues --   -0.38638  -0.38345  -0.36918  -0.36739  -0.36310
 Alpha  occ. eigenvalues --   -0.36144  -0.35764  -0.35472  -0.33724  -0.33535
 Alpha  occ. eigenvalues --   -0.33234  -0.33016  -0.32990  -0.32618  -0.32442
 Alpha  occ. eigenvalues --   -0.31921  -0.31763  -0.31340  -0.26438  -0.26067
 Alpha  occ. eigenvalues --   -0.23377  -0.22635
 Alpha virt. eigenvalues --   -0.07767  -0.06504  -0.00352   0.00115   0.02320
 Alpha virt. eigenvalues --    0.02344   0.04107   0.04401   0.04538   0.04925
 Alpha virt. eigenvalues --    0.05582   0.07265   0.07494   0.07809   0.07993

 Mulliken charges:
               1
     1  Mg   0.930768
     2  C   -0.012520
     3  C   -0.078805
     4  C   -0.029740
     5  C   -0.055294
     6  N   -0.359390
     7  C   -0.011295
     8  C   -0.090436
     9  C   -0.100362
    10  C    0.079542
    11  C    0.033001
    12  C    0.011789
    13  C   -0.106985
    14  H    0.041711
    15  N   -0.446473
    16  C    0.131570
    17  C   -0.166272
    18  C   -0.071257
    19  C    0.121571
    20  C    0.092213
    21  C   -0.000506
    22  O   -0.245877
    23  C    0.011461
    24  N   -0.354428
    25  C    0.049145
    26  C   -0.068705
    27  C   -0.054109
    28  C    0.053492
    29  C    0.028796
    30  C   -0.008413
    31  C   -0.059101
    32  N   -0.368081
    33  C    0.038604
    34  C   -0.158677
    35  C   -0.038450
    36  C    0.117623
    37  C    0.062069
    38  C    0.094530
    39  O   -0.225728
    40  C   -0.017534
    41  C    0.221558
    42  O   -0.212637
    43  O   -0.366510
    44  C    0.140014
    45  H    0.006068
    46  H   -0.031085
    47  H   -0.001355
    48  H    0.038013
    49  H    0.035488
    50  H    0.032292
    51  H    0.046123
    52  H    0.040153
    53  H    0.042483
    54  H    0.036090
    55  H    0.065961
    56  H    0.053262
    57  H    0.070823
    58  H    0.039834
    59  H    0.017370
    60  H    0.051085
    61  H    0.064286
    62  H    0.052283
    63  H    0.047994
    64  H    0.037680
    65  H    0.035140
    66  H    0.041426
    67  H    0.037078
    68  H    0.041955
    69  H    0.039585
    70  H    0.042339
    71  H    0.030774
    72  H    0.032995
    73  H    0.064841
    74  H    0.051572
    75  H    0.065769
    76  H    0.062053
    77  H    0.046744
    78  H    0.053344
    79  H    0.057666
    80  Mg   0.986822
    81  C   -0.108961
    82  C   -0.085678
    83  C   -0.110600
    84  C   -0.096019
    85  N   -0.341888
    86  C   -0.038277
    87  C   -0.062434
    88  C   -0.058525
    89  C    0.026633
    90  C    0.027363
    91  C   -0.015137
    92  C   -0.118697
    93  H    0.036896
    94  N   -0.448433
    95  C    0.153506
    96  C   -0.157727
    97  C   -0.113567
    98  C    0.206799
    99  C    0.095248
   100  C    0.069602
   101  O   -0.226510
   102  C   -0.026111
   103  N   -0.421885
   104  C    0.079421
   105  C   -0.103128
   106  C   -0.075628
   107  C    0.085694
   108  C    0.009839
   109  C   -0.024336
   110  C   -0.038115
   111  N   -0.406580
   112  C    0.119658
   113  C   -0.211629
   114  C   -0.096342
   115  C    0.263562
   116  C    0.092512
   117  C    0.145480
   118  O   -0.217856
   119  C   -0.059371
   120  C    0.315815
   121  O   -0.277634
   122  O   -0.382225
   123  C    0.152234
   124  H   -0.009090
   125  H   -0.035064
   126  H   -0.015869
   127  H    0.049466
   128  H    0.045656
   129  H    0.043710
   130  H    0.040418
   131  H    0.046385
   132  H    0.038238
   133  H    0.048349
   134  H    0.063099
   135  H    0.056418
   136  H    0.065411
   137  H    0.023058
   138  H    0.044145
   139  H    0.073620
   140  H    0.060914
   141  H    0.052776
   142  H    0.044429
   143  H    0.036123
   144  H    0.037587
   145  H    0.038510
   146  H    0.031783
   147  H    0.048525
   148  H    0.025119
   149  H    0.051615
   150  H    0.041615
   151  H    0.037703
   152  H    0.034752
   153  H    0.054933
   154  H    0.066673
   155  H    0.059830
   156  H    0.069360
   157  H    0.033789
   158  H    0.052222
 Sum of Mulliken charges =  -0.00000

 Dipole moment (field-independent basis, Debye):
    X=             -1.4593    Y=              1.9070    Z=             -4.2822  Tot=              4.9095
 Quadrupole moment (field-independent basis, Debye-Ang):
   XX=           -147.1271   YY=           -572.1687   ZZ=           -514.3913
   XY=            -36.2709   XZ=             89.3079   YZ=            -11.0560

 Normal termination of Gaussian 16 at Sat Sep 18 22:43:29 2021.
