 Gaussian 16, Revision A.03,
 Gaussian 16:  ES64L-G16RevA.03 25-Dec-2016

 --------------------------------
 #p wB97XD/Def2SVP td=(nstates=5)
 --------------------------------

 --------------------------------
 TDDFT excited states in gaussian
 --------------------------------
 Symbolic Z-matrix:
 Charge =  0 Multiplicity = 1

                         Standard orientation:
 ---------------------------------------------------------------------
 Center     Atomic      Atomic             Coordinates (Angstroms)
 Number     Number       Type             X           Y           Z
 ---------------------------------------------------------------------
      1         12           0      -19.318386    0.265138    0.204413
      2          6           0      -17.953415   -2.683483   -0.811698
      3          6           0      -16.088101    1.472648    0.573768
      4          6           0      -20.665451    3.275299    0.834445
      5          6           0      -22.497197   -0.828634   -0.837026
      6          7           0      -17.251872   -0.457254   -0.342983
      7          6           0      -16.993165   -1.730732   -0.701731
      8          6           0      -15.554597   -1.959984   -0.990418
      9          6           0      -14.920622   -0.683904   -0.152445
     10          6           0      -16.163852    0.205152    0.060826
     11          6           0      -14.189420   -1.120117    1.151416
     12          6           0      -15.307892   -1.852918   -2.486892
     13          6           0      -15.755536   -0.526987   -3.259716
     14          1           0      -14.869910    0.067624   -4.347605
     15          7           0      -18.507980    2.110407    0.639982
     16          6           0      -17.139706    2.387041    0.888128
     17          6           0      -17.071164    3.705905    1.422962
     18          6           0      -18.334615    4.281856    1.471109
     19          6           0      -19.268603    3.236724    1.019505
     20          6           0      -15.709962    4.246365    1.811320
     21          6           0      -18.684573    5.705309    1.833788
     22          8           0      -17.714183    6.442849    2.138083
     23          6           0      -19.955113    6.326430    1.663573
     24          7           0      -21.279281    1.148742   -0.192306
     25          6           0      -21.583867    2.408074    0.233859
     26          6           0      -23.065752    2.752908   -0.048642
     27          6           0      -23.631271    1.397859   -0.592716
     28          6           0      -22.385437    0.528552   -0.617325
     29          6           0      -23.801418    3.292854    1.159170
     30          6           0      -24.328717    1.593427   -2.042840
     31          6           0      -25.641296    0.820328   -2.214413
     32          7           0      -20.171749   -1.442168   -0.671024
     33          6           0      -21.459691   -1.835050   -0.848473
     34          6           0      -21.433236   -3.248466   -1.110065
     35          6           0      -20.069697   -3.703621   -1.077064
     36          6           0      -19.350595   -2.545720   -0.830879
     37          6           0      -22.583819   -4.052503   -1.611016
     38          6           0      -19.139991   -4.769390   -1.271558
     39          8           0      -19.457743   -5.940117   -1.516078
     40          6           0      -17.764146   -4.160718   -1.072965
     41          6           0      -17.086739   -4.876711    0.035307
     42          8           0      -16.936052   -6.080239   -0.040740
     43          8           0      -16.608850   -4.071067    1.023304
     44          6           0      -15.917520   -4.764617    2.111866
     45          1           0      -15.104011    1.758852    0.950431
     46          1           0      -21.106320    4.175764    1.266778
     47          1           0      -23.469700   -1.295807   -1.007559
     48          1           0      -15.114279   -2.911047   -0.690747
     49          1           0      -14.090038   -0.234890   -0.698624
     50          1           0      -13.151472   -0.790448    1.124035
     51          1           0      -14.191018   -2.210376    1.163190
     52          1           0      -14.660580   -0.779171    2.074212
     53          1           0      -15.724392   -2.751615   -2.942300
     54          1           0      -14.245153   -2.084084   -2.558346
     55          1           0      -15.930808    0.348649   -2.634563
     56          1           0      -16.655671   -0.867263   -3.770814
     57          1           0      -15.287939    4.652435    0.891833
     58          1           0      -15.081382    3.417972    2.135654
     59          1           0      -15.694642    5.003662    2.595711
     60          1           0      -19.861127    7.396162    1.473999
     61          1           0      -20.669796    6.082240    2.450569
     62          1           0      -20.315731    5.954682    0.705440
     63          1           0      -22.996887    3.493801   -0.845923
     64          1           0      -24.286311    0.952822    0.156013
     65          1           0      -23.164800    3.462905    2.027035
     66          1           0      -24.728754    2.838402    1.506868
     67          1           0      -24.001062    4.324574    0.868220
     68          1           0      -23.696574    1.297702   -2.880188
     69          1           0      -24.508341    2.643616   -2.272234
     70          1           0      -26.460161    1.538963   -2.194732
     71          1           0      -25.781625    0.190235   -1.335866
     72          1           0      -25.680290    0.247603   -3.141131
     73          1           0      -23.410096   -4.232004   -0.924215
     74          1           0      -22.148562   -4.998355   -1.935727
     75          1           0      -23.069433   -3.584547   -2.467411
     76          1           0      -17.219179   -4.337213   -2.000765
     77          1           0      -15.093934   -5.330137    1.675040
     78          1           0      -16.576593   -5.386041    2.718341
     79          1           0      -15.593247   -4.055969    2.873806
     80         12           0       19.393406   -0.121408   -0.681349
     81          6           0       16.662133    0.480669    1.589431
     82          6           0       20.064444   -2.965873    0.935599
     83          6           0       22.364640   -0.125582   -2.231349
     84          6           0       18.822858    3.104817   -1.934427
     85          7           0       18.505145   -1.065480    1.065514
     86          6           0       17.297896   -0.772532    1.722493
     87          6           0       16.864323   -1.948255    2.678655
     88          6           0       18.012415   -2.983444    2.479074
     89          6           0       18.897473   -2.332253    1.383165
     90          6           0       18.814385   -3.370874    3.695521
     91          6           0       15.368880   -2.491993    2.366832
     92          6           0       14.425955   -2.541307    3.575389
     93          1           0       13.845892   -3.973289    3.875909
     94          7           0       20.942718   -1.455675   -0.753855
     95          6           0       21.061310   -2.567596   -0.021219
     96          6           0       22.319151   -3.263636   -0.297742
     97          6           0       23.025703   -2.359308   -1.163720
     98          6           0       22.122569   -1.232007   -1.417937
     99          6           0       22.670511   -4.563672    0.287646
    100          6           0       24.507955   -2.564362   -1.608356
    101          8           0       25.056445   -1.811522   -2.395714
    102          6           0       25.348040   -3.703281   -1.125144
    103          7           0       20.391476    1.253988   -1.868191
    104          6           0       21.589357    0.955015   -2.508409
    105          6           0       22.011850    2.109701   -3.475043
    106          6           0       20.687730    2.950133   -3.611822
    107          6           0       19.880350    2.383655   -2.444087
    108          6           0       23.320867    2.897582   -3.143186
    109          6           0       19.945733    2.753219   -4.962134
    110          6           0       19.306284    3.950785   -5.618380
    111          7           0       18.069362    1.507832   -0.248502
    112          6           0       17.969355    2.734017   -0.842164
    113          6           0       16.732878    3.442279   -0.290513
    114          6           0       16.170326    2.578736    0.618088
    115          6           0       17.054903    1.447007    0.662579
    116          6           0       16.255891    4.778638   -0.812117
    117          6           0       15.107647    2.352148    1.581349
    118          8           0       14.187766    3.164565    1.812211
    119          6           0       15.440257    0.948076    2.367402
    120          6           0       15.787242    1.107722    3.832892
    121          8           0       16.694353    1.883413    4.193871
    122          8           0       14.882699    0.454595    4.671128
    123          6           0       14.952600    0.938989    6.044821
    124          1           0       20.277474   -3.955936    1.343560
    125          1           0       23.321388   -0.240054   -2.744493
    126          1           0       18.637087    4.045150   -2.458499
    127          1           0       16.868857   -1.466926    3.656416
    128          1           0       17.499472   -3.921554    2.262669
    129          1           0       18.518961   -2.830373    4.594890
    130          1           0       19.773655   -2.934937    3.418551
    131          1           0       18.762304   -4.435420    3.925827
    132          1           0       15.557408   -3.481069    1.950285
    133          1           0       14.950652   -1.920689    1.538525
    134          1           0       13.656643   -1.789436    3.399473
    135          1           0       14.975966   -2.245919    4.469800
    136          1           0       23.594911   -4.677690    0.852986
    137          1           0       22.943785   -5.178625   -0.569068
    138          1           0       21.841328   -5.122801    0.721710
    139          1           0       24.830579   -4.600051   -1.468039
    140          1           0       25.285256   -3.694163   -0.036631
    141          1           0       26.342297   -3.528861   -1.534489
    142          1           0       22.190577    1.597844   -4.420673
    143          1           0       20.829392    4.005781   -3.381421
    144          1           0       23.757750    2.347006   -2.310369
    145          1           0       23.167612    3.957738   -2.943518
    146          1           0       24.085144    2.765507   -3.910044
    147          1           0       19.195176    2.045490   -4.610688
    148          1           0       20.524351    2.242893   -5.732384
    149          1           0       19.542016    3.862088   -6.678946
    150          1           0       19.722519    4.899411   -5.277793
    151          1           0       18.230645    3.782883   -5.559046
    152          1           0       16.968563    5.098595   -1.572050
    153          1           0       16.334996    5.504659   -0.003267
    154          1           0       15.221399    4.693322   -1.144142
    155          1           0       14.604785    0.265075    2.213762
    156          1           0       14.087528    1.507745    6.382969
    157          1           0       15.838762    1.535278    6.262675
    158          1           0       15.027841    0.051968    6.673291
 ---------------------------------------------------------------------

 SCF Done:  E(RwB97XD) =  -4070.59710544     A.U. after   19 cycles

 Excitation energies and oscillator strengths:

 Excited State   1:      Singlet-A      1.6411 eV  755.49 nm  f=0.4112  <S**2>=0.000
     310 -> 316        0.17861
     312 -> 314        0.68578
     310 <- 316        0.11671
 This state for optimization and/or second-order correction.
 Total Energy, E(TD-HF/TD-DFT) =  -4070.53679576
 Copying the excited state density for this state as the 1-particle RhoCI density.

 Excited State   2:      Singlet-A      1.6886 eV  734.25 nm  f=0.3957  <S**2>=0.000
     309 -> 315       -0.18193
     311 -> 313        0.68303
     309 <- 315       -0.11273

 Excited State   3:      Singlet-A      2.1633 eV  573.12 nm  f=0.1263  <S**2>=0.000
     309 -> 313        0.64777
     311 -> 315        0.25636

 Excited State   4:      Singlet-A      2.2310 eV  555.74 nm  f=0.0892  <S**2>=0.000
     310 -> 314        0.62834
     312 -> 316       -0.31482

 Excited State   5:      Singlet-A      3.2087 eV  386.40 nm  f=0.0008  <S**2>=0.000
     306 -> 313       -0.33746
     308 -> 313        0.59898

 The electronic state is 1-A.
 Alpha  occ. eigenvalues --  -46.95464 -46.94748 -19.31949 -19.31588 -19.25835
 Alpha  occ. eigenvalues --  -19.25079 -19.24416 -19.23536 -19.23308 -19.23233
 Alpha  occ. eigenvalues --  -14.47196 -14.46668 -14.46652 -14.46258 -14.44446
 Alpha  occ. eigenvalues --  -14.44319 -14.43943 -14.43170 -10.44734 -10.43294
 Alpha  occ. eigenvalues --  -10.40623 -10.38866 -10.38814 -10.38435 -10.36482
 Alpha  occ. eigenvalues --  -10.35739 -10.35680 -10.35498 -10.35335 -10.35233
 Alpha  occ. eigenvalues --  -10.34971 -10.34747 -10.34500 -10.34475 -10.34368
 Alpha  occ. eigenvalues --  -10.34180 -10.34125 -10.34053 -10.33776 -10.33491
 Alpha  occ. eigenvalues --  -10.33197 -10.33163 -10.33071 -10.33028 -10.33028
 Alpha  occ. eigenvalues --  -10.32657 -10.32593 -10.32505 -10.32454 -10.32435
 Alpha  occ. eigenvalues --  -10.32417 -10.32348 -10.32190 -10.32163 -10.32091
 Alpha  occ. eigenvalues --  -10.31807 -10.31750 -10.31524 -10.31511 -10.31438
 Alpha  occ. eigenvalues --  -10.31425 -10.31368 -10.31301 -10.31277 -10.31264
 Alpha  occ. eigenvalues --  -10.31186 -10.31020 -10.31004 -10.30929 -10.30778
 Alpha  occ. eigenvalues --  -10.30559 -10.30423 -10.30339 -10.30212 -10.30061
 Alpha  occ. eigenvalues --  -10.30003 -10.29847 -10.29832 -10.29516 -10.29422
 Alpha  occ. eigenvalues --  -10.29371 -10.29350 -10.29247 -10.29214 -10.28813
 Alpha  occ. eigenvalues --  -10.28552  -3.21370  -3.20822  -1.94931  -1.94509
 Alpha  occ. eigenvalues --   -1.94395  -1.94320  -1.93933  -1.93821  -1.19575
 Alpha  occ. eigenvalues --   -1.18544  -1.12294  -1.11356  -1.11234  -1.10630
 Alpha  occ. eigenvalues --   -1.10200  -1.10185  -1.06980  -1.06541  -1.05937
 Alpha  occ. eigenvalues --   -1.05341  -1.04739  -1.04645  -1.03922  -1.03598
 Alpha  occ. eigenvalues --   -0.96047  -0.94649  -0.91237  -0.91004  -0.90909
 Alpha  occ. eigenvalues --   -0.90631  -0.90616  -0.89931  -0.89708  -0.89298
 Alpha  occ. eigenvalues --   -0.89146  -0.88339  -0.88089  -0.87779  -0.87017
 Alpha  occ. eigenvalues --   -0.86205  -0.86007  -0.85567  -0.85287  -0.84701
 Alpha  occ. eigenvalues --   -0.84629  -0.83843  -0.83391  -0.83176  -0.82853
 Alpha  occ. eigenvalues --   -0.82206  -0.80568  -0.80392  -0.79969  -0.79548
 Alpha  occ. eigenvalues --   -0.78971  -0.78887  -0.78155  -0.78057  -0.76928
 Alpha  occ. eigenvalues --   -0.76662  -0.74476  -0.74469  -0.74114  -0.72960
 Alpha  occ. eigenvalues --   -0.72078  -0.71074  -0.71024  -0.70787  -0.70344
 Alpha  occ. eigenvalues --   -0.69849  -0.69164  -0.68689  -0.68479  -0.67344
 Alpha  occ. eigenvalues --   -0.67274  -0.67205  -0.66953  -0.66911  -0.66372
 Alpha  occ. eigenvalues --   -0.66360  -0.65803  -0.64607  -0.62263  -0.62221
 Alpha  occ. eigenvalues --   -0.61763  -0.61706  -0.61331  -0.60901  -0.60730
 Alpha  occ. eigenvalues --   -0.60513  -0.60375  -0.60355  -0.60027  -0.59329
 Alpha  occ. eigenvalues --   -0.58743  -0.58576  -0.58261  -0.57772  -0.57421
 Alpha  occ. eigenvalues --   -0.57091  -0.57066  -0.56867  -0.56466  -0.56213
 Alpha  occ. eigenvalues --   -0.55716  -0.55698  -0.55456  -0.55440  -0.55126
 Alpha  occ. eigenvalues --   -0.55023  -0.54551  -0.54456  -0.54367  -0.53809
 Alpha  occ. eigenvalues --   -0.53772  -0.53714  -0.53557  -0.53458  -0.53339
 Alpha  occ. eigenvalues --   -0.53193  -0.53074  -0.53016  -0.52812  -0.52787
 Alpha  occ. eigenvalues --   -0.52320  -0.52194  -0.51574  -0.51573  -0.51430
 Alpha  occ. eigenvalues --   -0.51352  -0.51079  -0.51045  -0.50738  -0.50696
 Alpha  occ. eigenvalues --   -0.50584  -0.50580  -0.50415  -0.50271  -0.50090
 Alpha  occ. eigenvalues --   -0.50064  -0.49878  -0.49545  -0.49195  -0.49031
 Alpha  occ. eigenvalues --   -0.48938  -0.48696  -0.48656  -0.48438  -0.48412
 Alpha  occ. eigenvalues --   -0.48377  -0.48004  -0.47968  -0.47901  -0.47671
 Alpha  occ. eigenvalues --   -0.47610  -0.47556  -0.47333  -0.47139  -0.46819
 Alpha  occ. eigenvalues --   -0.46584  -0.46518  -0.46515  -0.46474  -0.46331
 Alpha  occ. eigenvalues --   -0.46085  -0.45959  -0.45729  -0.45691  -0.45566
 Alpha  occ. eigenvalues --   -0.45507  -0.45163  -0.44966  -0.44829  -0.44745
 Alpha  occ. eigenvalues --   -0.44610  -0.44325  -0.44229  -0.44186  -0.43833
 Alpha  occ. eigenvalues --   -0.43738  -0.43734  -0.43644  -0.43300  -0.43074
 Alpha  occ. eigenvalues --   -0.43045  -0.42933  -0.42694  -0.42466  -0.42347
 Alpha  occ. eigenvalues --   -0.42103  -0.41437  -0.41426  -0.41095  -0.41038
 Alpha  occ. eigenvalues --   -0.40657  -0.40216  -0.39794  -0.39757  -0.39702
 Alpha  occ. eigenvalues --   -0.39499  -0.39468  -0.39444  -0.38990  -0.38512
 Alpha  occ. eigenvalues --   -0.38046  -0.37888  -0.37099  -0.36716  -0.36444
 Alpha  occ. eigenvalues --   -0.35974  -0.35294  -0.35171  -0.33991  -0.33719
 Alpha  occ. eigenvalues --   -0.33522  -0.32814  -0.32619  -0.32585  -0.32393
 Alpha  occ. eigenvalues --   -0.32307  -0.31947  -0.31132  -0.26220  -0.26107
 Alpha  occ. eigenvalues --   -0.23473  -0.22588
 Alpha virt. eigenvalues --   -0.07493  -0.06776   0.00054   0.00584   0.01965
 Alpha virt. eigenvalues --    0.02220   0.04126   0.04276   0.04468   0.04872
 Alpha virt. eigenvalues --    0.05105   0.06989   0.07362   0.08003   0.08027

 Mulliken charges:
               1
     1  Mg   0.931589
     2  C   -0.001232
     3  C   -0.065660
     4  C   -0.091579
     5  C   -0.077548
     6  N   -0.307338
     7  C    0.004306
     8  C   -0.074452
     9  C   -0.126322
    10  C    0.080218
    11  C    0.020520
    12  C    0.007845
    13  C   -0.131003
    14  H    0.036912
    15  N   -0.514648
    16  C    0.148869
    17  C   -0.151827
    18  C   -0.055465
    19  C    0.178038
    20  C    0.087341
    21  C    0.034453
    22  O   -0.270976
    23  C    0.017054
    24  N   -0.324799
    25  C    0.043595
    26  C   -0.057478
    27  C   -0.088532
    28  C    0.106187
    29  C    0.017430
    30  C   -0.009869
    31  C   -0.055798
    32  N   -0.439655
    33  C    0.094624
    34  C   -0.179710
    35  C    0.011865
    36  C    0.117676
    37  C    0.048052
    38  C    0.070943
    39  O   -0.201946
    40  C   -0.081033
    41  C    0.257045
    42  O   -0.227892
    43  O   -0.352604
    44  C    0.138928
    45  H   -0.003802
    46  H   -0.037245
    47  H   -0.005240
    48  H    0.022135
    49  H    0.037605
    50  H    0.038149
    51  H    0.026417
    52  H    0.039084
    53  H    0.025031
    54  H    0.032727
    55  H    0.078018
    56  H    0.066389
    57  H    0.053681
    58  H    0.029922
    59  H    0.063953
    60  H    0.061127
    61  H    0.077277
    62  H    0.047622
    63  H    0.049750
    64  H    0.040754
    65  H    0.036139
    66  H    0.051914
    67  H    0.027126
    68  H    0.036484
    69  H    0.027984
    70  H    0.034952
    71  H    0.031357
    72  H    0.047273
    73  H    0.038307
    74  H    0.058154
    75  H    0.037783
    76  H    0.089612
    77  H    0.063396
    78  H    0.059041
    79  H    0.050999
    80  Mg   0.975682
    81  C   -0.099546
    82  C   -0.080759
    83  C   -0.088150
    84  C   -0.101407
    85  N   -0.370315
    86  C   -0.011495
    87  C   -0.072309
    88  C   -0.107175
    89  C    0.104640
    90  C    0.024243
    91  C    0.006647
    92  C   -0.108793
    93  H    0.027699
    94  N   -0.454584
    95  C    0.113991
    96  C   -0.149738
    97  C   -0.076188
    98  C    0.118164
    99  C    0.069623
   100  C    0.031577
   101  O   -0.238329
   102  C    0.011717
   103  N   -0.400747
   104  C    0.093377
   105  C   -0.058268
   106  C   -0.103701
   107  C    0.063859
   108  C    0.035216
   109  C   -0.016668
   110  C   -0.026202
   111  N   -0.388538
   112  C    0.149192
   113  C   -0.228880
   114  C    0.015732
   115  C    0.154095
   116  C    0.098513
   117  C    0.146856
   118  O   -0.221235
   119  C   -0.037592
   120  C    0.292977
   121  O   -0.256314
   122  O   -0.367219
   123  C    0.121117
   124  H   -0.014016
   125  H    0.016147
   126  H   -0.003780
   127  H    0.041624
   128  H    0.034189
   129  H    0.028892
   130  H    0.041586
   131  H    0.042997
   132  H    0.032001
   133  H    0.037968
   134  H    0.064317
   135  H    0.054496
   136  H    0.046755
   137  H    0.028255
   138  H    0.042603
   139  H    0.049448
   140  H    0.052059
   141  H    0.067763
   142  H    0.030991
   143  H    0.029186
   144  H    0.038580
   145  H    0.045337
   146  H    0.035513
   147  H    0.029346
   148  H    0.034961
   149  H    0.028945
   150  H    0.041850
   151  H    0.043807
   152  H    0.023030
   153  H    0.059018
   154  H    0.067075
   155  H    0.058195
   156  H    0.063411
   157  H    0.072068
   158  H    0.044618
 Sum of Mulliken charges =  -0.00000

 Dipole moment (field-independent basis, Debye):
    X=             -1.6314    Y=              0.2482    Z=              1.5161  Tot=              2.2409
 Quadrupole moment (field-independent basis, Debye-Ang):
   XX=           -444.8496   YY=           -555.9764   ZZ=           -488.9121
   XY=           -163.7978   XZ=            -45.6509   YZ=            -42.6254

 Normal termination of Gaussian 16 at Sun Sep 19 19:53:08 2021.
