 Gaussian 16, Revision A.03,
 Gaussian 16:  ES64L-G16RevA.03 25-Dec-2016

 --------------------------------
 #p wB97XD/Def2SVP td=(nstates=5)
 --------------------------------

 --------------------------------
 TDDFT excited states in gaussian
 --------------------------------
 Symbolic Z-matrix:
 Charge =  0 Multiplicity = 1

                         Standard orientation:
 ---------------------------------------------------------------------
 Center     Atomic      Atomic             Coordinates (Angstroms)
 Number     Number       Type             X           Y           Z
 ---------------------------------------------------------------------
      1         12           0      -15.543055    0.662690    0.342695
      2          6           0      -15.385392   -2.373408   -1.331111
      3          6           0      -13.166125    1.924726   -1.689937
      4          6           0      -15.658943    3.480270    2.146218
      5          6           0      -17.887210   -0.788205    2.501819
      6          7           0      -14.455055   -0.200882   -1.347270
      7          6           0      -14.595700   -1.375925   -1.912729
      8          6           0      -13.615462   -1.423471   -3.173817
      9          6           0      -12.568839   -0.454025   -2.666657
     10          6           0      -13.451414    0.549095   -1.857869
     11          6           0      -11.484218   -1.207192   -1.866628
     12          6           0      -14.418184   -1.153571   -4.518454
     13          6           0      -13.712186   -1.634147   -5.790061
     14          1           0      -12.264526   -2.084664   -5.697857
     15          7           0      -14.694952    2.488096    0.137358
     16          6           0      -13.770502    2.834985   -0.845086
     17          6           0      -13.574506    4.314140   -0.775491
     18          6           0      -14.267038    4.792368    0.417077
     19          6           0      -14.831396    3.529719    0.963561
     20          6           0      -12.730370    5.075386   -1.770061
     21          6           0      -14.457831    6.264773    1.008593
     22          8           0      -15.145526    6.520605    2.002832
     23          6           0      -13.755363    7.384684    0.269710
     24          7           0      -16.502346    1.213007    2.091628
     25          6           0      -16.390700    2.413467    2.653922
     26          6           0      -17.149684    2.517734    4.012739
     27          6           0      -18.011247    1.249114    3.936272
     28          6           0      -17.496758    0.511009    2.740535
     29          6           0      -16.232026    2.598834    5.264545
     30          6           0      -19.593816    1.399268    4.044708
     31          6           0      -20.384533    1.281299    2.783325
     32          7           0      -16.323865   -1.240563    0.712926
     33          6           0      -17.293601   -1.666283    1.556896
     34          6           0      -17.588222   -3.047957    1.418652
     35          6           0      -16.841810   -3.396816    0.249349
     36          6           0      -16.139765   -2.262300   -0.088187
     37          6           0      -18.437095   -4.022110    2.193672
     38          6           0      -16.508451   -4.415473   -0.701237
     39          8           0      -16.851689   -5.573536   -0.803039
     40          6           0      -15.677661   -3.783390   -1.863186
     41          6           0      -14.478669   -4.591359   -2.105519
     42          8           0      -13.618835   -4.759204   -1.254114
     43          8           0      -14.501445   -5.297316   -3.335513
     44          6           0      -13.376262   -6.214816   -3.574200
     45          1           0      -12.349831    2.273622   -2.324099
     46          1           0      -15.641081    4.397664    2.736974
     47          1           0      -18.582568   -1.219988    3.224181
     48          1           0      -13.231861   -2.434541   -3.303721
     49          1           0      -12.102415    0.151155   -3.443625
     50          1           0      -10.607977   -1.090330   -2.505205
     51          1           0      -11.715846   -2.263635   -1.724810
     52          1           0      -11.316981   -0.618513   -0.964906
     53          1           0      -14.599349   -0.085057   -4.638273
     54          1           0      -15.324598   -1.752446   -4.426756
     55          1           0      -13.787094   -0.821282   -6.511721
     56          1           0      -14.309677   -2.453272   -6.189485
     57          1           0      -12.786538    4.629855   -2.763918
     58          1           0      -11.675908    5.206634   -1.529371
     59          1           0      -13.157944    6.070611   -1.890831
     60          1           0      -12.726196    7.033499    0.198832
     61          1           0      -13.722184    8.332375    0.806406
     62          1           0      -14.249192    7.563556   -0.685543
     63          1           0      -17.776937    3.408254    4.050041
     64          1           0      -17.642581    0.603677    4.732678
     65          1           0      -16.695301    1.936930    5.996631
     66          1           0      -16.068746    3.585832    5.694518
     67          1           0      -15.234535    2.276694    4.965528
     68          1           0      -19.814530    2.318031    4.588209
     69          1           0      -19.986445    0.568205    4.630165
     70          1           0      -20.964366    0.360337    2.848772
     71          1           0      -19.816263    1.069467    1.876783
     72          1           0      -21.101637    2.086083    2.621134
     73          1           0      -18.858942   -3.579405    3.096669
     74          1           0      -17.863444   -4.933815    2.362976
     75          1           0      -19.365501   -4.342147    1.720170
     76          1           0      -16.250459   -3.731560   -2.788722
     77          1           0      -13.314304   -6.614978   -4.585894
     78          1           0      -13.556573   -7.015138   -2.855999
     79          1           0      -12.488312   -5.668250   -3.258717
     80         12           0       15.700272    0.375833   -0.831008
     81          6           0       15.514666   -2.894114    0.565465
     82          6           0       12.494617    0.036038   -1.989051
     83          6           0       15.528271    3.848435   -1.229143
     84          6           0       18.730488    0.861607    0.880797
     85          7           0       14.091987   -1.271459   -0.441486
     86          6           0       14.304437   -2.548816   -0.085156
     87          6           0       13.184114   -3.415524   -0.630369
     88          6           0       12.150133   -2.467030   -1.407658
     89          6           0       13.081542   -1.151519   -1.385753
     90          6           0       11.915013   -3.041417   -2.822782
     91          6           0       12.513219   -4.199097    0.486322
     92          6           0       12.332583   -3.471100    1.839534
     93          1           0       10.890778   -3.028362    2.210293
     94          7           0       14.223683    1.777698   -1.610951
     95          6           0       12.967454    1.373504   -2.007442
     96          6           0       12.363730    2.520274   -2.610278
     97          6           0       13.156568    3.700212   -2.340479
     98          6           0       14.401175    3.159867   -1.737355
     99          6           0       10.968078    2.496067   -3.189307
    100          6           0       12.744369    5.164942   -2.495564
    101          8           0       11.617729    5.444962   -2.857202
    102          6           0       13.619429    6.264700   -2.219547
    103          7           0       16.891784    2.126114   -0.172391
    104          6           0       16.679860    3.364756   -0.591982
    105          6           0       17.707422    4.359810   -0.077683
    106          6           0       18.521363    3.414606    0.907050
    107          6           0       18.093728    2.052105    0.495455
    108          6           0       18.617802    5.009033   -1.230933
    109          6           0       18.235843    3.812902    2.427921
    110          6           0       19.318441    4.421944    3.273239
    111          7           0       16.974778   -0.775399    0.212885
    112          6           0       18.243903   -0.473950    0.747622
    113          6           0       18.877685   -1.686553    1.298032
    114          6           0       17.837329   -2.610771    1.204026
    115          6           0       16.639120   -2.029288    0.660002
    116          6           0       20.358932   -1.920739    1.755227
    117          6           0       17.512161   -4.005028    1.521344
    118          8           0       18.166195   -4.938586    2.014916
    119          6           0       16.023199   -4.260669    1.115328
    120          6           0       15.448624   -4.572831    2.453928
    121          8           0       15.475391   -3.841608    3.410479
    122          8           0       15.013368   -5.829220    2.481437
    123          6           0       14.312489   -6.340902    3.710616
    124          1           0       11.617265   -0.158968   -2.609038
    125          1           0       15.640465    4.927726   -1.350021
    126          1           0       19.607035    1.145764    1.467685
    127          1           0       13.786217   -4.071147   -1.259484
    128          1           0       11.212677   -2.337384   -0.866199
    129          1           0       10.852807   -3.262045   -2.926431
    130          1           0       12.437433   -3.976949   -3.024333
    131          1           0       12.182744   -2.243185   -3.514538
    132          1           0       13.084700   -5.104817    0.689441
    133          1           0       11.498208   -4.477599    0.201477
    134          1           0       12.803685   -2.495360    1.957442
    135          1           0       12.716307   -4.175375    2.577765
    136          1           0       10.488428    1.526671   -3.051607
    137          1           0       11.035834    2.832795   -4.224344
    138          1           0       10.407883    3.300412   -2.713823
    139          1           0       13.936697    6.361218   -1.180996
    140          1           0       13.119410    7.196651   -2.482577
    141          1           0       14.490953    6.035659   -2.833762
    142          1           0       17.290408    5.140518    0.557971
    143          1           0       19.541225    3.754578    0.726149
    144          1           0       18.276203    4.657060   -2.204781
    145          1           0       19.633081    4.640299   -1.083600
    146          1           0       18.695816    6.097308   -1.223701
    147          1           0       18.021120    2.931860    3.032812
    148          1           0       17.386146    4.490299    2.501203
    149          1           0       19.791666    3.718825    3.958693
    150          1           0       18.723772    5.149213    3.826984
    151          1           0       20.010209    5.070525    2.735491
    152          1           0       20.483032   -1.444541    2.727434
    153          1           0       21.001917   -1.525806    0.968482
    154          1           0       20.502225   -2.988785    1.918073
    155          1           0       16.046693   -5.075739    0.391064
    156          1           0       15.003974   -6.703314    4.471619
    157          1           0       13.632791   -7.157869    3.464988
    158          1           0       13.729791   -5.492188    4.068686
 ---------------------------------------------------------------------

 SCF Done:  E(RwB97XD) =  -4070.58017797     A.U. after   20 cycles

 Excitation energies and oscillator strengths:

 Excited State   1:      Singlet-A      1.6283 eV  761.42 nm  f=0.3464  <S**2>=0.000
     309 -> 315       -0.20683
     312 -> 314        0.67836
     309 <- 315       -0.12521
 This state for optimization and/or second-order correction.
 Total Energy, E(TD-HF/TD-DFT) =  -4070.52033778
 Copying the excited state density for this state as the 1-particle RhoCI density.

 Excited State   2:      Singlet-A      1.6907 eV  733.33 nm  f=0.3947  <S**2>=0.000
     310 -> 316        0.18163
     311 -> 313        0.68405
     310 <- 316        0.11469

 Excited State   3:      Singlet-A      2.1414 eV  578.98 nm  f=0.0701  <S**2>=0.000
     309 -> 314        0.61696
     312 -> 315        0.33154

 Excited State   4:      Singlet-A      2.1646 eV  572.79 nm  f=0.1460  <S**2>=0.000
     310 -> 313        0.65217
     311 -> 316       -0.26034

 Excited State   5:      Singlet-A      3.1869 eV  389.05 nm  f=0.0156  <S**2>=0.000
     308 -> 314        0.65664
     308 -> 318       -0.10725
     312 -> 315       -0.20263

 The electronic state is 1-A.
 Alpha  occ. eigenvalues --  -46.96574 -46.94104 -19.30309 -19.29133 -19.25556
 Alpha  occ. eigenvalues --  -19.24391 -19.23932 -19.23810 -19.23125 -19.22900
 Alpha  occ. eigenvalues --  -14.47040 -14.46595 -14.46591 -14.46015 -14.44775
 Alpha  occ. eigenvalues --  -14.44735 -14.44182 -14.43178 -10.42708 -10.42586
 Alpha  occ. eigenvalues --  -10.41275 -10.39025 -10.38300 -10.38064 -10.36237
 Alpha  occ. eigenvalues --  -10.36139 -10.35425 -10.35398 -10.35239 -10.35123
 Alpha  occ. eigenvalues --  -10.35042 -10.35037 -10.34780 -10.34759 -10.34745
 Alpha  occ. eigenvalues --  -10.34633 -10.34560 -10.34436 -10.33994 -10.33939
 Alpha  occ. eigenvalues --  -10.33781 -10.33218 -10.33029 -10.32974 -10.32834
 Alpha  occ. eigenvalues --  -10.32735 -10.32603 -10.32461 -10.32402 -10.32255
 Alpha  occ. eigenvalues --  -10.32252 -10.32245 -10.32225 -10.32029 -10.32016
 Alpha  occ. eigenvalues --  -10.32005 -10.31923 -10.31752 -10.31633 -10.31577
 Alpha  occ. eigenvalues --  -10.31570 -10.31496 -10.31327 -10.31257 -10.31174
 Alpha  occ. eigenvalues --  -10.31062 -10.31018 -10.30969 -10.30888 -10.30765
 Alpha  occ. eigenvalues --  -10.30708 -10.30565 -10.30365 -10.30219 -10.30104
 Alpha  occ. eigenvalues --  -10.29851 -10.29838 -10.29622 -10.29583 -10.29572
 Alpha  occ. eigenvalues --  -10.29539 -10.29514 -10.29342 -10.29023 -10.28282
 Alpha  occ. eigenvalues --  -10.28156  -3.22368  -3.20270  -1.95912  -1.95515
 Alpha  occ. eigenvalues --   -1.95301  -1.93880  -1.93365  -1.93294  -1.19250
 Alpha  occ. eigenvalues --   -1.16621  -1.12748  -1.12464  -1.11762  -1.11062
 Alpha  occ. eigenvalues --   -1.09918  -1.08926  -1.07569  -1.06725  -1.06625
 Alpha  occ. eigenvalues --   -1.06161  -1.05701  -1.05220  -1.04456  -1.03688
 Alpha  occ. eigenvalues --   -0.94075  -0.93946  -0.91079  -0.90859  -0.90701
 Alpha  occ. eigenvalues --   -0.90432  -0.90200  -0.90191  -0.89255  -0.89050
 Alpha  occ. eigenvalues --   -0.89026  -0.88155  -0.88098  -0.87365  -0.86626
 Alpha  occ. eigenvalues --   -0.86198  -0.85945  -0.85502  -0.84810  -0.84684
 Alpha  occ. eigenvalues --   -0.84552  -0.84501  -0.83078  -0.82873  -0.82236
 Alpha  occ. eigenvalues --   -0.82025  -0.80572  -0.79864  -0.79316  -0.79132
 Alpha  occ. eigenvalues --   -0.78559  -0.78365  -0.78235  -0.77749  -0.76985
 Alpha  occ. eigenvalues --   -0.76943  -0.74876  -0.74790  -0.73744  -0.73142
 Alpha  occ. eigenvalues --   -0.71114  -0.70878  -0.70718  -0.70473  -0.70118
 Alpha  occ. eigenvalues --   -0.69878  -0.68718  -0.68649  -0.67519  -0.67183
 Alpha  occ. eigenvalues --   -0.67009  -0.66799  -0.66567  -0.66168  -0.66055
 Alpha  occ. eigenvalues --   -0.65948  -0.64438  -0.63236  -0.62675  -0.62275
 Alpha  occ. eigenvalues --   -0.61533  -0.61282  -0.61106  -0.61033  -0.60659
 Alpha  occ. eigenvalues --   -0.59995  -0.59939  -0.59843  -0.59559  -0.59280
 Alpha  occ. eigenvalues --   -0.58243  -0.57847  -0.57821  -0.57640  -0.57343
 Alpha  occ. eigenvalues --   -0.56995  -0.56894  -0.56667  -0.56502  -0.55872
 Alpha  occ. eigenvalues --   -0.55841  -0.55560  -0.55417  -0.55314  -0.55043
 Alpha  occ. eigenvalues --   -0.54935  -0.54609  -0.54569  -0.54484  -0.54226
 Alpha  occ. eigenvalues --   -0.54069  -0.53992  -0.53720  -0.53704  -0.53478
 Alpha  occ. eigenvalues --   -0.53119  -0.52700  -0.52678  -0.52625  -0.52213
 Alpha  occ. eigenvalues --   -0.52097  -0.51800  -0.51761  -0.51642  -0.51410
 Alpha  occ. eigenvalues --   -0.51399  -0.51191  -0.51096  -0.50968  -0.50956
 Alpha  occ. eigenvalues --   -0.50775  -0.50507  -0.50468  -0.50395  -0.50205
 Alpha  occ. eigenvalues --   -0.49739  -0.49733  -0.49296  -0.49261  -0.48935
 Alpha  occ. eigenvalues --   -0.48865  -0.48779  -0.48562  -0.48336  -0.48229
 Alpha  occ. eigenvalues --   -0.48159  -0.47923  -0.47764  -0.47687  -0.47573
 Alpha  occ. eigenvalues --   -0.47433  -0.47261  -0.47115  -0.47056  -0.46841
 Alpha  occ. eigenvalues --   -0.46822  -0.46565  -0.46290  -0.46245  -0.45945
 Alpha  occ. eigenvalues --   -0.45917  -0.45864  -0.45626  -0.45527  -0.45420
 Alpha  occ. eigenvalues --   -0.45252  -0.45152  -0.45140  -0.44916  -0.44880
 Alpha  occ. eigenvalues --   -0.44416  -0.44367  -0.44011  -0.43995  -0.43728
 Alpha  occ. eigenvalues --   -0.43486  -0.43377  -0.43288  -0.43276  -0.42946
 Alpha  occ. eigenvalues --   -0.42845  -0.42799  -0.42407  -0.42077  -0.42020
 Alpha  occ. eigenvalues --   -0.41987  -0.41862  -0.41749  -0.41088  -0.40570
 Alpha  occ. eigenvalues --   -0.40183  -0.39961  -0.39925  -0.39435  -0.39408
 Alpha  occ. eigenvalues --   -0.39163  -0.38866  -0.38626  -0.38359  -0.38112
 Alpha  occ. eigenvalues --   -0.37704  -0.37609  -0.36425  -0.36211  -0.36110
 Alpha  occ. eigenvalues --   -0.35877  -0.35639  -0.35424  -0.34184  -0.33618
 Alpha  occ. eigenvalues --   -0.33373  -0.32780  -0.32703  -0.32641  -0.32407
 Alpha  occ. eigenvalues --   -0.32143  -0.31679  -0.31148  -0.26226  -0.25808
 Alpha  occ. eigenvalues --   -0.23200  -0.23145
 Alpha virt. eigenvalues --   -0.07158  -0.07147  -0.00688   0.00678   0.02019
 Alpha virt. eigenvalues --    0.02321   0.04115   0.04549   0.04590   0.06620
 Alpha virt. eigenvalues --    0.06989   0.07154   0.07577   0.08055   0.08731

 Mulliken charges:
               1
     1  Mg   0.985983
     2  C   -0.034003
     3  C   -0.089404
     4  C   -0.081458
     5  C   -0.112923
     6  N   -0.312344
     7  C   -0.022178
     8  C   -0.084727
     9  C   -0.106280
    10  C    0.035635
    11  C    0.056870
    12  C    0.017365
    13  C   -0.109394
    14  H    0.037435
    15  N   -0.477300
    16  C    0.190113
    17  C   -0.158436
    18  C   -0.108846
    19  C    0.127322
    20  C    0.049044
    21  C    0.101749
    22  O   -0.227648
    23  C   -0.029656
    24  N   -0.379076
    25  C    0.081056
    26  C   -0.097548
    27  C   -0.032332
    28  C    0.052780
    29  C    0.021158
    30  C   -0.006373
    31  C   -0.048387
    32  N   -0.374902
    33  C    0.116051
    34  C   -0.174806
    35  C   -0.023308
    36  C    0.102329
    37  C    0.084922
    38  C    0.096518
    39  O   -0.204645
    40  C   -0.019832
    41  C    0.245672
    42  O   -0.251756
    43  O   -0.402729
    44  C    0.147341
    45  H    0.004739
    46  H    0.017885
    47  H   -0.007250
    48  H    0.021231
    49  H    0.004297
    50  H    0.035541
    51  H    0.070910
    52  H    0.037055
    53  H    0.035406
    54  H    0.041287
    55  H    0.045576
    56  H    0.053068
    57  H    0.040755
    58  H    0.065944
    59  H    0.031052
    60  H    0.059332
    61  H    0.056279
    62  H    0.081364
    63  H    0.037161
    64  H    0.030699
    65  H    0.038430
    66  H    0.045398
    67  H    0.041261
    68  H    0.033869
    69  H    0.028031
    70  H    0.018024
    71  H    0.047795
    72  H    0.040822
    73  H    0.015366
    74  H    0.065988
    75  H    0.046054
    76  H    0.068288
    77  H    0.063877
    78  H    0.057297
    79  H    0.048120
    80  Mg   0.942225
    81  C   -0.038010
    82  C   -0.073466
    83  C   -0.078467
    84  C   -0.055655
    85  N   -0.320103
    86  C   -0.052877
    87  C   -0.003206
    88  C   -0.147379
    89  C    0.056710
    90  C    0.022586
    91  C   -0.011374
    92  C   -0.138198
    93  H    0.013829
    94  N   -0.462337
    95  C    0.168139
    96  C   -0.175022
    97  C   -0.086816
    98  C    0.201869
    99  C    0.084867
   100  C    0.035870
   101  O   -0.236184
   102  C    0.005317
   103  N   -0.322905
   104  C    0.047368
   105  C   -0.151679
   106  C   -0.062511
   107  C    0.046787
   108  C    0.017256
   109  C   -0.028943
   110  C   -0.050493
   111  N   -0.501321
   112  C    0.150881
   113  C   -0.184720
   114  C   -0.035058
   115  C    0.186953
   116  C    0.087891
   117  C    0.097804
   118  O   -0.230960
   119  C   -0.050422
   120  C    0.238071
   121  O   -0.235915
   122  O   -0.346750
   123  C    0.130746
   124  H    0.013582
   125  H   -0.019957
   126  H    0.003370
   127  H    0.035259
   128  H    0.061563
   129  H    0.033355
   130  H    0.044526
   131  H    0.040338
   132  H    0.041149
   133  H    0.041328
   134  H    0.087222
   135  H    0.047574
   136  H    0.029754
   137  H    0.048442
   138  H    0.061933
   139  H    0.066401
   140  H    0.056614
   141  H    0.054715
   142  H    0.040367
   143  H    0.018114
   144  H    0.043547
   145  H    0.031226
   146  H    0.046317
   147  H    0.037517
   148  H    0.032143
   149  H    0.053256
   150  H    0.028092
   151  H    0.026653
   152  H    0.054325
   153  H    0.056639
   154  H    0.063084
   155  H    0.067993
   156  H    0.072827
   157  H    0.059226
   158  H    0.067109
 Sum of Mulliken charges =  -0.00000

 Dipole moment (field-independent basis, Debye):
    X=              3.1489    Y=              5.7671    Z=             -3.9214  Tot=              7.6520
 Quadrupole moment (field-independent basis, Debye-Ang):
   XX=           -503.6632   YY=           -519.1190   ZZ=           -493.3833
   XY=            -16.2929   XZ=            -14.9185   YZ=              7.6423

 Normal termination of Gaussian 16 at Mon Sep 20 18:45:36 2021.
