 Gaussian 16, Revision A.03,
 Gaussian 16:  ES64L-G16RevA.03 25-Dec-2016

 --------------------------------
 #p wB97XD/Def2SVP td=(nstates=5)
 --------------------------------

 --------------------------------
 TDDFT excited states in gaussian
 --------------------------------
 Symbolic Z-matrix:
 Charge =  0 Multiplicity = 1

                         Standard orientation:
 ---------------------------------------------------------------------
 Center     Atomic      Atomic             Coordinates (Angstroms)
 Number     Number       Type             X           Y           Z
 ---------------------------------------------------------------------
      1         12           0      -32.840549   -0.178946   -0.817317
      2          6           0      -29.603119    1.253144   -0.436131
      3          6           0      -31.452053   -3.304784   -0.633034
      4          6           0      -36.010037   -1.492566   -0.127533
      5          6           0      -34.230851    3.022226   -0.407410
      6          7           0      -30.673214   -0.869243   -0.290036
      7          6           0      -29.538938   -0.162072   -0.420703
      8          6           0      -28.383841   -1.109829   -0.687298
      9          6           0      -28.955099   -2.608693   -0.685094
     10          6           0      -30.512709   -2.193610   -0.673854
     11          6           0      -28.506834   -3.314030   -1.984838
     12          6           0      -27.277976   -0.917656    0.337992
     13          6           0      -27.717122   -0.631684    1.793726
     14          1           0      -27.533424   -1.782704    2.820219
     15          7           0      -33.660623   -2.176139   -0.513100
     16          6           0      -32.860923   -3.297295   -0.466429
     17          6           0      -33.756413   -4.410727   -0.429819
     18          6           0      -35.107677   -3.955191   -0.184447
     19          6           0      -35.011491   -2.478746   -0.309483
     20          6           0      -33.274354   -5.842119   -0.380382
     21          6           0      -36.314395   -4.786305    0.254277
     22          8           0      -36.187650   -5.976236    0.469935
     23          6           0      -37.622467   -4.236620    0.449664
     24          7           0      -34.820143    0.632300   -0.234181
     25          6           0      -35.926592   -0.093518   -0.169688
     26          6           0      -37.168032    0.725974    0.143014
     27          6           0      -36.491832    2.138942    0.411125
     28          6           0      -35.128146    1.972125   -0.155642
     29          6           0      -38.245622    0.754049   -1.047901
     30          6           0      -36.568733    2.510224    1.963364
     31          6           0      -37.437414    3.641781    2.435048
     32          7           0      -32.142652    1.704246   -0.740222
     33          6           0      -32.836519    2.930800   -0.700142
     34          6           0      -31.898211    4.063010   -0.812910
     35          6           0      -30.667050    3.412317   -0.734168
     36          6           0      -30.811553    1.990975   -0.564778
     37          6           0      -32.189982    5.580943   -1.075040
     38          6           0      -29.226495    3.685850   -0.715268
     39          8           0      -28.558729    4.729113   -0.807977
     40          6           0      -28.476133    2.324190   -0.541922
     41          6           0      -27.813095    2.568766    0.769563
     42          8           0      -28.380841    2.838454    1.796854
     43          8           0      -26.491793    2.574022    0.618397
     44          6           0      -25.610777    2.717758    1.829629
     45          1           0      -31.014383   -4.275297   -0.875327
     46          1           0      -37.057518   -1.761397    0.022743
     47          1           0      -34.753974    3.951167   -0.168813
     48          1           0      -28.084789   -0.721246   -1.660810
     49          1           0      -28.654774   -3.169799    0.200216
     50          1           0      -27.914342   -4.186331   -1.709621
     51          1           0      -27.869928   -2.709844   -2.631427
     52          1           0      -29.423018   -3.644736   -2.473328
     53          1           0      -26.638977   -0.088931    0.032918
     54          1           0      -26.671747   -1.820262    0.420073
     55          1           0      -28.777142   -0.458734    1.979083
     56          1           0      -27.128388    0.237581    2.086989
     57          1           0      -32.186577   -5.902668   -0.337605
     58          1           0      -33.731955   -6.372042   -1.216480
     59          1           0      -33.744022   -6.310709    0.483741
     60          1           0      -37.707929   -3.506500    1.254763
     61          1           0      -38.319720   -5.041622    0.681064
     62          1           0      -37.815227   -3.736919   -0.500292
     63          1           0      -37.651218    0.459438    1.082669
     64          1           0      -37.211608    2.807167   -0.061972
     65          1           0      -37.908792    0.106541   -1.857984
     66          1           0      -38.274203    1.774504   -1.430412
     67          1           0      -39.273196    0.514991   -0.769648
     68          1           0      -35.606928    2.867289    2.331700
     69          1           0      -36.859982    1.645285    2.557733
     70          1           0      -36.889903    4.560277    2.646616
     71          1           0      -37.813991    3.203378    3.359807
     72          1           0      -38.358554    3.779935    1.868665
     73          1           0      -32.558655    6.011261   -0.144309
     74          1           0      -32.889390    5.631926   -1.909664
     75          1           0      -31.244601    6.079486   -1.288308
     76          1           0      -27.822888    2.230342   -1.410204
     77          1           0      -25.449681    3.757777    2.114285
     78          1           0      -24.632650    2.265439    1.661009
     79          1           0      -26.126586    2.162144    2.612765
     80         12           0       32.617025    0.461937   -0.326756
     81          6           0       30.453763   -1.987509    0.885706
     82          6           0       30.866368    2.834173    1.459937
     83          6           0       34.827387    2.583479   -1.502195
     84          6           0       34.931972   -2.199741   -1.242743
     85          7           0       30.748415    0.373304    1.013791
     86          6           0       30.045521   -0.734434    1.396519
     87          6           0       28.885985   -0.360132    2.249816
     88          6           0       29.051772    1.196866    2.466645
     89          6           0       30.315685    1.547964    1.588538
     90          6           0       27.765391    2.025712    2.223571
     91          6           0       28.850102   -1.126748    3.594229
     92          6           0       27.484369   -1.776048    3.811113
     93          1           0       26.751830   -1.478735    5.154243
     94          7           0       32.797839    2.455515   -0.078986
     95          6           0       31.963243    3.295452    0.656867
     96          6           0       32.465472    4.643167    0.422633
     97          6           0       33.623540    4.605432   -0.484879
     98          6           0       33.774891    3.151033   -0.805954
     99          6           0       31.978103    5.795883    1.147587
    100          6           0       34.441985    5.796340   -0.767953
    101          8           0       34.200552    6.907247   -0.344250
    102          6           0       35.721834    5.762513   -1.528023
    103          7           0       34.539583    0.207947   -1.165340
    104          6           0       35.116021    1.261443   -1.828606
    105          6           0       36.416431    0.824922   -2.469702
    106          6           0       36.637843   -0.545450   -1.947899
    107          6           0       35.355630   -0.873823   -1.361658
    108          6           0       36.481361    0.996684   -4.042630
    109          6           0       37.689214   -0.601739   -0.786928
    110          6           0       38.455337   -1.836164   -0.656361
    111          7           0       32.713502   -1.682717   -0.251166
    112          6           0       33.655930   -2.613459   -0.707729
    113          6           0       33.071042   -3.917417   -0.686011
    114          6           0       31.851102   -3.748275   -0.041909
    115          6           0       31.683391   -2.347443    0.249118
    116          6           0       33.740932   -5.135058   -1.206965
    117          6           0       30.728906   -4.429053    0.469768
    118          8           0       30.461759   -5.609965    0.459285
    119          6           0       29.774821   -3.348484    1.025734
    120          6           0       28.470725   -3.468053    0.354543
    121          8           0       28.161777   -2.939624   -0.726806
    122          8           0       27.691615   -4.384310    1.023074
    123          6           0       26.314125   -4.610976    0.616982
    124          1           0       30.229427    3.537366    1.999548
    125          1           0       35.662368    3.165130   -1.900758
    126          1           0       35.646074   -2.963870   -1.556852
    127          1           0       28.033078   -0.400165    1.571700
    128          1           0       29.298814    1.469804    3.492136
    129          1           0       26.985251    1.266542    2.291462
    130          1           0       27.738945    2.633514    1.319088
    131          1           0       27.619507    2.730391    3.041894
    132          1           0       28.948619   -0.488685    4.472256
    133          1           0       29.657094   -1.857758    3.547766
    134          1           0       27.797443   -2.817450    3.884242
    135          1           0       26.893378   -1.591230    2.915290
    136          1           0       31.166492    5.466351    1.796627
    137          1           0       31.517790    6.579883    0.545544
    138          1           0       32.775689    6.187717    1.779774
    139          1           0       35.400278    5.160513   -2.377924
    140          1           0       36.467578    5.237264   -0.930715
    141          1           0       36.026626    6.763189   -1.835138
    142          1           0       37.135607    1.539689   -2.071405
    143          1           0       36.801374   -1.345900   -2.669525
    144          1           0       35.632491    1.580941   -4.398316
    145          1           0       36.650878    0.074507   -4.599563
    146          1           0       37.276122    1.667467   -4.367797
    147          1           0       37.191290   -0.379340    0.156927
    148          1           0       38.432395    0.186885   -0.903579
    149          1           0       39.330206   -1.772571   -1.304312
    150          1           0       37.854649   -2.720978   -0.869603
    151          1           0       38.949821   -1.859085    0.315288
    152          1           0       34.295621   -4.919477   -2.120071
    153          1           0       33.067799   -5.978065   -1.363771
    154          1           0       34.508491   -5.341477   -0.461020
    155          1           0       29.485042   -3.530667    2.060681
    156          1           0       26.116241   -5.150375   -0.309353
    157          1           0       25.777237   -3.662623    0.608685
    158          1           0       25.922665   -5.279016    1.383277
 ---------------------------------------------------------------------

 SCF Done:  E(RwB97XD) =  -4070.54157901     A.U. after   20 cycles

 Excitation energies and oscillator strengths:

 Excited State   1:      Singlet-A      1.6144 eV  767.99 nm  f=0.3609  <S**2>=0.000
     309 -> 316       -0.19430
     311 -> 313        0.68132
     309 <- 316       -0.12116
 This state for optimization and/or second-order correction.
 Total Energy, E(TD-HF/TD-DFT) =  -4070.48225082
 Copying the excited state density for this state as the 1-particle RhoCI density.

 Excited State   2:      Singlet-A      1.6285 eV  761.33 nm  f=0.3566  <S**2>=0.000
     310 -> 315        0.20687
     312 -> 314        0.67851
     310 <- 315        0.12523

 Excited State   3:      Singlet-A      2.1299 eV  582.12 nm  f=0.1000  <S**2>=0.000
     309 -> 313        0.63363
     311 -> 316        0.29998

 Excited State   4:      Singlet-A      2.1415 eV  578.96 nm  f=0.0700  <S**2>=0.000
     310 -> 314        0.61695
     312 -> 315       -0.33157

 Excited State   5:      Singlet-A      3.1858 eV  389.18 nm  f=0.0154  <S**2>=0.000
     308 -> 314        0.65684
     308 -> 318        0.10730
     312 -> 315        0.20202

 The electronic state is 1-A.
 Alpha  occ. eigenvalues --  -46.96546 -46.95287 -19.30293 -19.30103 -19.24322
 Alpha  occ. eigenvalues --  -19.23909 -19.23792 -19.23403 -19.23089 -19.22410
 Alpha  occ. eigenvalues --  -14.47014 -14.46931 -14.46563 -14.46557 -14.44913
 Alpha  occ. eigenvalues --  -14.44750 -14.44156 -14.43767 -10.42947 -10.42569
 Alpha  occ. eigenvalues --  -10.39002 -10.38265 -10.38205 -10.37654 -10.36225
 Alpha  occ. eigenvalues --  -10.36115 -10.35684 -10.35655 -10.35592 -10.35412
 Alpha  occ. eigenvalues --  -10.35399 -10.35153 -10.35089 -10.35014 -10.35011
 Alpha  occ. eigenvalues --  -10.34730 -10.34718 -10.34462 -10.33967 -10.33914
 Alpha  occ. eigenvalues --  -10.33894 -10.33100 -10.33003 -10.32971 -10.32947
 Alpha  occ. eigenvalues --  -10.32809 -10.32713 -10.32708 -10.32439 -10.32433
 Alpha  occ. eigenvalues --  -10.32383 -10.32381 -10.32276 -10.32224 -10.32218
 Alpha  occ. eigenvalues --  -10.32209 -10.32197 -10.32073 -10.31899 -10.31862
 Alpha  occ. eigenvalues --  -10.31725 -10.31470 -10.31415 -10.31347 -10.31326
 Alpha  occ. eigenvalues --  -10.31209 -10.31146 -10.31131 -10.30991 -10.30865
 Alpha  occ. eigenvalues --  -10.30681 -10.30675 -10.30545 -10.30361 -10.30339
 Alpha  occ. eigenvalues --  -10.30338 -10.30097 -10.30079 -10.29824 -10.29503
 Alpha  occ. eigenvalues --  -10.29365 -10.29318 -10.29065 -10.28987 -10.28789
 Alpha  occ. eigenvalues --  -10.28757  -3.22339  -3.21225  -1.95884  -1.95486
 Alpha  occ. eigenvalues --   -1.95272  -1.94817  -1.94357  -1.94182  -1.19234
 Alpha  occ. eigenvalues --   -1.17634  -1.12428  -1.12292  -1.12064  -1.11040
 Alpha  occ. eigenvalues --   -1.09901  -1.08904  -1.06993  -1.06598  -1.05821
 Alpha  occ. eigenvalues --   -1.05675  -1.05012  -1.04430  -1.03662  -1.03633
 Alpha  occ. eigenvalues --   -0.94639  -0.93922  -0.92654  -0.91463  -0.90996
 Alpha  occ. eigenvalues --   -0.90833  -0.90678  -0.90165  -0.89651  -0.89193
 Alpha  occ. eigenvalues --   -0.89024  -0.88276  -0.88072  -0.87334  -0.87171
 Alpha  occ. eigenvalues --   -0.86600  -0.86456  -0.85920  -0.85381  -0.84781
 Alpha  occ. eigenvalues --   -0.84528  -0.84505  -0.83383  -0.83055  -0.82794
 Alpha  occ. eigenvalues --   -0.82211  -0.80594  -0.79920  -0.79840  -0.79292
 Alpha  occ. eigenvalues --   -0.79071  -0.78338  -0.78248  -0.78211  -0.77346
 Alpha  occ. eigenvalues --   -0.76916  -0.75406  -0.74850  -0.74031  -0.73718
 Alpha  occ. eigenvalues --   -0.71322  -0.71034  -0.70853  -0.70448  -0.70095
 Alpha  occ. eigenvalues --   -0.69950  -0.69479  -0.68690  -0.68413  -0.67898
 Alpha  occ. eigenvalues --   -0.67492  -0.67295  -0.67157  -0.66775  -0.66699
 Alpha  occ. eigenvalues --   -0.66030  -0.64418  -0.64025  -0.62722  -0.62249
 Alpha  occ. eigenvalues --   -0.61480  -0.61459  -0.61256  -0.61006  -0.60980
 Alpha  occ. eigenvalues --   -0.60638  -0.59936  -0.59816  -0.59387  -0.59254
 Alpha  occ. eigenvalues --   -0.58404  -0.58221  -0.57827  -0.57819  -0.57420
 Alpha  occ. eigenvalues --   -0.57141  -0.56971  -0.56875  -0.56477  -0.56374
 Alpha  occ. eigenvalues --   -0.56178  -0.55816  -0.55393  -0.55149  -0.55015
 Alpha  occ. eigenvalues --   -0.54751  -0.54579  -0.54498  -0.54457  -0.54238
 Alpha  occ. eigenvalues --   -0.54036  -0.53966  -0.53686  -0.53681  -0.53592
 Alpha  occ. eigenvalues --   -0.53455  -0.53220  -0.53193  -0.52603  -0.52364
 Alpha  occ. eigenvalues --   -0.52070  -0.51969  -0.51735  -0.51623  -0.51618
 Alpha  occ. eigenvalues --   -0.51387  -0.51354  -0.51166  -0.51065  -0.50925
 Alpha  occ. eigenvalues --   -0.50781  -0.50487  -0.50478  -0.50417  -0.50182
 Alpha  occ. eigenvalues --   -0.49712  -0.49519  -0.49231  -0.49084  -0.48948
 Alpha  occ. eigenvalues --   -0.48910  -0.48837  -0.48726  -0.48574  -0.48534
 Alpha  occ. eigenvalues --   -0.48250  -0.48203  -0.48173  -0.47740  -0.47677
 Alpha  occ. eigenvalues --   -0.47547  -0.47246  -0.47237  -0.47089  -0.47033
 Alpha  occ. eigenvalues --   -0.46891  -0.46799  -0.46526  -0.46468  -0.46265
 Alpha  occ. eigenvalues --   -0.45980  -0.45918  -0.45602  -0.45595  -0.45496
 Alpha  occ. eigenvalues --   -0.45422  -0.45170  -0.45128  -0.44989  -0.44865
 Alpha  occ. eigenvalues --   -0.44857  -0.44472  -0.44340  -0.43992  -0.43969
 Alpha  occ. eigenvalues --   -0.43655  -0.43545  -0.43453  -0.43373  -0.43350
 Alpha  occ. eigenvalues --   -0.43255  -0.43091  -0.42775  -0.42594  -0.42172
 Alpha  occ. eigenvalues --   -0.41994  -0.41963  -0.41724  -0.41115  -0.40544
 Alpha  occ. eigenvalues --   -0.40456  -0.39902  -0.39657  -0.39385  -0.39306
 Alpha  occ. eigenvalues --   -0.39139  -0.39075  -0.38844  -0.38378  -0.38335
 Alpha  occ. eigenvalues --   -0.38306  -0.37683  -0.36353  -0.36192  -0.36084
 Alpha  occ. eigenvalues --   -0.35743  -0.35613  -0.35206  -0.33605  -0.33592
 Alpha  occ. eigenvalues --   -0.32757  -0.32668  -0.32605  -0.32382  -0.32048
 Alpha  occ. eigenvalues --   -0.31695  -0.31544  -0.31119  -0.26235  -0.26199
 Alpha  occ. eigenvalues --   -0.23382  -0.23118
 Alpha virt. eigenvalues --   -0.07525  -0.07119  -0.00662  -0.00603   0.02309
 Alpha virt. eigenvalues --    0.02348   0.04142   0.04457   0.04578   0.05830
 Alpha virt. eigenvalues --    0.06485   0.07180   0.07447   0.07597   0.07929

 Mulliken charges:
               1
     1  Mg   0.941797
     2  C   -0.038198
     3  C   -0.073373
     4  C   -0.078335
     5  C   -0.055655
     6  N   -0.319986
     7  C   -0.052769
     8  C   -0.003344
     9  C   -0.147395
    10  C    0.056725
    11  C    0.022610
    12  C   -0.011282
    13  C   -0.138076
    14  H    0.013797
    15  N   -0.462328
    16  C    0.168105
    17  C   -0.175052
    18  C   -0.086731
    19  C    0.201763
    20  C    0.084826
    21  C    0.035870
    22  O   -0.236012
    23  C    0.005389
    24  N   -0.322670
    25  C    0.047380
    26  C   -0.151663
    27  C   -0.062491
    28  C    0.046748
    29  C    0.017239
    30  C   -0.028925
    31  C   -0.050499
    32  N   -0.501171
    33  C    0.150917
    34  C   -0.184810
    35  C   -0.035054
    36  C    0.187017
    37  C    0.087882
    38  C    0.097773
    39  O   -0.231073
    40  C   -0.050437
    41  C    0.238014
    42  O   -0.235906
    43  O   -0.346739
    44  C    0.130804
    45  H    0.013630
    46  H   -0.019974
    47  H    0.003336
    48  H    0.035242
    49  H    0.061577
    50  H    0.033381
    51  H    0.044480
    52  H    0.040371
    53  H    0.041090
    54  H    0.041286
    55  H    0.087249
    56  H    0.047421
    57  H    0.029801
    58  H    0.048549
    59  H    0.062060
    60  H    0.066358
    61  H    0.056709
    62  H    0.054673
    63  H    0.040394
    64  H    0.018082
    65  H    0.043570
    66  H    0.031207
    67  H    0.046340
    68  H    0.037486
    69  H    0.032155
    70  H    0.053215
    71  H    0.028094
    72  H    0.026651
    73  H    0.054284
    74  H    0.056622
    75  H    0.063025
    76  H    0.067937
    77  H    0.072777
    78  H    0.059154
    79  H    0.067084
    80  Mg   0.953456
    81  C    0.048329
    82  C   -0.057476
    83  C   -0.121977
    84  C   -0.096280
    85  N   -0.342810
    86  C   -0.024110
    87  C   -0.029624
    88  C   -0.145856
    89  C    0.045739
    90  C    0.012170
    91  C    0.023849
    92  C   -0.137444
    93  H    0.039247
    94  N   -0.537431
    95  C    0.202043
    96  C   -0.171406
    97  C   -0.064019
    98  C    0.269835
    99  C    0.097354
   100  C   -0.011521
   101  O   -0.239001
   102  C    0.006753
   103  N   -0.368999
   104  C    0.069669
   105  C   -0.083358
   106  C   -0.081682
   107  C    0.063164
   108  C    0.032034
   109  C    0.003091
   110  C   -0.018634
   111  N   -0.407099
   112  C    0.111815
   113  C   -0.185424
   114  C   -0.015230
   115  C    0.112834
   116  C    0.089647
   117  C    0.108534
   118  O   -0.187628
   119  C   -0.127714
   120  C    0.253734
   121  O   -0.269057
   122  O   -0.361216
   123  C    0.148998
   124  H    0.001525
   125  H   -0.005730
   126  H   -0.002767
   127  H    0.049526
   128  H    0.042576
   129  H    0.038434
   130  H    0.051704
   131  H    0.032385
   132  H    0.051888
   133  H    0.051962
   134  H    0.064253
   135  H    0.053297
   136  H    0.001053
   137  H    0.057494
   138  H    0.064884
   139  H    0.039568
   140  H    0.062500
   141  H    0.058210
   142  H    0.032786
   143  H    0.027082
   144  H    0.034032
   145  H    0.045461
   146  H    0.027827
   147  H    0.039413
   148  H    0.019983
   149  H    0.027125
   150  H    0.029217
   151  H    0.034566
   152  H    0.036173
   153  H    0.067945
   154  H    0.051128
   155  H    0.050938
   156  H    0.058137
   157  H    0.047287
   158  H    0.050837
 Sum of Mulliken charges =  -0.00000

 Dipole moment (field-independent basis, Debye):
    X=              0.5924    Y=              0.3405    Z=             -1.5045  Tot=              1.6524
 Quadrupole moment (field-independent basis, Debye-Ang):
   XX=           -218.7005   YY=           -589.9616   ZZ=           -499.6470
   XY=            -52.5635   XZ=             42.8074   YZ=              9.2190

 Normal termination of Gaussian 16 at Sat Sep 18 15:39:46 2021.
