 Gaussian 16, Revision A.03,
 Gaussian 16:  ES64L-G16RevA.03 25-Dec-2016

 --------------------------------
 #p wB97XD/Def2SVP td=(nstates=5)
 --------------------------------

 --------------------------------
 TDDFT excited states in gaussian
 --------------------------------
 Symbolic Z-matrix:
 Charge =  0 Multiplicity = 1

                         Standard orientation:
 ---------------------------------------------------------------------
 Center     Atomic      Atomic             Coordinates (Angstroms)
 Number     Number       Type             X           Y           Z
 ---------------------------------------------------------------------
      1         12           0      -28.049972    0.269832    0.294506
      2          6           0      -25.354298   -1.901816    0.000527
      3          6           0      -25.653475    2.913544    0.013190
      4          6           0      -30.519110    2.427625    0.065231
      5          6           0      -30.208317   -2.465515   -0.171479
      6          7           0      -25.794151    0.453157   -0.083616
      7          6           0      -24.923858   -0.613677   -0.068369
      8          6           0      -23.486943   -0.124126   -0.268080
      9          6           0      -23.627823    1.395455    0.023904
     10          6           0      -25.112118    1.638036   -0.055635
     11          6           0      -23.059519    1.957610    1.385809
     12          6           0      -22.934810   -0.429767   -1.670131
     13          6           0      -21.497509   -0.135219   -1.871518
     14          1           0      -20.767858   -0.888853   -3.048268
     15          7           0      -28.105744    2.408249    0.055456
     16          6           0      -27.025446    3.301916   -0.010975
     17          6           0      -27.555177    4.632392   -0.121976
     18          6           0      -28.987472    4.502482   -0.247550
     19          6           0      -29.265446    3.043424   -0.012479
     20          6           0      -26.655255    5.891487   -0.258790
     21          6           0      -29.910331    5.703294   -0.478577
     22          8           0      -29.501427    6.851179   -0.422289
     23          6           0      -31.342292    5.462514   -0.770129
     24          7           0      -30.094079   -0.017461    0.211164
     25          6           0      -30.897916    1.050440    0.167501
     26          6           0      -32.391835    0.584782   -0.067276
     27          6           0      -32.338149   -0.985239   -0.206397
     28          6           0      -30.729873   -1.194483   -0.098671
     29          6           0      -33.468370    1.102023    0.922768
     30          6           0      -32.881112   -1.418443   -1.584993
     31          6           0      -33.532708   -2.806111   -1.623667
     32          7           0      -27.901704   -1.800322   -0.024897
     33          6           0      -28.839763   -2.793439   -0.068393
     34          6           0      -28.146532   -4.087180   -0.056604
     35          6           0      -26.818628   -3.775857    0.062258
     36          6           0      -26.689761   -2.406368    0.011889
     37          6           0      -28.811700   -5.467013   -0.025512
     38          6           0      -25.504544   -4.341332    0.125940
     39          8           0      -25.115869   -5.482496    0.171312
     40          6           0      -24.496874   -3.143779    0.103359
     41          6           0      -23.769819   -3.145024    1.402526
     42          8           0      -24.246919   -3.212880    2.501262
     43          8           0      -22.407223   -2.907956    1.151408
     44          6           0      -21.571980   -2.798379    2.313433
     45          1           0      -24.843357    3.645127    0.018153
     46          1           0      -31.435750    3.019658    0.013835
     47          1           0      -30.852815   -3.344056   -0.245610
     48          1           0      -22.908177   -0.567658    0.540978
     49          1           0      -23.223873    2.065472   -0.734238
     50          1           0      -22.433503    2.796141    1.081475
     51          1           0      -22.742319    1.238346    2.141365
     52          1           0      -23.899525    2.430602    1.894291
     53          1           0      -23.365249    0.154706   -2.483735
     54          1           0      -23.126204   -1.472661   -1.923037
     55          1           0      -20.998692   -0.361729   -0.929194
     56          1           0      -21.374788    0.939041   -2.008278
     57          1           0      -26.819167    6.055699   -1.324287
     58          1           0      -25.580886    5.721421   -0.185828
     59          1           0      -26.819050    6.812359    0.301216
     60          1           0      -31.337251    4.714924   -1.563331
     61          1           0      -31.767420    6.378083   -1.181666
     62          1           0      -31.736908    5.107473    0.182200
     63          1           0      -32.682213    1.020750   -1.023577
     64          1           0      -32.828928   -1.539110    0.593261
     65          1           0      -34.062155    1.858312    0.408415
     66          1           0      -32.969975    1.438919    1.831120
     67          1           0      -34.183039    0.307299    1.136594
     68          1           0      -32.017662   -1.376551   -2.248433
     69          1           0      -33.564055   -0.700622   -2.039771
     70          1           0      -34.535749   -2.592039   -1.994288
     71          1           0      -33.512831   -3.343738   -0.675606
     72          1           0      -33.048912   -3.429772   -2.375490
     73          1           0      -28.392126   -6.222020   -0.689536
     74          1           0      -29.844538   -5.220522   -0.272799
     75          1           0      -28.887304   -5.737931    1.027691
     76          1           0      -23.820925   -3.330257   -0.731245
     77          1           0      -20.953597   -3.695848    2.331805
     78          1           0      -22.031668   -2.670324    3.293722
     79          1           0      -20.951336   -1.912432    2.182026
     80         12           0       28.015090    0.163167    0.307615
     81          6           0       24.614460   -0.297614   -0.255240
     82          6           0       28.449313   -3.238107   -0.208592
     83          6           0       31.299510    0.532764    0.273054
     84          6           0       27.524478    3.589217    0.304902
     85          7           0       26.728031   -1.532593   -0.331271
     86          6           0       25.348797   -1.512030   -0.365696
     87          6           0       24.749881   -2.877706   -0.528589
     88          6           0       25.973938   -3.813679   -0.127425
     89          6           0       27.140157   -2.843416   -0.260765
     90          6           0       25.940084   -4.746670    1.174680
     91          6           0       24.081870   -3.167540   -1.951884
     92          6           0       24.705407   -2.474240   -3.199672
     93          1           0       24.801037   -3.359614   -4.418922
     94          7           0       29.665837   -1.147483   -0.051212
     95          6           0       29.625846   -2.535714   -0.231310
     96          6           0       30.937192   -3.075187   -0.465791
     97          6           0       31.814889   -1.970743   -0.352069
     98          6           0       30.966914   -0.776641   -0.060497
     99          6           0       31.154425   -4.588939   -0.494059
    100          6           0       33.346109   -2.130384   -0.489954
    101          8           0       33.867768   -3.206172   -0.800300
    102          6           0       34.148456   -0.938846   -0.174345
    103          7           0       29.183916    1.862593    0.168962
    104          6           0       30.532391    1.730902    0.454885
    105          6           0       31.235967    3.087422    0.679702
    106          6           0       29.989128    4.033510    0.437848
    107          6           0       28.846312    3.139304    0.244509
    108          6           0       31.927944    3.350491    1.979857
    109          6           0       30.155817    4.972185   -0.861973
    110          6           0       29.769380    6.395799   -0.556241
    111          7           0       26.381329    1.456121    0.270799
    112          6           0       26.340682    2.838079    0.277299
    113          6           0       24.937734    3.301443    0.178083
    114          6           0       24.211157    2.078145   -0.032701
    115          6           0       25.136330    1.029648    0.030610
    116          6           0       24.387895    4.658930    0.005584
    117          6           0       22.910403    1.447825   -0.343347
    118          8           0       21.844668    1.967156   -0.581866
    119          6           0       23.113679   -0.097388   -0.456612
    120          6           0       22.228413   -0.795976    0.476014
    121          8           0       21.319200   -1.596547    0.255943
    122          8           0       22.392524   -0.172979    1.740988
    123          6           0       21.619621   -0.773736    2.849150
    124          1           0       28.510537   -4.325523   -0.123380
    125          1           0       32.349575    0.756596    0.471747
    126          1           0       27.471888    4.675885    0.392379
    127          1           0       23.923521   -3.012710    0.169180
    128          1           0       26.002419   -4.476782   -0.992421
    129          1           0       24.994213   -4.772599    1.715459
    130          1           0       26.642508   -4.443310    1.950891
    131          1           0       26.025021   -5.790014    0.869600
    132          1           0       23.008821   -2.982346   -1.915963
    133          1           0       24.133112   -4.247239   -2.092122
    134          1           0       25.689382   -2.068169   -2.963165
    135          1           0       24.087538   -1.627647   -3.497768
    136          1           0       31.975125   -4.903970   -1.139278
    137          1           0       30.283616   -5.065907   -0.943068
    138          1           0       31.375954   -4.874119    0.534656
    139          1           0       34.092987   -0.759323    0.898925
    140          1           0       33.792792   -0.090009   -0.759208
    141          1           0       35.167698   -1.205298   -0.453930
    142          1           0       31.869213    3.271964   -0.188394
    143          1           0       29.841949    4.479181    1.421605
    144          1           0       32.153367    4.417044    1.984186
    145          1           0       32.897142    2.854172    1.930251
    146          1           0       31.315869    3.007790    2.814980
    147          1           0       29.546994    4.520802   -1.645248
    148          1           0       31.126919    4.964955   -1.358572
    149          1           0       28.845420    6.612209   -1.091955
    150          1           0       30.427587    7.117884   -1.040557
    151          1           0       29.536561    6.495624    0.503719
    152          1           0       25.118108    5.469405   -0.009687
    153          1           0       23.762209    4.838778    0.879120
    154          1           0       24.011682    4.586870   -1.014695
    155          1           0       22.863081   -0.328763   -1.491609
    156          1           0       22.365435   -0.818407    3.643619
    157          1           0       21.169362   -1.761526    2.750583
    158          1           0       20.959037    0.027478    3.181008
 ---------------------------------------------------------------------

 SCF Done:  E(RwB97XD) =  -4070.61473764     A.U. after   20 cycles

 Excitation energies and oscillator strengths:

 Excited State   1:      Singlet-A      1.6615 eV  746.22 nm  f=0.3698  <S**2>=0.000
     310 -> 315        0.18778
     312 -> 314        0.68151
     310 <- 315        0.11478
 This state for optimization and/or second-order correction.
 Total Energy, E(TD-HF/TD-DFT) =  -4070.55367855
 Copying the excited state density for this state as the 1-particle RhoCI density.

 Excited State   2:      Singlet-A      1.7222 eV  719.91 nm  f=0.3960  <S**2>=0.000
     309 -> 316       -0.17624
     311 -> 313        0.68546
     309 <- 316       -0.11114

 Excited State   3:      Singlet-A      2.1479 eV  577.24 nm  f=0.0865  <S**2>=0.000
     310 -> 314        0.62830
     312 -> 315       -0.30700

 Excited State   4:      Singlet-A      2.2425 eV  552.89 nm  f=0.1148  <S**2>=0.000
     309 -> 313        0.63517
     311 -> 316        0.29258

 Excited State   5:      Singlet-A      3.2984 eV  375.89 nm  f=0.0028  <S**2>=0.000
     302 -> 313       -0.12790
     305 -> 313       -0.40115
     307 -> 313        0.52926
     311 -> 316        0.11707

 The electronic state is 1-A.
 Alpha  occ. eigenvalues --  -46.95996 -46.95452 -19.30161 -19.29580 -19.25490
 Alpha  occ. eigenvalues --  -19.25393 -19.24061 -19.23876 -19.23747 -19.23516
 Alpha  occ. eigenvalues --  -14.47224 -14.46958 -14.46843 -14.46787 -14.44851
 Alpha  occ. eigenvalues --  -14.44264 -14.43774 -14.43641 -10.43601 -10.43322
 Alpha  occ. eigenvalues --  -10.39144 -10.39077 -10.38850 -10.38104 -10.36441
 Alpha  occ. eigenvalues --  -10.35706 -10.35689 -10.35325 -10.35211 -10.35182
 Alpha  occ. eigenvalues --  -10.35048 -10.35024 -10.34939 -10.34733 -10.34666
 Alpha  occ. eigenvalues --  -10.34535 -10.34140 -10.34085 -10.33783 -10.33397
 Alpha  occ. eigenvalues --  -10.33151 -10.32946 -10.32798 -10.32615 -10.32570
 Alpha  occ. eigenvalues --  -10.32535 -10.32379 -10.32376 -10.32317 -10.32314
 Alpha  occ. eigenvalues --  -10.32275 -10.32265 -10.32261 -10.32232 -10.32230
 Alpha  occ. eigenvalues --  -10.32114 -10.32004 -10.31936 -10.31892 -10.31757
 Alpha  occ. eigenvalues --  -10.31721 -10.31602 -10.31426 -10.31423 -10.31207
 Alpha  occ. eigenvalues --  -10.31093 -10.31012 -10.30881 -10.30867 -10.30828
 Alpha  occ. eigenvalues --  -10.30742 -10.30697 -10.30484 -10.30389 -10.30313
 Alpha  occ. eigenvalues --  -10.30137 -10.30079 -10.30067 -10.29973 -10.29906
 Alpha  occ. eigenvalues --  -10.29898 -10.29862 -10.29568 -10.29445 -10.29422
 Alpha  occ. eigenvalues --  -10.27917  -3.21874  -3.21421  -1.95465  -1.94997
 Alpha  occ. eigenvalues --   -1.94993  -1.94827  -1.94559  -1.94382  -1.18749
 Alpha  occ. eigenvalues --   -1.16972  -1.12609  -1.12516  -1.12368  -1.11594
 Alpha  occ. eigenvalues --   -1.11008  -1.09111  -1.07061  -1.06586  -1.05827
 Alpha  occ. eigenvalues --   -1.05724  -1.05723  -1.05219  -1.04855  -1.04392
 Alpha  occ. eigenvalues --   -0.95207  -0.94432  -0.91508  -0.91272  -0.91170
 Alpha  occ. eigenvalues --   -0.91167  -0.90699  -0.90007  -0.89884  -0.89561
 Alpha  occ. eigenvalues --   -0.88816  -0.88411  -0.88158  -0.87889  -0.87137
 Alpha  occ. eigenvalues --   -0.86731  -0.86363  -0.85907  -0.85074  -0.84661
 Alpha  occ. eigenvalues --   -0.84514  -0.84275  -0.83228  -0.82813  -0.82796
 Alpha  occ. eigenvalues --   -0.82106  -0.80237  -0.79702  -0.79457  -0.79253
 Alpha  occ. eigenvalues --   -0.79056  -0.78761  -0.78142  -0.78118  -0.77705
 Alpha  occ. eigenvalues --   -0.77483  -0.75198  -0.74631  -0.74125  -0.74024
 Alpha  occ. eigenvalues --   -0.71357  -0.71298  -0.71242  -0.70974  -0.70082
 Alpha  occ. eigenvalues --   -0.69743  -0.68825  -0.68748  -0.68345  -0.67981
 Alpha  occ. eigenvalues --   -0.67543  -0.66954  -0.66901  -0.66604  -0.66514
 Alpha  occ. eigenvalues --   -0.65989  -0.64657  -0.64529  -0.62296  -0.62252
 Alpha  occ. eigenvalues --   -0.61863  -0.61401  -0.61282  -0.60938  -0.60776
 Alpha  occ. eigenvalues --   -0.60438  -0.60274  -0.59555  -0.59510  -0.59197
 Alpha  occ. eigenvalues --   -0.58486  -0.58297  -0.57819  -0.57768  -0.57439
 Alpha  occ. eigenvalues --   -0.57345  -0.57046  -0.56820  -0.56547  -0.56305
 Alpha  occ. eigenvalues --   -0.55935  -0.55795  -0.55512  -0.55266  -0.55092
 Alpha  occ. eigenvalues --   -0.54863  -0.54652  -0.54564  -0.54560  -0.54110
 Alpha  occ. eigenvalues --   -0.53915  -0.53837  -0.53647  -0.53603  -0.53543
 Alpha  occ. eigenvalues --   -0.53044  -0.52797  -0.52749  -0.52639  -0.52369
 Alpha  occ. eigenvalues --   -0.52290  -0.52232  -0.52188  -0.51784  -0.51551
 Alpha  occ. eigenvalues --   -0.51496  -0.51254  -0.51232  -0.50956  -0.50818
 Alpha  occ. eigenvalues --   -0.50757  -0.50500  -0.50231  -0.50188  -0.50097
 Alpha  occ. eigenvalues --   -0.50053  -0.49681  -0.49470  -0.49319  -0.49203
 Alpha  occ. eigenvalues --   -0.49073  -0.48978  -0.48873  -0.48463  -0.48405
 Alpha  occ. eigenvalues --   -0.48322  -0.48214  -0.48142  -0.48068  -0.47770
 Alpha  occ. eigenvalues --   -0.47658  -0.47319  -0.47288  -0.47058  -0.47012
 Alpha  occ. eigenvalues --   -0.46909  -0.46858  -0.46632  -0.46627  -0.46574
 Alpha  occ. eigenvalues --   -0.46068  -0.45861  -0.45854  -0.45634  -0.45357
 Alpha  occ. eigenvalues --   -0.45277  -0.45166  -0.45150  -0.45044  -0.44869
 Alpha  occ. eigenvalues --   -0.44748  -0.44624  -0.44448  -0.44322  -0.44227
 Alpha  occ. eigenvalues --   -0.44079  -0.44063  -0.43959  -0.43809  -0.43674
 Alpha  occ. eigenvalues --   -0.43581  -0.43399  -0.43122  -0.42481  -0.42371
 Alpha  occ. eigenvalues --   -0.42141  -0.41878  -0.41780  -0.41590  -0.41012
 Alpha  occ. eigenvalues --   -0.40721  -0.40433  -0.40109  -0.39962  -0.39652
 Alpha  occ. eigenvalues --   -0.39402  -0.38906  -0.38879  -0.38547  -0.38517
 Alpha  occ. eigenvalues --   -0.38013  -0.37657  -0.37186  -0.37146  -0.36772
 Alpha  occ. eigenvalues --   -0.36262  -0.35911  -0.35571  -0.33979  -0.33500
 Alpha  occ. eigenvalues --   -0.33142  -0.33046  -0.32796  -0.32598  -0.32250
 Alpha  occ. eigenvalues --   -0.32170  -0.32114  -0.31832  -0.26599  -0.26018
 Alpha  occ. eigenvalues --   -0.23473  -0.23022
 Alpha virt. eigenvalues --   -0.07362  -0.07009  -0.00315  -0.00014   0.02722
 Alpha virt. eigenvalues --    0.02999   0.04561   0.04838   0.04857   0.05217
 Alpha virt. eigenvalues --    0.06209   0.06968   0.07462   0.07595   0.08544

 Mulliken charges:
               1
     1  Mg   0.953662
     2  C   -0.018610
     3  C   -0.078252
     4  C   -0.102344
     5  C   -0.070828
     6  N   -0.331814
     7  C   -0.062290
     8  C    0.031549
     9  C   -0.153759
    10  C    0.038864
    11  C    0.036076
    12  C    0.038147
    13  C   -0.109498
    14  H    0.041453
    15  N   -0.434336
    16  C    0.181988
    17  C   -0.135740
    18  C   -0.121011
    19  C    0.236070
    20  C    0.062941
    21  C    0.024931
    22  O   -0.229588
    23  C    0.001947
    24  N   -0.396465
    25  C    0.068719
    26  C   -0.119426
    27  C   -0.096951
    28  C    0.094340
    29  C    0.022085
    30  C   -0.030749
    31  C   -0.043156
    32  N   -0.425064
    33  C    0.086020
    34  C   -0.233652
    35  C    0.018408
    36  C    0.142796
    37  C    0.107354
    38  C    0.094451
    39  O   -0.186551
    40  C   -0.073850
    41  C    0.260006
    42  O   -0.213141
    43  O   -0.378383
    44  C    0.124777
    45  H   -0.006333
    46  H   -0.019693
    47  H   -0.006034
    48  H    0.020810
    49  H    0.031388
    50  H    0.043452
    51  H    0.049291
    52  H    0.029096
    53  H    0.029824
    54  H    0.035472
    55  H    0.036437
    56  H    0.039804
    57  H    0.058604
    58  H    0.019627
    59  H    0.074521
    60  H    0.052424
    61  H    0.058012
    62  H    0.078987
    63  H    0.040400
    64  H    0.042178
    65  H    0.035895
    66  H    0.050037
    67  H    0.035370
    68  H    0.033117
    69  H    0.029990
    70  H    0.038259
    71  H    0.042310
    72  H    0.038966
    73  H    0.070615
    74  H    0.005421
    75  H    0.058168
    76  H    0.072903
    77  H    0.057139
    78  H    0.062178
    79  H    0.040240
    80  Mg   0.956443
    81  C   -0.040796
    82  C   -0.109731
    83  C   -0.099557
    84  C   -0.098495
    85  N   -0.351155
    86  C    0.005552
    87  C   -0.079379
    88  C   -0.049983
    89  C    0.025429
    90  C    0.014877
    91  C   -0.014082
    92  C   -0.131231
    93  H    0.040652
    94  N   -0.438317
    95  C    0.180550
    96  C   -0.147283
    97  C   -0.106903
    98  C    0.206953
    99  C    0.079860
   100  C    0.051181
   101  O   -0.236305
   102  C   -0.010209
   103  N   -0.368946
   104  C    0.022514
   105  C   -0.081714
   106  C   -0.120608
   107  C    0.043123
   108  C    0.052826
   109  C   -0.004585
   110  C   -0.029194
   111  N   -0.431169
   112  C    0.160495
   113  C   -0.200506
   114  C   -0.051340
   115  C    0.127927
   116  C    0.085781
   117  C    0.113354
   118  O   -0.186408
   119  C   -0.040840
   120  C    0.283424
   121  O   -0.239833
   122  O   -0.406692
   123  C    0.140531
   124  H   -0.005326
   125  H   -0.020620
   126  H   -0.017676
   127  H    0.039104
   128  H    0.033401
   129  H    0.033392
   130  H    0.047817
   131  H    0.043644
   132  H    0.053370
   133  H    0.034497
   134  H    0.067862
   135  H    0.053307
   136  H    0.060278
   137  H    0.036796
   138  H    0.064864
   139  H    0.070815
   140  H    0.065153
   141  H    0.051325
   142  H    0.031714
   143  H    0.032430
   144  H    0.042840
   145  H    0.037349
   146  H    0.047643
   147  H    0.039940
   148  H    0.030710
   149  H    0.027372
   150  H    0.038722
   151  H    0.043350
   152  H    0.019165
   153  H    0.066779
   154  H    0.074748
   155  H    0.069307
   156  H    0.037393
   157  H    0.075531
   158  H    0.056793
 Sum of Mulliken charges =  -0.00000

 Dipole moment (field-independent basis, Debye):
    X=              1.8601    Y=              4.3842    Z=              3.4435  Tot=              5.8770
 Quadrupole moment (field-independent basis, Debye-Ang):
   XX=           -207.1136   YY=           -538.2634   ZZ=           -504.0633
   XY=             51.2480   XZ=            115.0511   YZ=             -1.6434

 Normal termination of Gaussian 16 at Mon Sep 20 17:50:34 2021.
