 Gaussian 16, Revision A.03,
 Gaussian 16:  ES64L-G16RevA.03 25-Dec-2016

 --------------------------------
 #p wB97XD/Def2SVP td=(nstates=5)
 --------------------------------

 --------------------------------
 TDDFT excited states in gaussian
 --------------------------------
 Symbolic Z-matrix:
 Charge =  0 Multiplicity = 1

                         Standard orientation:
 ---------------------------------------------------------------------
 Center     Atomic      Atomic             Coordinates (Angstroms)
 Number     Number       Type             X           Y           Z
 ---------------------------------------------------------------------
      1         12           0       -9.364904   -0.842398    0.494985
      2          6           0      -10.179413    2.287866   -0.502382
      3          6           0       -7.364778    0.478859    3.008652
      4          6           0       -8.545534   -3.973415    1.488379
      5          6           0      -10.951495   -2.144962   -2.292326
      6          7           0       -8.975416    1.113387    1.170824
      7          6           0       -9.370957    2.287456    0.617203
      8          6           0       -9.025993    3.474696    1.477936
      9          6           0       -7.904532    2.912504    2.431757
     10          6           0       -8.116455    1.379266    2.208089
     11          6           0       -6.406433    3.412744    2.289556
     12          6           0      -10.277032    3.966759    2.336150
     13          6           0      -10.165894    5.464451    2.747735
     14          1           0       -8.805549    6.161677    2.916504
     15          7           0       -8.054545   -1.688918    1.996565
     16          6           0       -7.329981   -0.918222    2.943258
     17          6           0       -6.615183   -1.793356    3.822747
     18          6           0       -6.930784   -3.129764    3.387589
     19          6           0       -7.898638   -2.940608    2.248561
     20          6           0       -5.808645   -1.347729    4.991782
     21          6           0       -6.451575   -4.465680    3.944426
     22          8           0       -6.681276   -5.602392    3.436581
     23          6           0       -5.604310   -4.485956    5.205352
     24          7           0       -9.633222   -2.770186   -0.311697
     25          6           0       -9.366634   -3.951137    0.382896
     26          6           0      -10.055291   -5.217579   -0.202889
     27          6           0      -10.873742   -4.514068   -1.424768
     28          6           0      -10.513777   -3.075439   -1.350802
     29          6           0       -8.976650   -6.212498   -0.650229
     30          6           0      -12.349026   -4.786884   -1.419078
     31          6           0      -12.851344   -5.392775   -2.698347
     32          7           0      -10.254521   -0.201524   -1.126202
     33          6           0      -10.900019   -0.804182   -2.198772
     34          6           0      -11.429387    0.181495   -3.066618
     35          6           0      -11.149934    1.450891   -2.492868
     36          6           0      -10.526229    1.178914   -1.256924
     37          6           0      -12.187952    0.006712   -4.325962
     38          6           0      -11.195682    2.880485   -2.708747
     39          8           0      -11.570052    3.602839   -3.611803
     40          6           0      -10.607634    3.454999   -1.333733
     41          6           0       -9.721987    4.629999   -1.543968
     42          8           0       -8.874703    4.749734   -2.391663
     43          8           0       -9.965755    5.638066   -0.692154
     44          6           0       -9.080795    6.824092   -0.871600
     45          1           0       -6.638185    0.991934    3.642310
     46          1           0       -8.167397   -4.967049    1.737359
     47          1           0      -11.565887   -2.475353   -3.132367
     48          1           0       -8.526966    4.264723    0.917002
     49          1           0       -8.215344    3.085510    3.461580
     50          1           0       -6.402484    4.212071    1.548410
     51          1           0       -5.650750    2.676406    2.020594
     52          1           0       -6.102819    3.761261    3.276884
     53          1           0      -10.301774    3.284631    3.186149
     54          1           0      -11.165165    3.823235    1.720624
     55          1           0      -10.709700    5.483039    3.692387
     56          1           0      -10.807577    6.014706    2.060085
     57          1           0       -6.369550   -1.133547    5.901569
     58          1           0       -5.257117   -0.475524    4.643065
     59          1           0       -4.964680   -2.002916    5.205491
     60          1           0       -4.581357   -4.299142    4.878950
     61          1           0       -5.684046   -5.506969    5.577738
     62          1           0       -5.884807   -3.732687    5.941776
     63          1           0      -10.610671   -5.664702    0.621659
     64          1           0      -10.495940   -4.914049   -2.366321
     65          1           0       -7.950904   -5.843687   -0.631272
     66          1           0       -9.273361   -6.648096   -1.604040
     67          1           0       -8.974671   -7.002411    0.101417
     68          1           0      -12.952839   -3.885820   -1.310598
     69          1           0      -12.690271   -5.428591   -0.606658
     70          1           0      -13.479995   -6.268466   -2.539457
     71          1           0      -12.027926   -5.709407   -3.337974
     72          1           0      -13.322711   -4.558612   -3.218876
     73          1           0      -11.943397   -0.878558   -4.913733
     74          1           0      -11.761312    0.769192   -4.978292
     75          1           0      -13.258097    0.069298   -4.128256
     76          1           0      -11.553698    3.827469   -0.939810
     77          1           0       -9.380251    7.434015   -1.725088
     78          1           0       -8.025328    6.552067   -0.852269
     79          1           0       -9.197332    7.467733    0.000665
     80         12           0        9.397389   -0.539128   -0.016898
     81          6           0        7.935213    2.581447   -0.007628
     82          6           0       12.300524    0.967445    0.987636
     83          6           0       10.914562   -3.542662   -0.302171
     84          6           0        6.586424   -1.855141   -1.583971
     85          7           0       10.010597    1.625952    0.295069
     86          6           0        9.247498    2.640324    0.437303
     87          6           0        9.946311    4.003801    0.948159
     88          6           0       11.440072    3.490014    0.965790
     89          6           0       11.297563    1.925297    0.653348
     90          6           0       12.400410    4.134026   -0.165620
     91          6           0        9.435534    4.549285    2.351677
     92          6           0        9.447906    6.102368    2.580580
     93          1           0       10.176484    6.925812    1.561885
     94          7           0       11.261458   -1.206184    0.358568
     95          6           0       12.375251   -0.432548    0.872501
     96          6           0       13.488917   -1.353212    1.075992
     97          6           0       13.139704   -2.642060    0.601259
     98          6           0       11.711100   -2.519779    0.232805
     99          6           0       14.707708   -0.804759    1.726373
    100          6           0       13.939280   -3.965573    0.565809
    101          8           0       13.583004   -4.982518    0.048983
    102          6           0       15.381370   -3.867308    1.103202
    103          7           0        8.920243   -2.452324   -0.918786
    104          6           0        9.665551   -3.511937   -0.922215
    105          6           0        9.067888   -4.633664   -1.818185
    106          6           0        7.637041   -4.134076   -2.131095
    107          6           0        7.674580   -2.722635   -1.499282
    108          6           0        9.939322   -4.866655   -3.070707
    109          6           0        6.535715   -5.086121   -1.571754
    110          6           0        6.399512   -6.426773   -2.311537
    111          7           0        7.583702    0.181923   -0.685710
    112          6           0        6.505929   -0.508427   -1.211129
    113          6           0        5.441951    0.448536   -1.364736
    114          6           0        5.922685    1.726753   -0.950527
    115          6           0        7.245134    1.437998   -0.516311
    116          6           0        4.163719    0.163129   -1.905215
    117          6           0        5.634768    3.104197   -0.706441
    118          8           0        4.586080    3.753206   -0.997335
    119          6           0        6.991827    3.722768   -0.191083
    120          6           0        7.377449    4.756955   -1.127320
    121          8           0        7.957225    4.549511   -2.192954
    122          8           0        6.841858    5.934521   -0.671245
    123          6           0        6.932132    7.032516   -1.656829
    124          1           0       13.247396    1.423117    1.283157
    125          1           0       11.462964   -4.486826   -0.342437
    126          1           0        5.702589   -2.333223   -2.012516
    127          1           0        9.796772    4.690966    0.114977
    128          1           0       11.900738    3.711863    1.928224
    129          1           0       11.765007    4.543754   -0.951299
    130          1           0       13.048627    3.361703   -0.579375
    131          1           0       13.072718    4.926652    0.164398
    132          1           0       10.129512    4.104249    3.064230
    133          1           0        8.526816    4.093647    2.746531
    134          1           0        9.849548    6.400705    3.548894
    135          1           0        8.427333    6.478373    2.508224
    136          1           0       15.357472   -0.332655    0.988914
    137          1           0       15.193273   -1.518191    2.392362
    138          1           0       14.372931   -0.030253    2.416013
    139          1           0       15.458394   -3.796885    2.188643
    140          1           0       15.735861   -2.970135    0.596746
    141          1           0       16.060901   -4.658452    0.787698
    142          1           0        9.046008   -5.486158   -1.139726
    143          1           0        7.525683   -3.997426   -3.206721
    144          1           0       10.554013   -4.022379   -3.383653
    145          1           0        9.434524   -5.072043   -4.015270
    146          1           0       10.583128   -5.709151   -2.818254
    147          1           0        5.567789   -4.596613   -1.670170
    148          1           0        6.713032   -5.271618   -0.511851
    149          1           0        7.200805   -6.477919   -3.048717
    150          1           0        5.528985   -6.379122   -2.965936
    151          1           0        6.299768   -7.343158   -1.730321
    152          1           0        3.873286   -0.775817   -1.433752
    153          1           0        4.120058   -0.004048   -2.981309
    154          1           0        3.516667    1.024213   -1.734857
    155          1           0        6.702680    4.187019    0.752133
    156          1           0        6.283709    6.746877   -2.485595
    157          1           0        7.965136    7.269342   -1.909455
    158          1           0        6.509329    7.921298   -1.188163
 ---------------------------------------------------------------------

 SCF Done:  E(RwB97XD) =  -4070.62462416     A.U. after   20 cycles

 Excitation energies and oscillator strengths:

 Excited State   1:      Singlet-A      1.5870 eV  781.25 nm  f=0.4032  <S**2>=0.000
     309 -> 316       -0.17571
     312 -> 313        0.68641
     309 <- 316       -0.11664
 This state for optimization and/or second-order correction.
 Total Energy, E(TD-HF/TD-DFT) =  -4070.56630343
 Copying the excited state density for this state as the 1-particle RhoCI density.

 Excited State   2:      Singlet-A      1.7217 eV  720.11 nm  f=0.3742  <S**2>=0.000
     310 -> 315        0.20367
     311 -> 314        0.67752
     310 <- 315        0.11867

 Excited State   3:      Singlet-A      2.1611 eV  573.71 nm  f=0.0744  <S**2>=0.000
     310 -> 314        0.63376
     311 -> 315       -0.28023

 Excited State   4:      Singlet-A      2.1694 eV  571.53 nm  f=0.1372  <S**2>=0.000
     309 -> 313        0.62894
     312 -> 316        0.29080

 Excited State   5:      Singlet-A      3.5170 eV  352.53 nm  f=0.0000  <S**2>=0.000
     311 -> 313        0.70677

 The electronic state is 1-A.
 Alpha  occ. eigenvalues --  -46.94730 -46.93386 -19.30215 -19.30000 -19.25186
 Alpha  occ. eigenvalues --  -19.24223 -19.24156 -19.23537 -19.23457 -19.23277
 Alpha  occ. eigenvalues --  -14.47334 -14.46779 -14.46182 -14.46089 -14.44323
 Alpha  occ. eigenvalues --  -14.43996 -14.43484 -14.43284 -10.42368 -10.42264
 Alpha  occ. eigenvalues --  -10.40253 -10.39126 -10.39047 -10.38769 -10.35921
 Alpha  occ. eigenvalues --  -10.35649 -10.35250 -10.34979 -10.34822 -10.34795
 Alpha  occ. eigenvalues --  -10.34747 -10.34605 -10.34442 -10.34416 -10.34407
 Alpha  occ. eigenvalues --  -10.34299 -10.34009 -10.33777 -10.33609 -10.33197
 Alpha  occ. eigenvalues --  -10.33172 -10.33059 -10.33004 -10.32864 -10.32839
 Alpha  occ. eigenvalues --  -10.32779 -10.32718 -10.32229 -10.32151 -10.32121
 Alpha  occ. eigenvalues --  -10.32095 -10.31954 -10.31831 -10.31788 -10.31782
 Alpha  occ. eigenvalues --  -10.31747 -10.31678 -10.31634 -10.31608 -10.31547
 Alpha  occ. eigenvalues --  -10.31480 -10.31471 -10.31448 -10.31143 -10.31142
 Alpha  occ. eigenvalues --  -10.31130 -10.31024 -10.31020 -10.30645 -10.30483
 Alpha  occ. eigenvalues --  -10.30436 -10.30151 -10.30022 -10.29855 -10.29600
 Alpha  occ. eigenvalues --  -10.29547 -10.29485 -10.29413 -10.29360 -10.29321
 Alpha  occ. eigenvalues --  -10.29245 -10.29168 -10.29138 -10.28839 -10.28444
 Alpha  occ. eigenvalues --  -10.28427  -3.20773  -3.19637  -1.94357  -1.93903
 Alpha  occ. eigenvalues --   -1.93746  -1.93226  -1.92751  -1.92658  -1.19321
 Alpha  occ. eigenvalues --   -1.17663  -1.14747  -1.12260  -1.09531  -1.09386
 Alpha  occ. eigenvalues --   -1.09295  -1.08933  -1.07382  -1.06392  -1.06282
 Alpha  occ. eigenvalues --   -1.05485  -1.05454  -1.04609  -1.03309  -1.02925
 Alpha  occ. eigenvalues --   -0.95232  -0.94479  -0.91482  -0.91164  -0.90614
 Alpha  occ. eigenvalues --   -0.90304  -0.90248  -0.89714  -0.89480  -0.89374
 Alpha  occ. eigenvalues --   -0.89054  -0.88875  -0.88773  -0.88241  -0.86128
 Alpha  occ. eigenvalues --   -0.85840  -0.85595  -0.85313  -0.84251  -0.84199
 Alpha  occ. eigenvalues --   -0.83639  -0.83475  -0.82974  -0.82875  -0.82354
 Alpha  occ. eigenvalues --   -0.82225  -0.80517  -0.80198  -0.79597  -0.79266
 Alpha  occ. eigenvalues --   -0.79130  -0.78323  -0.78280  -0.77649  -0.77036
 Alpha  occ. eigenvalues --   -0.76744  -0.74759  -0.74170  -0.73693  -0.73424
 Alpha  occ. eigenvalues --   -0.71272  -0.70952  -0.70724  -0.70498  -0.70152
 Alpha  occ. eigenvalues --   -0.70014  -0.68990  -0.68566  -0.67742  -0.67672
 Alpha  occ. eigenvalues --   -0.67274  -0.67181  -0.66748  -0.66654  -0.66060
 Alpha  occ. eigenvalues --   -0.65956  -0.64189  -0.63523  -0.62222  -0.62026
 Alpha  occ. eigenvalues --   -0.61755  -0.61350  -0.61066  -0.60813  -0.60250
 Alpha  occ. eigenvalues --   -0.60248  -0.59838  -0.59836  -0.59610  -0.59600
 Alpha  occ. eigenvalues --   -0.57967  -0.57959  -0.57578  -0.57208  -0.57146
 Alpha  occ. eigenvalues --   -0.57031  -0.56874  -0.56426  -0.55852  -0.55746
 Alpha  occ. eigenvalues --   -0.55303  -0.55142  -0.55100  -0.54897  -0.54839
 Alpha  occ. eigenvalues --   -0.54701  -0.54669  -0.54327  -0.54255  -0.53998
 Alpha  occ. eigenvalues --   -0.53985  -0.53786  -0.53770  -0.53237  -0.53130
 Alpha  occ. eigenvalues --   -0.53058  -0.52964  -0.52840  -0.52638  -0.52342
 Alpha  occ. eigenvalues --   -0.52136  -0.51880  -0.51828  -0.51473  -0.51289
 Alpha  occ. eigenvalues --   -0.51056  -0.50835  -0.50811  -0.50646  -0.50471
 Alpha  occ. eigenvalues --   -0.50345  -0.50186  -0.50113  -0.49996  -0.49796
 Alpha  occ. eigenvalues --   -0.49741  -0.49692  -0.49640  -0.49133  -0.49008
 Alpha  occ. eigenvalues --   -0.48955  -0.48562  -0.48507  -0.48422  -0.48345
 Alpha  occ. eigenvalues --   -0.48169  -0.48128  -0.47935  -0.47708  -0.47512
 Alpha  occ. eigenvalues --   -0.47065  -0.47020  -0.46743  -0.46735  -0.46598
 Alpha  occ. eigenvalues --   -0.46364  -0.46279  -0.46187  -0.46067  -0.45877
 Alpha  occ. eigenvalues --   -0.45720  -0.45709  -0.45445  -0.45332  -0.45151
 Alpha  occ. eigenvalues --   -0.45098  -0.45000  -0.44867  -0.44650  -0.44522
 Alpha  occ. eigenvalues --   -0.44243  -0.44210  -0.44136  -0.43828  -0.43744
 Alpha  occ. eigenvalues --   -0.43649  -0.43619  -0.43373  -0.43196  -0.43061
 Alpha  occ. eigenvalues --   -0.42857  -0.42717  -0.42498  -0.42390  -0.42205
 Alpha  occ. eigenvalues --   -0.42138  -0.42106  -0.41825  -0.41699  -0.41239
 Alpha  occ. eigenvalues --   -0.40120  -0.40076  -0.39872  -0.39766  -0.39519
 Alpha  occ. eigenvalues --   -0.39513  -0.39048  -0.39033  -0.38864  -0.38545
 Alpha  occ. eigenvalues --   -0.38500  -0.38215  -0.36501  -0.36273  -0.36079
 Alpha  occ. eigenvalues --   -0.35857  -0.35601  -0.35290  -0.33801  -0.33561
 Alpha  occ. eigenvalues --   -0.33329  -0.32694  -0.32549  -0.32426  -0.32259
 Alpha  occ. eigenvalues --   -0.32018  -0.31638  -0.31286  -0.26113  -0.25578
 Alpha  occ. eigenvalues --   -0.23036  -0.22717
 Alpha virt. eigenvalues --   -0.07206  -0.06748   0.00240   0.00418   0.02042
 Alpha virt. eigenvalues --    0.02279   0.04217   0.04453   0.05704   0.06236
 Alpha virt. eigenvalues --    0.07580   0.07666   0.07974   0.08177   0.08301

 Mulliken charges:
               1
     1  Mg   0.985722
     2  C    0.012897
     3  C   -0.095081
     4  C   -0.062691
     5  C   -0.128343
     6  N   -0.378408
     7  C   -0.008163
     8  C   -0.043377
     9  C   -0.122172
    10  C    0.058031
    11  C    0.021126
    12  C    0.005225
    13  C   -0.092517
    14  H    0.043988
    15  N   -0.389512
    16  C    0.163943
    17  C   -0.155186
    18  C   -0.073956
    19  C    0.100123
    20  C    0.064613
    21  C    0.052877
    22  O   -0.275104
    23  C   -0.022179
    24  N   -0.392008
    25  C    0.057904
    26  C   -0.092141
    27  C   -0.027202
    28  C    0.109049
    29  C    0.009085
    30  C   -0.008416
    31  C   -0.062899
    32  N   -0.527637
    33  C    0.189928
    34  C   -0.191420
    35  C   -0.054972
    36  C    0.141549
    37  C    0.072723
    38  C    0.153212
    39  O   -0.183143
    40  C   -0.107050
    41  C    0.224258
    42  O   -0.229414
    43  O   -0.358956
    44  C    0.140695
    45  H   -0.003165
    46  H    0.016971
    47  H   -0.017128
    48  H    0.024965
    49  H    0.035199
    50  H    0.042986
    51  H    0.049336
    52  H    0.037261
    53  H    0.035504
    54  H    0.041277
    55  H    0.043932
    56  H    0.060535
    57  H    0.073578
    58  H    0.035555
    59  H    0.031823
    60  H    0.066668
    61  H    0.058805
    62  H    0.050416
    63  H    0.055841
    64  H    0.035165
    65  H    0.060721
    66  H    0.037022
    67  H    0.041124
    68  H    0.033218
    69  H    0.028089
    70  H    0.043587
    71  H    0.022244
    72  H    0.037646
    73  H    0.026827
    74  H    0.061580
    75  H    0.068159
    76  H    0.069023
    77  H    0.070703
    78  H    0.059290
    79  H    0.040239
    80  Mg   0.972766
    81  C    0.036421
    82  C   -0.076657
    83  C   -0.083402
    84  C   -0.099820
    85  N   -0.274896
    86  C   -0.097092
    87  C   -0.014319
    88  C   -0.137572
    89  C    0.065950
    90  C    0.000620
    91  C    0.023782
    92  C   -0.131719
    93  H    0.035446
    94  N   -0.532070
    95  C    0.160545
    96  C   -0.146745
    97  C   -0.100009
    98  C    0.147666
    99  C    0.050190
   100  C    0.084704
   101  O   -0.192495
   102  C   -0.045198
   103  N   -0.332440
   104  C    0.040099
   105  C   -0.054348
   106  C   -0.067568
   107  C    0.054671
   108  C    0.016516
   109  C   -0.022621
   110  C   -0.039195
   111  N   -0.427615
   112  C    0.163457
   113  C   -0.180299
   114  C    0.016159
   115  C    0.116666
   116  C    0.057320
   117  C    0.085862
   118  O   -0.253913
   119  C   -0.075424
   120  C    0.267967
   121  O   -0.261869
   122  O   -0.367085
   123  C    0.144947
   124  H   -0.003129
   125  H    0.012790
   126  H   -0.005806
   127  H    0.049181
   128  H    0.040130
   129  H    0.048257
   130  H    0.038359
   131  H    0.039775
   132  H    0.016198
   133  H    0.039185
   134  H    0.057470
   135  H    0.064512
   136  H    0.067877
   137  H    0.043782
   138  H    0.042543
   139  H    0.070790
   140  H    0.053264
   141  H    0.049694
   142  H    0.038223
   143  H    0.035581
   144  H    0.043585
   145  H    0.034244
   146  H    0.050524
   147  H    0.029002
   148  H    0.031895
   149  H    0.024413
   150  H    0.026544
   151  H    0.050645
   152  H    0.038316
   153  H    0.050726
   154  H    0.057911
   155  H    0.062864
   156  H    0.068402
   157  H    0.056099
   158  H    0.048774
 Sum of Mulliken charges =  -0.00000

 Dipole moment (field-independent basis, Debye):
    X=              3.4498    Y=             -0.0272    Z=              7.8866  Tot=              8.6082
 Quadrupole moment (field-independent basis, Debye-Ang):
   XX=           -421.2524   YY=           -500.1507   ZZ=           -503.7146
   XY=             36.1803   XZ=             -1.2472   YZ=             48.1303

 Normal termination of Gaussian 16 at Mon Sep 20 00:48:06 2021.
