 Gaussian 16, Revision A.03,
 Gaussian 16:  ES64L-G16RevA.03 25-Dec-2016

 --------------------------------
 #p wB97XD/Def2SVP td=(nstates=5)
 --------------------------------

 --------------------------------
 TDDFT excited states in gaussian
 --------------------------------
 Symbolic Z-matrix:
 Charge =  0 Multiplicity = 1

                         Standard orientation:
 ---------------------------------------------------------------------
 Center     Atomic      Atomic             Coordinates (Angstroms)
 Number     Number       Type             X           Y           Z
 ---------------------------------------------------------------------
      1         12           0       26.173493    0.346454    0.286665
      2          6           0       24.576564   -2.234104   -1.241745
      3          6           0       26.082294    2.350659   -2.520097
      4          6           0       27.967889    2.725485    1.972998
      5          6           0       26.722046   -1.808542    3.140780
      6          7           0       25.600951   -0.010317   -1.695293
      7          6           0       24.711797   -1.075160   -2.063260
      8          6           0       24.071396   -0.802155   -3.365219
      9          6           0       24.912015    0.455060   -3.870171
     10          6           0       25.601475    1.004666   -2.641282
     11          6           0       25.986757    0.082409   -5.009579
     12          6           0       22.516390   -0.691166   -3.318176
     13          6           0       21.791784   -1.418634   -4.404548
     14          1           0       22.446219   -1.353547   -5.840641
     15          7           0       26.859950    2.305769   -0.184960
     16          6           0       26.706677    2.887091   -1.408454
     17          6           0       27.276207    4.188963   -1.337724
     18          6           0       27.776889    4.397710    0.006508
     19          6           0       27.486689    3.119216    0.738013
     20          6           0       27.385821    5.106886   -2.574824
     21          6           0       28.414752    5.565844    0.691299
     22          8           0       28.909085    5.617208    1.823138
     23          6           0       28.403814    6.910281   -0.130160
     24          7           0       27.322395    0.425633    2.283190
     25          6           0       27.858003    1.529564    2.741416
     26          6           0       28.218042    1.431548    4.222430
     27          6           0       27.811157   -0.027276    4.576932
     28          6           0       27.258875   -0.527068    3.243440
     29          6           0       29.771549    1.734099    4.532197
     30          6           0       26.704274    0.013642    5.720767
     31          6           0       25.293594    0.591112    5.446860
     32          7           0       25.887762   -1.675928    0.796110
     33          6           0       26.110656   -2.352203    1.980671
     34          6           0       25.470811   -3.675040    1.830707
     35          6           0       24.837441   -3.729020    0.625523
     36          6           0       25.134723   -2.452979    0.023033
     37          6           0       25.650651   -4.802558    2.787862
     38          6           0       24.021980   -4.525130   -0.291396
     39          8           0       23.578066   -5.657028   -0.195585
     40          6           0       23.843314   -3.557414   -1.542379
     41          6           0       24.489295   -4.215033   -2.696462
     42          8           0       25.663618   -4.612099   -2.792766
     43          8           0       23.485513   -4.297031   -3.640152
     44          6           0       23.931412   -4.754093   -4.962844
     45          1           0       26.027371    3.034973   -3.369130
     46          1           0       28.430660    3.569472    2.490003
     47          1           0       26.809565   -2.446633    4.021905
     48          1           0       24.300599   -1.682502   -3.967020
     49          1           0       24.208777    1.196501   -4.248190
     50          1           0       25.827409   -0.898969   -5.456350
     51          1           0       26.940198   -0.035582   -4.494862
     52          1           0       25.965032    0.949527   -5.668376
     53          1           0       22.221317    0.356176   -3.382895
     54          1           0       22.275951   -1.137600   -2.353403
     55          1           0       20.798921   -1.015048   -4.599220
     56          1           0       21.529652   -2.472489   -4.309854
     57          1           0       26.464528    5.601406   -2.882450
     58          1           0       27.798585    4.433251   -3.325601
     59          1           0       28.012242    5.981597   -2.401273
     60          1           0       29.133809    6.837120   -0.936334
     61          1           0       28.468116    7.736331    0.577847
     62          1           0       27.433487    7.147201   -0.567031
     63          1           0       27.586178    2.124508    4.777486
     64          1           0       28.639146   -0.635614    4.940999
     65          1           0       29.795280    2.721902    4.993791
     66          1           0       30.340639    1.765826    3.602532
     67          1           0       30.318044    1.096959    5.226366
     68          1           0       27.021536    0.480731    6.652974
     69          1           0       26.540946   -1.051979    5.884890
     70          1           0       24.654933   -0.284129    5.566690
     71          1           0       25.213259    1.058489    4.466230
     72          1           0       24.987585    1.363554    6.152365
     73          1           0       24.697764   -5.326193    2.717393
     74          1           0       25.861333   -4.467670    3.803692
     75          1           0       26.326968   -5.517056    2.320442
     76          1           0       22.760850   -3.615745   -1.653155
     77          1           0       22.986633   -4.855364   -5.497706
     78          1           0       24.343986   -5.751178   -4.808855
     79          1           0       24.717541   -4.160463   -5.429889
     80         12           0      -26.198564   -0.546107   -0.379666
     81          6           0      -25.176376    2.749514    0.016627
     82          6           0      -23.063650   -1.594766    0.897511
     83          6           0      -27.487062   -3.544346    0.337612
     84          6           0      -29.455482    0.668279   -0.968237
     85          7           0      -24.412746    0.523296    0.724563
     86          6           0      -24.179616    1.856792    0.488397
     87          6           0      -22.819570    2.267906    0.958328
     88          6           0      -22.056910    0.864565    0.995262
     89          6           0      -23.226151   -0.178200    0.898828
     90          6           0      -20.943450    0.636725   -0.147092
     91          6           0      -22.923139    3.119464    2.326379
     92          6           0      -21.828441    4.033619    2.554786
     93          1           0      -21.118597    3.822474    3.908908
     94          7           0      -25.379770   -2.368650    0.315900
     95          6           0      -24.057484   -2.598753    0.788799
     96          6           0      -23.950395   -4.010159    1.117670
     97          6           0      -25.216691   -4.620492    0.946290
     98          6           0      -26.088975   -3.514008    0.427127
     99          6           0      -22.718108   -4.589361    1.705975
    100          6           0      -25.537189   -6.131177    1.307466
    101          8           0      -24.607911   -6.807003    1.746432
    102          6           0      -26.818211   -6.818449    0.847341
    103          7           0      -28.189877   -1.243197   -0.240508
    104          6           0      -28.406439   -2.568311   -0.042933
    105          6           0      -30.012980   -2.950432    0.023694
    106          6           0      -30.633383   -1.618418   -0.618515
    107          6           0      -29.406288   -0.653542   -0.656243
    108          6           0      -30.451705   -4.220786   -0.798710
    109          6           0      -31.781959   -1.032568    0.204881
    110          6           0      -33.186140   -0.840313   -0.416526
    111          7           0      -27.067867    1.291372   -0.742734
    112          6           0      -28.369037    1.613535   -0.998779
    113          6           0      -28.455453    3.015810   -1.300443
    114          6           0      -27.175417    3.503052   -0.837858
    115          6           0      -26.405884    2.385001   -0.473558
    116          6           0      -29.695006    3.773614   -1.679249
    117          6           0      -26.431320    4.713985   -0.560759
    118          8           0      -26.663581    5.844104   -0.866170
    119          6           0      -25.006871    4.300472   -0.021104
    120          6           0      -23.831173    4.669493   -0.952444
    121          8           0      -23.784579    4.415615   -2.136902
    122          8           0      -22.881546    5.427610   -0.236885
    123          6           0      -21.809998    6.000075   -0.994535
    124          1           0      -22.056523   -1.855201    1.227299
    125          1           0      -27.992010   -4.408904    0.773136
    126          1           0      -30.476730    0.996716   -1.169833
    127          1           0      -22.245503    2.771256    0.179702
    128          1           0      -21.576632    0.768934    1.969731
    129          1           0      -20.011043    0.475536    0.393808
    130          1           0      -20.861826    1.478582   -0.833940
    131          1           0      -21.229940   -0.274603   -0.672775
    132          1           0      -22.907717    2.351580    3.099643
    133          1           0      -23.930654    3.527121    2.239437
    134          1           0      -22.258575    5.033551    2.512531
    135          1           0      -21.059762    3.893835    1.794774
    136          1           0      -21.870899   -3.909905    1.614521
    137          1           0      -22.414171   -5.469912    1.139427
    138          1           0      -22.847802   -4.801661    2.767465
    139          1           0      -27.721666   -6.418834    1.309044
    140          1           0      -26.713624   -7.881830    1.065196
    141          1           0      -26.866518   -6.717455   -0.236954
    142          1           0      -30.213818   -2.986989    1.094057
    143          1           0      -30.902731   -1.698597   -1.671891
    144          1           0      -30.776297   -5.005875   -0.116412
    145          1           0      -29.604561   -4.587147   -1.379800
    146          1           0      -31.271926   -3.904891   -1.444234
    147          1           0      -31.493262   -0.100912    0.690942
    148          1           0      -31.996628   -1.565889    1.130801
    149          1           0      -33.523294    0.181450   -0.593075
    150          1           0      -33.876150   -1.244881    0.324347
    151          1           0      -33.271704   -1.362952   -1.369980
    152          1           0      -29.368462    4.711313   -2.129586
    153          1           0      -30.224651    4.238498   -0.848305
    154          1           0      -30.419235    3.209857   -2.266681
    155          1           0      -24.917501    4.884587    0.895252
    156          1           0      -21.040862    6.058067   -0.223679
    157          1           0      -22.003101    7.040861   -1.253901
    158          1           0      -21.601217    5.406551   -1.883714
 ---------------------------------------------------------------------

 SCF Done:  E(RwB97XD) =  -4070.57889209     A.U. after   19 cycles

 Excitation energies and oscillator strengths:

 Excited State   1:      Singlet-A      1.6352 eV  758.21 nm  f=0.3714  <S**2>=0.000
     310 -> 316        0.17846
     311 -> 313        0.68584
     310 <- 316        0.11654
 This state for optimization and/or second-order correction.
 Total Energy, E(TD-HF/TD-DFT) =  -4070.51879856
 Copying the excited state density for this state as the 1-particle RhoCI density.

 Excited State   2:      Singlet-A      1.6460 eV  753.23 nm  f=0.3955  <S**2>=0.000
     309 -> 315       -0.19176
     312 -> 314        0.68144
     309 <- 315       -0.11817

 Excited State   3:      Singlet-A      2.1962 eV  564.55 nm  f=0.1045  <S**2>=0.000
     310 -> 313        0.63437
     311 -> 316       -0.29407

 Excited State   4:      Singlet-A      2.2139 eV  560.03 nm  f=0.0443  <S**2>=0.000
     309 -> 314        0.60811
     312 -> 315        0.34954

 Excited State   5:      Singlet-A      3.3902 eV  365.71 nm  f=0.0208  <S**2>=0.000
     305 -> 313        0.56079
     307 -> 313        0.12396
     308 -> 313       -0.35286
     311 -> 316        0.15551

 The electronic state is 1-A.
 Alpha  occ. eigenvalues --  -46.96159 -46.95615 -19.30882 -19.30358 -19.25668
 Alpha  occ. eigenvalues --  -19.25218 -19.24773 -19.24604 -19.24595 -19.23257
 Alpha  occ. eigenvalues --  -14.46938 -14.46916 -14.46802 -14.46626 -14.44845
 Alpha  occ. eigenvalues --  -14.44131 -14.44085 -14.43632 -10.43953 -10.43386
 Alpha  occ. eigenvalues --  -10.40428 -10.39753 -10.39440 -10.37986 -10.36084
 Alpha  occ. eigenvalues --  -10.35917 -10.35833 -10.35716 -10.35592 -10.35309
 Alpha  occ. eigenvalues --  -10.35190 -10.35128 -10.34910 -10.34538 -10.34464
 Alpha  occ. eigenvalues --  -10.34446 -10.34160 -10.33984 -10.33609 -10.33580
 Alpha  occ. eigenvalues --  -10.33466 -10.33363 -10.33071 -10.32799 -10.32722
 Alpha  occ. eigenvalues --  -10.32705 -10.32572 -10.32562 -10.32468 -10.32410
 Alpha  occ. eigenvalues --  -10.32355 -10.32265 -10.32190 -10.32111 -10.32034
 Alpha  occ. eigenvalues --  -10.32026 -10.32006 -10.31964 -10.31823 -10.31717
 Alpha  occ. eigenvalues --  -10.31695 -10.31670 -10.31551 -10.31510 -10.31443
 Alpha  occ. eigenvalues --  -10.31422 -10.31416 -10.30959 -10.30751 -10.30597
 Alpha  occ. eigenvalues --  -10.30505 -10.30483 -10.30454 -10.30374 -10.30369
 Alpha  occ. eigenvalues --  -10.30360 -10.30220 -10.29772 -10.29736 -10.29675
 Alpha  occ. eigenvalues --  -10.29537 -10.29438 -10.29436 -10.29323 -10.28756
 Alpha  occ. eigenvalues --  -10.28642  -3.22043  -3.21473  -1.95574  -1.95217
 Alpha  occ. eigenvalues --   -1.95062  -1.94974  -1.94584  -1.94442  -1.18240
 Alpha  occ. eigenvalues --   -1.18141  -1.12999  -1.12565  -1.12438  -1.11883
 Alpha  occ. eigenvalues --   -1.10934  -1.09668  -1.07147  -1.06906  -1.05797
 Alpha  occ. eigenvalues --   -1.04980  -1.04971  -1.04395  -1.03748  -1.03644
 Alpha  occ. eigenvalues --   -0.94349  -0.94202  -0.91112  -0.91052  -0.90682
 Alpha  occ. eigenvalues --   -0.90278  -0.90080  -0.89918  -0.89219  -0.88862
 Alpha  occ. eigenvalues --   -0.88815  -0.88396  -0.88247  -0.87775  -0.86597
 Alpha  occ. eigenvalues --   -0.86007  -0.85295  -0.85250  -0.84629  -0.84310
 Alpha  occ. eigenvalues --   -0.84172  -0.83489  -0.83197  -0.83111  -0.82235
 Alpha  occ. eigenvalues --   -0.81947  -0.80066  -0.79763  -0.79310  -0.79299
 Alpha  occ. eigenvalues --   -0.79150  -0.78702  -0.78063  -0.77744  -0.76933
 Alpha  occ. eigenvalues --   -0.76904  -0.74663  -0.74461  -0.74186  -0.73342
 Alpha  occ. eigenvalues --   -0.71808  -0.71237  -0.71151  -0.70423  -0.70339
 Alpha  occ. eigenvalues --   -0.69464  -0.69418  -0.68489  -0.67859  -0.67274
 Alpha  occ. eigenvalues --   -0.66965  -0.66845  -0.66691  -0.66465  -0.66386
 Alpha  occ. eigenvalues --   -0.66110  -0.64807  -0.64525  -0.62342  -0.61709
 Alpha  occ. eigenvalues --   -0.61447  -0.61401  -0.60994  -0.60926  -0.60787
 Alpha  occ. eigenvalues --   -0.60537  -0.59990  -0.59950  -0.59502  -0.59466
 Alpha  occ. eigenvalues --   -0.58343  -0.57923  -0.57493  -0.57296  -0.56961
 Alpha  occ. eigenvalues --   -0.56954  -0.56923  -0.56700  -0.56385  -0.55937
 Alpha  occ. eigenvalues --   -0.55476  -0.55193  -0.55169  -0.55138  -0.54688
 Alpha  occ. eigenvalues --   -0.54511  -0.54423  -0.54324  -0.54216  -0.54103
 Alpha  occ. eigenvalues --   -0.54050  -0.53926  -0.53704  -0.53600  -0.53470
 Alpha  occ. eigenvalues --   -0.53004  -0.52965  -0.52856  -0.52718  -0.52168
 Alpha  occ. eigenvalues --   -0.52023  -0.51842  -0.51691  -0.51591  -0.51589
 Alpha  occ. eigenvalues --   -0.51243  -0.51159  -0.51056  -0.50909  -0.50722
 Alpha  occ. eigenvalues --   -0.50509  -0.50484  -0.50414  -0.50377  -0.50101
 Alpha  occ. eigenvalues --   -0.49935  -0.49808  -0.49635  -0.49327  -0.49233
 Alpha  occ. eigenvalues --   -0.49193  -0.49003  -0.48932  -0.48820  -0.48720
 Alpha  occ. eigenvalues --   -0.48363  -0.48143  -0.48088  -0.47893  -0.47790
 Alpha  occ. eigenvalues --   -0.47585  -0.47529  -0.47181  -0.47133  -0.46892
 Alpha  occ. eigenvalues --   -0.46747  -0.46718  -0.46505  -0.46439  -0.46033
 Alpha  occ. eigenvalues --   -0.45906  -0.45871  -0.45460  -0.45436  -0.45363
 Alpha  occ. eigenvalues --   -0.45186  -0.45083  -0.44959  -0.44892  -0.44747
 Alpha  occ. eigenvalues --   -0.44732  -0.44628  -0.44435  -0.44319  -0.44183
 Alpha  occ. eigenvalues --   -0.44083  -0.44028  -0.43888  -0.43626  -0.43459
 Alpha  occ. eigenvalues --   -0.43394  -0.42960  -0.42893  -0.42708  -0.42422
 Alpha  occ. eigenvalues --   -0.42369  -0.41718  -0.41704  -0.41419  -0.40620
 Alpha  occ. eigenvalues --   -0.40186  -0.39864  -0.39703  -0.39541  -0.39116
 Alpha  occ. eigenvalues --   -0.39048  -0.38731  -0.38685  -0.38370  -0.38288
 Alpha  occ. eigenvalues --   -0.38245  -0.37577  -0.36757  -0.36642  -0.36252
 Alpha  occ. eigenvalues --   -0.36218  -0.35733  -0.35544  -0.33591  -0.33459
 Alpha  occ. eigenvalues --   -0.33440  -0.33142  -0.32983  -0.32541  -0.32439
 Alpha  occ. eigenvalues --   -0.32105  -0.31948  -0.31303  -0.26366  -0.26266
 Alpha  occ. eigenvalues --   -0.22990  -0.22779
 Alpha virt. eigenvalues --   -0.07129  -0.06849  -0.00481   0.00246   0.01788
 Alpha virt. eigenvalues --    0.02507   0.04210   0.04249   0.04488   0.05041
 Alpha virt. eigenvalues --    0.06721   0.06921   0.07080   0.07429   0.07788

 Mulliken charges:
               1
     1  Mg   0.932505
     2  C   -0.005126
     3  C   -0.105976
     4  C   -0.036985
     5  C   -0.077715
     6  N   -0.442480
     7  C   -0.001090
     8  C   -0.039712
     9  C   -0.136009
    10  C    0.130653
    11  C    0.033369
    12  C    0.069971
    13  C   -0.138378
    14  H    0.000483
    15  N   -0.460715
    16  C    0.169121
    17  C   -0.150486
    18  C   -0.078118
    19  C    0.134028
    20  C    0.056609
    21  C    0.061916
    22  O   -0.237559
    23  C   -0.054824
    24  N   -0.260491
    25  C    0.017930
    26  C   -0.075329
    27  C   -0.047584
    28  C    0.027162
    29  C   -0.001707
    30  C   -0.063203
    31  C   -0.056304
    32  N   -0.406450
    33  C    0.141267
    34  C   -0.240934
    35  C   -0.006254
    36  C    0.119942
    37  C    0.082667
    38  C    0.139130
    39  O   -0.194703
    40  C   -0.109455
    41  C    0.275687
    42  O   -0.259075
    43  O   -0.369967
    44  C    0.139907
    45  H    0.001492
    46  H    0.024241
    47  H    0.003048
    48  H    0.030727
    49  H    0.027173
    50  H    0.043607
    51  H    0.045665
    52  H    0.050285
    53  H    0.039586
    54  H    0.041754
    55  H    0.043894
    56  H    0.061549
    57  H    0.055371
    58  H    0.062222
    59  H    0.016791
    60  H    0.079304
    61  H    0.051775
    62  H    0.041998
    63  H    0.050157
    64  H    0.039078
    65  H    0.042698
    66  H    0.048641
    67  H    0.040735
    68  H    0.041665
    69  H    0.020572
    70  H    0.044565
    71  H    0.039785
    72  H    0.038688
    73  H    0.047128
    74  H    0.040299
    75  H    0.066250
    76  H    0.068456
    77  H    0.059484
    78  H    0.056221
    79  H    0.059376
    80  Mg   0.961018
    81  C   -0.078270
    82  C   -0.075696
    83  C   -0.094091
    84  C   -0.091037
    85  N   -0.325364
    86  C   -0.039448
    87  C   -0.084185
    88  C   -0.134212
    89  C    0.034809
    90  C    0.014960
    91  C    0.052850
    92  C   -0.094365
    93  H    0.019857
    94  N   -0.466713
    95  C    0.174760
    96  C   -0.161858
    97  C   -0.102699
    98  C    0.203873
    99  C    0.095363
   100  C    0.075971
   101  O   -0.234436
   102  C   -0.028112
   103  N   -0.403917
   104  C    0.073782
   105  C   -0.123958
   106  C   -0.024129
   107  C    0.034564
   108  C    0.024323
   109  C   -0.029736
   110  C   -0.054239
   111  N   -0.416172
   112  C    0.139577
   113  C   -0.160954
   114  C   -0.085608
   115  C    0.221528
   116  C    0.066542
   117  C    0.108974
   118  O   -0.181762
   119  C   -0.079643
   120  C    0.276221
   121  O   -0.220945
   122  O   -0.387223
   123  C    0.130570
   124  H    0.011415
   125  H   -0.019691
   126  H   -0.007315
   127  H    0.027301
   128  H    0.037133
   129  H    0.043849
   130  H    0.052424
   131  H    0.042178
   132  H    0.036919
   133  H    0.037030
   134  H    0.063454
   135  H    0.049688
   136  H    0.010721
   137  H    0.056801
   138  H    0.066381
   139  H    0.071082
   140  H    0.057651
   141  H    0.067761
   142  H    0.055951
   143  H    0.043572
   144  H    0.039943
   145  H    0.046122
   146  H    0.045235
   147  H    0.031549
   148  H    0.018918
   149  H    0.040057
   150  H    0.034079
   151  H    0.032259
   152  H    0.049865
   153  H    0.043576
   154  H    0.043568
   155  H    0.072498
   156  H    0.046035
   157  H    0.054196
   158  H    0.067027
 Sum of Mulliken charges =  -0.00000

 Dipole moment (field-independent basis, Debye):
    X=             -3.2036    Y=              1.0566    Z=             -1.3479  Tot=              3.6327
 Quadrupole moment (field-independent basis, Debye-Ang):
   XX=           -521.6004   YY=           -566.5606   ZZ=           -483.8131
   XY=            187.2125   XZ=            -39.9901   YZ=              1.0167

 Normal termination of Gaussian 16 at Sat Sep 18 06:29:17 2021.
