 Gaussian 16, Revision A.03,
 Gaussian 16:  ES64L-G16RevA.03 25-Dec-2016

 --------------------------------
 #p wB97XD/Def2SVP td=(nstates=5)
 --------------------------------

 --------------------------------
 TDDFT excited states in gaussian
 --------------------------------
 Symbolic Z-matrix:
 Charge =  0 Multiplicity = 1

                         Standard orientation:
 ---------------------------------------------------------------------
 Center     Atomic      Atomic             Coordinates (Angstroms)
 Number     Number       Type             X           Y           Z
 ---------------------------------------------------------------------
      1         12           0       13.530536   -0.684373    0.121859
      2          6           0       12.056415    2.025921   -1.692938
      3          6           0       16.091702    1.429539    0.905996
      4          6           0       15.067988   -3.174794    1.342786
      5          6           0       11.488154   -2.830198   -1.713834
      6          7           0       13.911301    1.436323   -0.386386
      7          6           0       13.238781    2.379270   -1.038873
      8          6           0       13.869690    3.796942   -0.899109
      9          6           0       15.371161    3.373006   -0.570690
     10          6           0       15.108855    2.013399    0.052678
     11          6           0       16.236729    3.185254   -1.812481
     12          6           0       13.235988    4.616603    0.274905
     13          6           0       13.559219    6.113558    0.275691
     14          1           0       12.539132    7.050012    0.722709
     15          7           0       15.045694   -0.760010    1.387334
     16          6           0       15.981692    0.198550    1.588222
     17          6           0       16.891126   -0.331150    2.626985
     18          6           0       16.518456   -1.751288    2.876827
     19          6           0       15.533488   -1.962700    1.847011
     20          6           0       17.941730    0.497042    3.300838
     21          6           0       16.984798   -2.761205    3.877189
     22          8           0       16.700358   -4.003306    3.773008
     23          6           0       17.868697   -2.265698    4.947813
     24          7           0       13.476646   -2.729439   -0.293394
     25          6           0       14.199491   -3.598125    0.422053
     26          6           0       13.790426   -5.013045    0.138141
     27          6           0       12.463759   -4.920783   -0.745711
     28          6           0       12.384026   -3.381103   -0.891651
     29          6           0       14.829583   -5.876888   -0.589830
     30          6           0       11.216852   -5.677722   -0.223517
     31          6           0       10.720658   -5.031727    1.050680
     32          7           0       11.907811   -0.465247   -1.302849
     33          6           0       11.217059   -1.494407   -1.958871
     34          6           0       10.284114   -0.854225   -2.904307
     35          6           0       10.510202    0.511370   -2.743442
     36          6           0       11.538841    0.710753   -1.778849
     37          6           0        9.417421   -1.531145   -3.807112
     38          6           0       10.139347    1.847703   -3.179949
     39          8           0        9.260866    2.308872   -3.910078
     40          6           0       11.210214    2.877360   -2.606469
     41          6           0       10.454607    4.026480   -1.996641
     42          8           0        9.756739    3.862996   -0.975065
     43          8           0       10.856919    5.174054   -2.563880
     44          6           0       10.167094    6.356857   -1.983128
     45          1           0       17.056806    1.927603    1.017570
     46          1           0       15.495028   -4.060187    1.818344
     47          1           0       10.759856   -3.433408   -2.258971
     48          1           0       13.842922    4.397965   -1.808218
     49          1           0       15.832712    4.040645    0.156600
     50          1           0       15.643651    3.248178   -2.724742
     51          1           0       16.677599    2.193201   -1.712693
     52          1           0       17.072156    3.885852   -1.811873
     53          1           0       13.707889    4.324412    1.212985
     54          1           0       12.154134    4.481356    0.299920
     55          1           0       13.977271    6.431550   -0.679831
     56          1           0       14.360139    6.289654    0.993827
     57          1           0       18.088248    1.449195    2.792426
     58          1           0       18.889173   -0.026646    3.175087
     59          1           0       17.736504    0.635873    4.362412
     60          1           0       18.761535   -1.826053    4.502727
     61          1           0       18.028752   -3.108236    5.619648
     62          1           0       17.362125   -1.459371    5.479010
     63          1           0       13.568713   -5.548558    1.060364
     64          1           0       12.613432   -5.316352   -1.750597
     65          1           0       15.097823   -6.786108   -0.051248
     66          1           0       15.708034   -5.260310   -0.778102
     67          1           0       14.551050   -6.171847   -1.601183
     68          1           0       11.472831   -6.708741    0.018187
     69          1           0       10.395220   -5.699125   -0.939559
     70          1           0       11.351258   -5.484752    1.814842
     71          1           0        9.670603   -5.274835    1.216493
     72          1           0       10.919725   -3.959899    1.057288
     73          1           0        8.459777   -1.013101   -3.756926
     74          1           0        9.313089   -2.583084   -3.542267
     75          1           0        9.952090   -1.387968   -4.745987
     76          1           0       11.824558    3.192627   -3.449268
     77          1           0        9.697421    6.891861   -2.808605
     78          1           0       10.911749    6.890843   -1.392576
     79          1           0        9.301249    6.148890   -1.353524
     80         12           0      -13.559635   -0.671263   -0.178783
     81          6           0      -11.910555    2.375864    0.742367
     82          6           0      -16.459135    1.155512   -0.562609
     83          6           0      -15.146031   -3.519390   -0.394946
     84          6           0      -10.571923   -2.296875    0.485593
     85          7           0      -14.195625    1.543833    0.344812
     86          6           0      -13.291169    2.544633    0.576063
     87          6           0      -13.984322    3.921280    0.392268
     88          6           0      -15.479660    3.538584    0.027824
     89          6           0      -15.438682    1.969465   -0.062475
     90          6           0      -16.626783    3.999957    1.022026
     91          6           0      -13.352545    4.839934   -0.687427
     92          6           0      -13.154934    6.274546   -0.348465
     93          1           0      -13.913779    7.004119    0.825020
     94          7           0      -15.584487   -1.168473   -0.440047
     95          6           0      -16.633739   -0.292735   -0.717806
     96          6           0      -17.879144   -1.071618   -0.857102
     97          6           0      -17.462867   -2.456763   -0.921155
     98          6           0      -16.023107   -2.436205   -0.573098
     99          6           0      -19.261597   -0.508565   -0.991307
    100          6           0      -18.263231   -3.744660   -1.227064
    101          8           0      -17.759627   -4.839832   -1.554590
    102          6           0      -19.732695   -3.630174   -1.302193
    103          7           0      -12.951387   -2.556124    0.075180
    104          6           0      -13.864917   -3.583585   -0.011652
    105          6           0      -13.154623   -4.965387   -0.034908
    106          6           0      -11.629597   -4.514249   -0.122446
    107          6           0      -11.703336   -3.021299    0.146984
    108          6           0      -13.448531   -5.977804    1.146151
    109          6           0      -10.898004   -4.798206   -1.424746
    110          6           0       -9.738653   -5.812268   -1.331734
    111          7           0      -11.578262   -0.103436    0.290883
    112          6           0      -10.480287   -0.886243    0.558843
    113          6           0       -9.350598   -0.042465    0.970079
    114          6           0       -9.878034    1.236520    0.989601
    115          6           0      -11.226304    1.157005    0.575184
    116          6           0       -7.967999   -0.445142    1.364515
    117          6           0       -9.503955    2.582401    1.237339
    118          8           0       -8.387528    3.120454    1.485559
    119          6           0      -10.747843    3.353908    1.102103
    120          6           0      -10.974775    4.192076    2.331077
    121          8           0      -11.276310    3.777322    3.397702
    122          8           0      -10.854878    5.484352    2.027574
    123          6           0      -10.721826    6.439480    3.074728
    124          1           0      -17.422005    1.653628   -0.695050
    125          1           0      -15.529966   -4.538332   -0.487514
    126          1           0       -9.659783   -2.825499    0.767345
    127          1           0      -13.920548    4.416920    1.361673
    128          1           0      -15.730839    3.924575   -0.959657
    129          1           0      -16.313656    4.683010    1.811145
    130          1           0      -16.963588    3.104810    1.546906
    131          1           0      -17.469354    4.412472    0.466214
    132          1           0      -13.940119    4.880793   -1.605334
    133          1           0      -12.353512    4.519313   -0.981381
    134          1           0      -13.458287    6.896049   -1.191513
    135          1           0      -12.088906    6.420664   -0.176509
    136          1           0      -19.904616   -0.943076   -0.226223
    137          1           0      -19.623320   -0.819540   -1.971389
    138          1           0      -19.246529    0.579313   -1.065247
    139          1           0      -20.088584   -3.333206   -0.315607
    140          1           0      -20.090984   -4.644144   -1.478287
    141          1           0      -20.054566   -3.031404   -2.153800
    142          1           0      -13.433845   -5.416626   -0.987557
    143          1           0      -11.102809   -5.037753    0.675325
    144          1           0      -14.159019   -5.540293    1.846587
    145          1           0      -12.542886   -6.354272    1.623278
    146          1           0      -13.876559   -6.874954    0.698636
    147          1           0      -10.580801   -3.932341   -2.006091
    148          1           0      -11.619796   -5.271940   -2.089264
    149          1           0       -8.818353   -5.560702   -1.858481
    150          1           0      -10.039553   -6.680754   -1.918262
    151          1           0       -9.429573   -6.080081   -0.322267
    152          1           0       -7.714754   -1.453301    1.035267
    153          1           0       -7.904346   -0.548373    2.447651
    154          1           0       -7.311788    0.370628    1.061440
    155          1           0      -10.603254    3.999443    0.236199
    156          1           0       -9.707627    6.326928    3.460507
    157          1           0      -11.365259    6.186566    3.917551
    158          1           0      -10.817833    7.456942    2.694781
 ---------------------------------------------------------------------

 SCF Done:  E(RwB97XD) =  -4070.60918046     A.U. after   19 cycles

 Excitation energies and oscillator strengths:

 Excited State   1:      Singlet-A      1.6215 eV  764.64 nm  f=0.4248  <S**2>=0.000
     310 -> 315       -0.18152
     312 -> 314        0.68239
     310 <- 315       -0.11437
 This state for optimization and/or second-order correction.
 Total Energy, E(TD-HF/TD-DFT) =  -4070.54959215
 Copying the excited state density for this state as the 1-particle RhoCI density.

 Excited State   2:      Singlet-A      1.6717 eV  741.65 nm  f=0.3892  <S**2>=0.000
     309 -> 316        0.18091
     311 -> 313        0.68365
     309 <- 316        0.11392

 Excited State   3:      Singlet-A      2.1385 eV  579.77 nm  f=0.0893  <S**2>=0.000
     310 -> 314        0.63814
     312 -> 315        0.28192

 Excited State   4:      Singlet-A      2.1580 eV  574.55 nm  f=0.1295  <S**2>=0.000
     309 -> 313        0.64737
     311 -> 316       -0.26957

 Excited State   5:      Singlet-A      3.3015 eV  375.54 nm  f=0.0075  <S**2>=0.000
     306 -> 314        0.44218
     308 -> 314        0.48874
     312 -> 315       -0.16975

 The electronic state is 1-A.
 Alpha  occ. eigenvalues --  -46.95178 -46.94085 -19.31446 -19.30164 -19.24534
 Alpha  occ. eigenvalues --  -19.24104 -19.23938 -19.23846 -19.23450 -19.23178
 Alpha  occ. eigenvalues --  -14.47001 -14.46580 -14.46147 -14.46010 -14.44258
 Alpha  occ. eigenvalues --  -14.44027 -14.43978 -14.43120 -10.42884 -10.42833
 Alpha  occ. eigenvalues --  -10.39391 -10.38801 -10.38709 -10.38366 -10.35706
 Alpha  occ. eigenvalues --  -10.35410 -10.35376 -10.35174 -10.35007 -10.34866
 Alpha  occ. eigenvalues --  -10.34861 -10.34604 -10.34568 -10.34503 -10.34157
 Alpha  occ. eigenvalues --  -10.34042 -10.33854 -10.33787 -10.33583 -10.33396
 Alpha  occ. eigenvalues --  -10.33309 -10.33204 -10.32917 -10.32771 -10.32731
 Alpha  occ. eigenvalues --  -10.32473 -10.32418 -10.32290 -10.32289 -10.32236
 Alpha  occ. eigenvalues --  -10.32219 -10.32104 -10.32097 -10.31826 -10.31748
 Alpha  occ. eigenvalues --  -10.31669 -10.31532 -10.31513 -10.31492 -10.31469
 Alpha  occ. eigenvalues --  -10.31437 -10.31388 -10.31179 -10.31143 -10.31004
 Alpha  occ. eigenvalues --  -10.30798 -10.30715 -10.30647 -10.30587 -10.30325
 Alpha  occ. eigenvalues --  -10.30237 -10.30076 -10.30047 -10.30031 -10.29953
 Alpha  occ. eigenvalues --  -10.29691 -10.29670 -10.29639 -10.29333 -10.29241
 Alpha  occ. eigenvalues --  -10.29237 -10.29202 -10.29085 -10.28825 -10.28765
 Alpha  occ. eigenvalues --  -10.28439  -3.21198  -3.20244  -1.94769  -1.94333
 Alpha  occ. eigenvalues --   -1.94167  -1.93821  -1.93387  -1.93225  -1.20754
 Alpha  occ. eigenvalues --   -1.18769  -1.11854  -1.10806  -1.10388  -1.10294
 Alpha  occ. eigenvalues --   -1.09393  -1.08782  -1.06839  -1.06526  -1.05734
 Alpha  occ. eigenvalues --   -1.05728  -1.05216  -1.04437  -1.04395  -1.03698
 Alpha  occ. eigenvalues --   -0.95564  -0.93884  -0.91371  -0.91005  -0.90961
 Alpha  occ. eigenvalues --   -0.90337  -0.90173  -0.90130  -0.89747  -0.89662
 Alpha  occ. eigenvalues --   -0.89547  -0.89188  -0.88698  -0.88136  -0.86832
 Alpha  occ. eigenvalues --   -0.86448  -0.85774  -0.85329  -0.84856  -0.84517
 Alpha  occ. eigenvalues --   -0.84446  -0.83894  -0.83584  -0.83473  -0.82509
 Alpha  occ. eigenvalues --   -0.82403  -0.80728  -0.80174  -0.79592  -0.79098
 Alpha  occ. eigenvalues --   -0.79019  -0.78803  -0.78205  -0.77809  -0.77049
 Alpha  occ. eigenvalues --   -0.76771  -0.75117  -0.74709  -0.73586  -0.73401
 Alpha  occ. eigenvalues --   -0.71757  -0.71310  -0.70864  -0.70786  -0.69603
 Alpha  occ. eigenvalues --   -0.69365  -0.69127  -0.68139  -0.67779  -0.67174
 Alpha  occ. eigenvalues --   -0.66796  -0.66793  -0.66754  -0.66548  -0.66394
 Alpha  occ. eigenvalues --   -0.66183  -0.64957  -0.64230  -0.62394  -0.62238
 Alpha  occ. eigenvalues --   -0.61810  -0.61713  -0.61233  -0.61063  -0.60927
 Alpha  occ. eigenvalues --   -0.60449  -0.60121  -0.59665  -0.59499  -0.59225
 Alpha  occ. eigenvalues --   -0.58357  -0.58250  -0.58014  -0.57808  -0.57449
 Alpha  occ. eigenvalues --   -0.57217  -0.57055  -0.56826  -0.56421  -0.55768
 Alpha  occ. eigenvalues --   -0.55631  -0.55263  -0.55199  -0.55153  -0.55118
 Alpha  occ. eigenvalues --   -0.54852  -0.54828  -0.54636  -0.54606  -0.54281
 Alpha  occ. eigenvalues --   -0.54281  -0.53791  -0.53569  -0.53484  -0.53427
 Alpha  occ. eigenvalues --   -0.53342  -0.53085  -0.52967  -0.52492  -0.51951
 Alpha  occ. eigenvalues --   -0.51900  -0.51876  -0.51836  -0.51723  -0.51404
 Alpha  occ. eigenvalues --   -0.51185  -0.51126  -0.50971  -0.50936  -0.50623
 Alpha  occ. eigenvalues --   -0.50467  -0.50467  -0.50379  -0.50340  -0.50141
 Alpha  occ. eigenvalues --   -0.50077  -0.49576  -0.49548  -0.49265  -0.49198
 Alpha  occ. eigenvalues --   -0.48786  -0.48653  -0.48633  -0.48429  -0.48269
 Alpha  occ. eigenvalues --   -0.48087  -0.48058  -0.47998  -0.47912  -0.47689
 Alpha  occ. eigenvalues --   -0.47675  -0.47113  -0.47064  -0.46673  -0.46456
 Alpha  occ. eigenvalues --   -0.46427  -0.46371  -0.46342  -0.46008  -0.45951
 Alpha  occ. eigenvalues --   -0.45894  -0.45552  -0.45331  -0.45291  -0.45281
 Alpha  occ. eigenvalues --   -0.44918  -0.44831  -0.44607  -0.44519  -0.44516
 Alpha  occ. eigenvalues --   -0.44452  -0.44058  -0.43872  -0.43758  -0.43666
 Alpha  occ. eigenvalues --   -0.43478  -0.43383  -0.43333  -0.43066  -0.42986
 Alpha  occ. eigenvalues --   -0.42819  -0.42818  -0.42697  -0.42411  -0.42110
 Alpha  occ. eigenvalues --   -0.42075  -0.41922  -0.41499  -0.41343  -0.40957
 Alpha  occ. eigenvalues --   -0.40320  -0.40009  -0.39769  -0.39642  -0.39315
 Alpha  occ. eigenvalues --   -0.39144  -0.39022  -0.38662  -0.38492  -0.38182
 Alpha  occ. eigenvalues --   -0.38143  -0.37690  -0.36590  -0.36243  -0.36045
 Alpha  occ. eigenvalues --   -0.35731  -0.35300  -0.35084  -0.33642  -0.33484
 Alpha  occ. eigenvalues --   -0.33314  -0.33145  -0.32786  -0.32538  -0.31958
 Alpha  occ. eigenvalues --   -0.31576  -0.31520  -0.31438  -0.25971  -0.25963
 Alpha  occ. eigenvalues --   -0.23040  -0.22882
 Alpha virt. eigenvalues --   -0.07207  -0.07064   0.00220   0.00524   0.01927
 Alpha virt. eigenvalues --    0.02025   0.04194   0.04354   0.05477   0.06310
 Alpha virt. eigenvalues --    0.07144   0.07308   0.07886   0.08429   0.08555

 Mulliken charges:
               1
     1  Mg   0.978415
     2  C   -0.019940
     3  C   -0.101323
     4  C   -0.061290
     5  C   -0.071025
     6  N   -0.323318
     7  C   -0.008601
     8  C   -0.058111
     9  C   -0.138193
    10  C    0.062068
    11  C    0.058300
    12  C    0.014049
    13  C   -0.126956
    14  H    0.052507
    15  N   -0.518326
    16  C    0.183513
    17  C   -0.196006
    18  C   -0.036972
    19  C    0.166562
    20  C    0.060786
    21  C    0.056618
    22  O   -0.280064
    23  C    0.001786
    24  N   -0.410095
    25  C    0.066234
    26  C   -0.084840
    27  C   -0.063817
    28  C    0.089537
    29  C    0.031906
    30  C   -0.016731
    31  C   -0.058121
    32  N   -0.398721
    33  C    0.097316
    34  C   -0.187910
    35  C   -0.040125
    36  C    0.126406
    37  C    0.081443
    38  C    0.128918
    39  O   -0.224668
    40  C   -0.076966
    41  C    0.275908
    42  O   -0.284441
    43  O   -0.335710
    44  C    0.120578
    45  H    0.007839
    46  H    0.010644
    47  H   -0.017402
    48  H    0.025996
    49  H    0.022612
    50  H    0.047094
    51  H    0.037758
    52  H    0.040056
    53  H    0.035399
    54  H    0.067772
    55  H    0.038902
    56  H    0.040580
    57  H    0.029647
    58  H    0.048938
    59  H    0.062143
    60  H    0.057756
    61  H    0.061808
    62  H    0.053059
    63  H    0.042918
    64  H    0.035602
    65  H    0.045277
    66  H    0.034317
    67  H    0.025651
    68  H    0.032549
    69  H    0.029364
    70  H    0.029215
    71  H    0.042195
    72  H    0.049731
    73  H    0.070977
    74  H    0.031349
    75  H    0.069346
    76  H    0.065829
    77  H    0.061283
    78  H    0.062781
    79  H    0.070434
    80  Mg   0.968391
    81  C   -0.021004
    82  C   -0.037282
    83  C   -0.068999
    84  C   -0.100292
    85  N   -0.318929
    86  C   -0.004728
    87  C   -0.025499
    88  C   -0.108437
    89  C    0.038720
    90  C    0.011096
    91  C    0.006887
    92  C   -0.131808
    93  H    0.014182
    94  N   -0.444792
    95  C    0.109494
    96  C   -0.188568
    97  C   -0.082300
    98  C    0.150474
    99  C    0.091023
   100  C    0.056761
   101  O   -0.260185
   102  C   -0.010154
   103  N   -0.428901
   104  C    0.096477
   105  C   -0.122975
   106  C   -0.081968
   107  C    0.106408
   108  C    0.028016
   109  C    0.012425
   110  C   -0.064947
   111  N   -0.411614
   112  C    0.113959
   113  C   -0.170724
   114  C   -0.051465
   115  C    0.144070
   116  C    0.088532
   117  C    0.115037
   118  O   -0.250951
   119  C   -0.028951
   120  C    0.225653
   121  O   -0.205858
   122  O   -0.332361
   123  C    0.138710
   124  H   -0.013962
   125  H    0.020015
   126  H   -0.001422
   127  H    0.046096
   128  H    0.041877
   129  H    0.041002
   130  H    0.040319
   131  H    0.039897
   132  H    0.033325
   133  H    0.031408
   134  H    0.045732
   135  H    0.057752
   136  H    0.058094
   137  H    0.041256
   138  H    0.035293
   139  H    0.054090
   140  H    0.046805
   141  H    0.066160
   142  H    0.046299
   143  H    0.023286
   144  H    0.051559
   145  H    0.034803
   146  H    0.038164
   147  H    0.041060
   148  H    0.022504
   149  H    0.029819
   150  H    0.032186
   151  H    0.037079
   152  H    0.031057
   153  H    0.058278
   154  H    0.072975
   155  H    0.069397
   156  H    0.047805
   157  H    0.056244
   158  H    0.061126
 Sum of Mulliken charges =  -0.00000

 Dipole moment (field-independent basis, Debye):
    X=              2.9214    Y=              2.0519    Z=             -1.0591  Tot=              3.7238
 Quadrupole moment (field-independent basis, Debye-Ang):
   XX=           -350.2290   YY=           -472.3221   ZZ=           -521.5246
   XY=              2.7586   XZ=             31.8283   YZ=              8.0952

 Normal termination of Gaussian 16 at Sun Sep 19 11:16:05 2021.
