 Gaussian 16, Revision A.03,
 Gaussian 16:  ES64L-G16RevA.03 25-Dec-2016

 --------------------------------
 #p wB97XD/Def2SVP td=(nstates=5)
 --------------------------------

 --------------------------------
 TDDFT excited states in gaussian
 --------------------------------
 Symbolic Z-matrix:
 Charge =  0 Multiplicity = 1

                         Standard orientation:
 ---------------------------------------------------------------------
 Center     Atomic      Atomic             Coordinates (Angstroms)
 Number     Number       Type             X           Y           Z
 ---------------------------------------------------------------------
      1         12           0       30.443664   -0.176388   -0.163900
      2          6           0       27.316943    0.377841    1.333675
      3          6           0       29.285222   -3.176162   -1.260121
      4          6           0       33.231481   -0.355896   -1.864560
      5          6           0       31.017949    3.331765    0.410086
      6          7           0       28.563466   -1.259853    0.087774
      7          6           0       27.419495   -0.849114    0.711840
      8          6           0       26.287981   -1.811905    0.321897
      9          6           0       27.057062   -3.094749    0.026068
     10          6           0       28.353813   -2.452908   -0.503476
     11          6           0       27.314528   -3.947290    1.289999
     12          6           0       25.493325   -1.287409   -0.930820
     13          6           0       23.960284   -0.846819   -0.733695
     14          1           0       23.556218    0.606933   -1.032701
     15          7           0       31.138866   -1.544058   -1.438641
     16          6           0       30.526105   -2.735861   -1.750801
     17          6           0       31.433890   -3.510424   -2.537830
     18          6           0       32.673593   -2.800205   -2.662351
     19          6           0       32.407143   -1.497504   -1.986294
     20          6           0       31.085034   -4.927681   -3.108434
     21          6           0       33.968454   -3.365168   -3.351367
     22          8           0       33.997274   -4.493947   -3.734935
     23          6           0       35.197339   -2.586813   -3.254866
     24          7           0       31.772864    1.370787   -0.928474
     25          6           0       32.995563    0.895918   -1.265363
     26          6           0       34.117196    1.885351   -0.997246
     27          6           0       33.373796    3.161991   -0.635077
     28          6           0       31.934239    2.601980   -0.363957
     29          6           0       35.087905    1.417006    0.149159
     30          6           0       33.366222    4.390396   -1.661780
     31          6           0       34.148506    5.650185   -1.403833
     32          7           0       29.527803    1.458760    0.847731
     33          6           0       29.866034    2.809563    1.000014
     34          6           0       28.834015    3.542788    1.700684
     35          6           0       27.836270    2.614597    1.870227
     36          6           0       28.253888    1.355143    1.326930
     37          6           0       28.879782    4.975385    2.036071
     38          6           0       26.497196    2.423046    2.405844
     39          8           0       25.784596    3.206357    3.045658
     40          6           0       26.156156    0.964705    2.182803
     41          6           0       25.956451    0.331905    3.555656
     42          8           0       26.855088    0.347178    4.393749
     43          8           0       24.635848   -0.108338    3.734935
     44          6           0       24.367759   -0.686648    5.024509
     45          1           0       28.938956   -4.191898   -1.460634
     46          1           0       34.257173   -0.579664   -2.161815
     47          1           0       31.248707    4.365348    0.677152
     48          1           0       25.569640   -1.798280    1.141975
     49          1           0       26.495794   -3.660525   -0.716512
     50          1           0       26.963395   -4.906704    0.911696
     51          1           0       26.669871   -3.509882    2.052875
     52          1           0       28.341468   -3.993266    1.652663
     53          1           0       25.462035   -2.100965   -1.655457
     54          1           0       26.088004   -0.499245   -1.391935
     55          1           0       23.764436   -0.965103    0.332291
     56          1           0       23.235638   -1.483376   -1.240015
     57          1           0       31.269924   -5.113079   -4.166068
     58          1           0       30.019352   -5.063261   -2.921079
     59          1           0       31.600137   -5.731362   -2.581948
     60          1           0       35.128486   -1.582888   -3.674351
     61          1           0       35.988881   -3.130742   -3.770260
     62          1           0       35.585067   -2.623018   -2.237724
     63          1           0       34.779420    2.010628   -1.854557
     64          1           0       33.721789    3.541895    0.325497
     65          1           0       36.002931    0.955693   -0.221957
     66          1           0       34.534874    0.817420    0.872160
     67          1           0       35.397783    2.313135    0.688688
     68          1           0       32.412218    4.692333   -2.092651
     69          1           0       33.877124    3.854071   -2.461871
     70          1           0       34.968384    5.804025   -2.104715
     71          1           0       34.583683    5.610956   -0.404951
     72          1           0       33.407632    6.446023   -1.476789
     73          1           0       29.543914    5.461936    1.321203
     74          1           0       29.350447    5.028838    3.018172
     75          1           0       27.880088    5.403352    2.094924
     76          1           0       25.202409    1.025190    1.660331
     77          1           0       24.741688   -1.702747    5.153098
     78          1           0       23.299004   -0.719725    5.234219
     79          1           0       24.771122   -0.120543    5.863670
     80         12           0      -29.646669    0.555283   -0.699700
     81          6           0      -28.693847   -2.234714    1.252990
     82          6           0      -29.141934    2.531000    2.051820
     83          6           0      -31.145701    3.026158   -2.316952
     84          6           0      -30.567619   -1.664418   -3.244545
     85          7           0      -29.145699    0.157040    1.463303
     86          6           0      -28.690779   -1.061954    1.973051
     87          6           0      -28.037088   -0.842540    3.359697
     88          6           0      -28.213741    0.701175    3.600894
     89          6           0      -28.844592    1.223544    2.280423
     90          6           0      -28.836851    1.130132    4.917798
     91          6           0      -26.581998   -1.311675    3.514210
     92          6           0      -26.358867   -2.294168    4.696583
     93          1           0      -25.312264   -1.872499    5.703952
     94          7           0      -29.995949    2.539000   -0.202620
     95          6           0      -29.759327    3.182975    0.976247
     96          6           0      -30.029394    4.586104    0.771131
     97          6           0      -30.768837    4.727005   -0.480275
     98          6           0      -30.660293    3.378845   -1.016294
     99          6           0      -29.807499    5.691146    1.928790
    100          6           0      -31.663685    5.780295   -0.975304
    101          8           0      -32.231498    5.818774   -2.029515
    102          6           0      -31.903743    6.950584   -0.026190
    103          7           0      -30.901568    0.596679   -2.458976
    104          6           0      -31.343920    1.773068   -2.944397
    105          6           0      -31.872702    1.605603   -4.370815
    106          6           0      -31.353119    0.213540   -4.764418
    107          6           0      -30.869905   -0.332315   -3.439309
    108          6           0      -33.467063    1.692765   -4.416019
    109          6           0      -30.112103    0.398957   -5.777843
    110          6           0      -28.794140    0.918706   -5.141399
    111          7           0      -29.560186   -1.525015   -1.080371
    112          6           0      -29.953625   -2.247864   -2.141455
    113          6           0      -29.660755   -3.630668   -1.875735
    114          6           0      -29.130159   -3.659033   -0.599689
    115          6           0      -29.136516   -2.354610   -0.098062
    116          6           0      -29.892507   -4.844595   -2.755197
    117          6           0      -28.648873   -4.616427    0.399840
    118          8           0      -28.569899   -5.804249    0.540580
    119          6           0      -28.270765   -3.729322    1.615353
    120          6           0      -29.088836   -4.234247    2.745918
    121          8           0      -30.288569   -4.318722    2.665556
    122          8           0      -28.334344   -4.665271    3.825216
    123          6           0      -29.061493   -5.457748    4.872585
    124          1           0      -28.781390    3.170825    2.860109
    125          1           0      -31.544524    3.827868   -2.942600
    126          1           0      -30.622701   -2.397713   -4.051861
    127          1           0      -28.656086   -1.325119    4.116329
    128          1           0      -27.220836    1.137077    3.713197
    129          1           0      -29.343448    0.297480    5.403558
    130          1           0      -29.525809    1.970046    4.824964
    131          1           0      -28.002234    1.380779    5.572058
    132          1           0      -25.818729   -0.557756    3.706969
    133          1           0      -26.234984   -1.797676    2.602633
    134          1           0      -26.209750   -3.315016    4.344977
    135          1           0      -27.280989   -2.322395    5.275699
    136          1           0      -29.266249    6.528738    1.488941
    137          1           0      -29.198213    5.384324    2.778086
    138          1           0      -30.678011    6.073735    2.461593
    139          1           0      -30.909881    7.382565    0.093304
    140          1           0      -32.271689    6.491285    0.890741
    141          1           0      -32.546769    7.736158   -0.424251
    142          1           0      -31.438980    2.309345   -5.082055
    143          1           0      -32.036644   -0.538474   -5.159213
    144          1           0      -33.733396    2.078047   -5.400610
    145          1           0      -33.975402    2.337624   -3.698388
    146          1           0      -33.789129    0.655232   -4.328497
    147          1           0      -30.353374    1.035998   -6.628540
    148          1           0      -29.773728   -0.579092   -6.120205
    149          1           0      -28.014864    1.205607   -5.846662
    150          1           0      -28.389227    0.114553   -4.526794
    151          1           0      -29.051622    1.758251   -4.494844
    152          1           0      -29.329122   -4.838105   -3.688010
    153          1           0      -30.954761   -4.788296   -2.991559
    154          1           0      -29.756010   -5.784402   -2.220221
    155          1           0      -27.223157   -3.976704    1.785940
    156          1           0      -28.642430   -4.981132    5.758769
    157          1           0      -28.799780   -6.515682    4.866221
    158          1           0      -30.150671   -5.455246    4.906673
 ---------------------------------------------------------------------

 SCF Done:  E(RwB97XD) =  -4070.62346578     A.U. after   19 cycles

 Excitation energies and oscillator strengths:

 Excited State   1:      Singlet-A      1.6442 eV  754.07 nm  f=0.3974  <S**2>=0.000
     310 -> 316        0.18146
     311 -> 313        0.68504
     310 <- 316        0.11694
 This state for optimization and/or second-order correction.
 Total Energy, E(TD-HF/TD-DFT) =  -4070.56304232
 Copying the excited state density for this state as the 1-particle RhoCI density.

 Excited State   2:      Singlet-A      1.6668 eV  743.85 nm  f=0.3640  <S**2>=0.000
     309 -> 315        0.19755
     312 -> 314        0.68093
     309 <- 315        0.12066

 Excited State   3:      Singlet-A      2.1358 eV  580.49 nm  f=0.1349  <S**2>=0.000
     310 -> 313        0.65465
     311 -> 316       -0.25216

 Excited State   4:      Singlet-A      2.2262 eV  556.94 nm  f=0.0509  <S**2>=0.000
     309 -> 314        0.60363
     312 -> 315       -0.35683

 Excited State   5:      Singlet-A      3.3974 eV  364.94 nm  f=0.0013  <S**2>=0.000
     304 -> 313        0.14188
     305 -> 313        0.57575
     307 -> 313        0.34377

 The electronic state is 1-A.
 Alpha  occ. eigenvalues --  -46.95887 -46.95043 -19.31301 -19.30374 -19.25568
 Alpha  occ. eigenvalues --  -19.24659 -19.24214 -19.24078 -19.23867 -19.23409
 Alpha  occ. eigenvalues --  -14.46739 -14.46724 -14.46690 -14.46517 -14.44363
 Alpha  occ. eigenvalues --  -14.44002 -14.43988 -14.43827 -10.44165 -10.42642
 Alpha  occ. eigenvalues --  -10.39185 -10.38990 -10.38625 -10.38310 -10.35582
 Alpha  occ. eigenvalues --  -10.35567 -10.35270 -10.35184 -10.35152 -10.34885
 Alpha  occ. eigenvalues --  -10.34797 -10.34773 -10.34763 -10.34706 -10.34582
 Alpha  occ. eigenvalues --  -10.34262 -10.33981 -10.33848 -10.33816 -10.33557
 Alpha  occ. eigenvalues --  -10.33371 -10.33296 -10.33196 -10.32826 -10.32638
 Alpha  occ. eigenvalues --  -10.32503 -10.32265 -10.32209 -10.32157 -10.32097
 Alpha  occ. eigenvalues --  -10.32059 -10.32029 -10.31958 -10.31956 -10.31954
 Alpha  occ. eigenvalues --  -10.31942 -10.31931 -10.31915 -10.31669 -10.31545
 Alpha  occ. eigenvalues --  -10.31363 -10.31228 -10.31081 -10.31037 -10.30998
 Alpha  occ. eigenvalues --  -10.30952 -10.30948 -10.30918 -10.30742 -10.30679
 Alpha  occ. eigenvalues --  -10.30574 -10.30476 -10.30375 -10.30357 -10.30135
 Alpha  occ. eigenvalues --  -10.30098 -10.30079 -10.29870 -10.29826 -10.29808
 Alpha  occ. eigenvalues --  -10.29509 -10.29464 -10.29436 -10.29214 -10.29106
 Alpha  occ. eigenvalues --  -10.28926  -3.21750  -3.21088  -1.95317  -1.94884
 Alpha  occ. eigenvalues --   -1.94709  -1.94654  -1.94227  -1.94056  -1.18183
 Alpha  occ. eigenvalues --   -1.17849  -1.14114  -1.13926  -1.13276  -1.11368
 Alpha  occ. eigenvalues --   -1.10478  -1.09828  -1.07210  -1.06794  -1.06335
 Alpha  occ. eigenvalues --   -1.06290  -1.05870  -1.04924  -1.04123  -1.04009
 Alpha  occ. eigenvalues --   -0.95069  -0.94349  -0.91024  -0.90858  -0.90775
 Alpha  occ. eigenvalues --   -0.90676  -0.90468  -0.90155  -0.89677  -0.89585
 Alpha  occ. eigenvalues --   -0.89064  -0.88514  -0.88275  -0.86947  -0.86515
 Alpha  occ. eigenvalues --   -0.86341  -0.86156  -0.85396  -0.84477  -0.84456
 Alpha  occ. eigenvalues --   -0.84396  -0.83151  -0.83021  -0.82839  -0.82823
 Alpha  occ. eigenvalues --   -0.82115  -0.80327  -0.79961  -0.79356  -0.79189
 Alpha  occ. eigenvalues --   -0.78707  -0.78352  -0.78233  -0.78080  -0.77158
 Alpha  occ. eigenvalues --   -0.77056  -0.75104  -0.74890  -0.74123  -0.73749
 Alpha  occ. eigenvalues --   -0.71288  -0.71206  -0.70964  -0.70610  -0.70117
 Alpha  occ. eigenvalues --   -0.70062  -0.69240  -0.68767  -0.67803  -0.67575
 Alpha  occ. eigenvalues --   -0.67423  -0.67290  -0.67145  -0.66877  -0.66486
 Alpha  occ. eigenvalues --   -0.66456  -0.64740  -0.64288  -0.62420  -0.62222
 Alpha  occ. eigenvalues --   -0.62064  -0.61695  -0.61288  -0.61118  -0.60893
 Alpha  occ. eigenvalues --   -0.60734  -0.60498  -0.60102  -0.59720  -0.59541
 Alpha  occ. eigenvalues --   -0.58230  -0.58077  -0.57984  -0.57343  -0.57263
 Alpha  occ. eigenvalues --   -0.57165  -0.56904  -0.56593  -0.56115  -0.55932
 Alpha  occ. eigenvalues --   -0.55492  -0.55364  -0.55115  -0.54952  -0.54931
 Alpha  occ. eigenvalues --   -0.54729  -0.54629  -0.54605  -0.54334  -0.54140
 Alpha  occ. eigenvalues --   -0.54067  -0.53832  -0.53741  -0.53472  -0.53217
 Alpha  occ. eigenvalues --   -0.52967  -0.52827  -0.52684  -0.52397  -0.52104
 Alpha  occ. eigenvalues --   -0.52001  -0.51749  -0.51745  -0.51593  -0.51439
 Alpha  occ. eigenvalues --   -0.51298  -0.51267  -0.51236  -0.51055  -0.50976
 Alpha  occ. eigenvalues --   -0.50624  -0.50343  -0.50274  -0.50196  -0.50031
 Alpha  occ. eigenvalues --   -0.49873  -0.49534  -0.49452  -0.49410  -0.49044
 Alpha  occ. eigenvalues --   -0.48961  -0.48531  -0.48369  -0.48322  -0.48222
 Alpha  occ. eigenvalues --   -0.48068  -0.48053  -0.48046  -0.47909  -0.47822
 Alpha  occ. eigenvalues --   -0.47492  -0.47386  -0.47297  -0.47238  -0.47045
 Alpha  occ. eigenvalues --   -0.46478  -0.46399  -0.46256  -0.46109  -0.45996
 Alpha  occ. eigenvalues --   -0.45808  -0.45599  -0.45543  -0.45360  -0.45287
 Alpha  occ. eigenvalues --   -0.45276  -0.45045  -0.44995  -0.44844  -0.44551
 Alpha  occ. eigenvalues --   -0.44394  -0.44392  -0.44300  -0.44102  -0.44030
 Alpha  occ. eigenvalues --   -0.43944  -0.43900  -0.43662  -0.43538  -0.43371
 Alpha  occ. eigenvalues --   -0.43300  -0.43013  -0.42797  -0.42773  -0.42617
 Alpha  occ. eigenvalues --   -0.42302  -0.42231  -0.41967  -0.41646  -0.40985
 Alpha  occ. eigenvalues --   -0.40908  -0.40230  -0.40016  -0.39954  -0.39809
 Alpha  occ. eigenvalues --   -0.39483  -0.39183  -0.39150  -0.38633  -0.38600
 Alpha  occ. eigenvalues --   -0.38355  -0.38214  -0.36845  -0.36730  -0.36404
 Alpha  occ. eigenvalues --   -0.36041  -0.35751  -0.35648  -0.33830  -0.33564
 Alpha  occ. eigenvalues --   -0.33247  -0.33208  -0.32961  -0.32560  -0.32376
 Alpha  occ. eigenvalues --   -0.32338  -0.32218  -0.31831  -0.26334  -0.26105
 Alpha  occ. eigenvalues --   -0.23395  -0.22815
 Alpha virt. eigenvalues --   -0.07535  -0.06668  -0.00344   0.00481   0.02577
 Alpha virt. eigenvalues --    0.02594   0.04578   0.04591   0.04799   0.05179
 Alpha virt. eigenvalues --    0.06351   0.07464   0.07555   0.07912   0.08486

 Mulliken charges:
               1
     1  Mg   0.957054
     2  C   -0.054875
     3  C   -0.098040
     4  C   -0.052909
     5  C   -0.094249
     6  N   -0.331930
     7  C   -0.023679
     8  C   -0.114959
     9  C   -0.115714
    10  C    0.039134
    11  C    0.060846
    12  C    0.025442
    13  C   -0.134573
    14  H    0.044817
    15  N   -0.518630
    16  C    0.210488
    17  C   -0.172877
    18  C   -0.106193
    19  C    0.151481
    20  C    0.083339
    21  C    0.062089
    22  O   -0.196868
    23  C   -0.021495
    24  N   -0.326692
    25  C    0.062320
    26  C   -0.102099
    27  C   -0.070039
    28  C    0.069593
    29  C    0.021103
    30  C   -0.022391
    31  C   -0.034779
    32  N   -0.429085
    33  C    0.127836
    34  C   -0.206714
    35  C   -0.016805
    36  C    0.192840
    37  C    0.097473
    38  C    0.099163
    39  O   -0.220873
    40  C   -0.022146
    41  C    0.288799
    42  O   -0.244361
    43  O   -0.362529
    44  C    0.139842
    45  H    0.001617
    46  H   -0.029257
    47  H   -0.001548
    48  H    0.017296
    49  H    0.023676
    50  H    0.042910
    51  H    0.038771
    52  H    0.055138
    53  H    0.032701
    54  H    0.055660
    55  H    0.047938
    56  H    0.058763
    57  H    0.056049
    58  H    0.011845
    59  H    0.051563
    60  H    0.070928
    61  H    0.042019
    62  H    0.069573
    63  H    0.033447
    64  H    0.024313
    65  H    0.046133
    66  H    0.041575
    67  H    0.029653
    68  H    0.043972
    69  H    0.016336
    70  H    0.044045
    71  H    0.026346
    72  H    0.041564
    73  H    0.036666
    74  H    0.058304
    75  H    0.066022
    76  H    0.061051
    77  H    0.042324
    78  H    0.050427
    79  H    0.054024
    80  Mg   0.945977
    81  C   -0.040847
    82  C   -0.093367
    83  C   -0.065179
    84  C   -0.068484
    85  N   -0.371934
    86  C    0.009101
    87  C   -0.037879
    88  C   -0.103059
    89  C    0.075418
    90  C    0.021457
    91  C    0.015480
    92  C   -0.142091
    93  H    0.025748
    94  N   -0.445308
    95  C    0.174481
    96  C   -0.128461
    97  C   -0.081752
    98  C    0.149802
    99  C    0.018139
   100  C    0.023409
   101  O   -0.210400
   102  C   -0.006008
   103  N   -0.330976
   104  C    0.048411
   105  C   -0.089183
   106  C   -0.066530
   107  C    0.055586
   108  C    0.021687
   109  C   -0.041516
   110  C   -0.066482
   111  N   -0.411891
   112  C    0.080716
   113  C   -0.175898
   114  C   -0.085175
   115  C    0.178132
   116  C    0.073484
   117  C    0.147785
   118  O   -0.174279
   119  C   -0.066635
   120  C    0.252332
   121  O   -0.231218
   122  O   -0.382103
   123  C    0.126255
   124  H   -0.009988
   125  H    0.025912
   126  H   -0.003885
   127  H    0.040972
   128  H    0.033967
   129  H    0.030237
   130  H    0.043335
   131  H    0.031387
   132  H    0.042753
   133  H    0.032984
   134  H    0.067856
   135  H    0.036380
   136  H    0.048981
   137  H    0.027024
   138  H    0.053817
   139  H    0.041778
   140  H    0.056550
   141  H    0.049662
   142  H    0.042159
   143  H    0.039929
   144  H    0.039821
   145  H    0.057664
   146  H    0.036731
   147  H    0.045243
   148  H    0.027641
   149  H    0.048351
   150  H    0.041057
   151  H    0.039383
   152  H    0.051874
   153  H    0.041785
   154  H    0.060830
   155  H    0.062958
   156  H    0.053003
   157  H    0.061575
   158  H    0.073529
 Sum of Mulliken charges =  -0.00000

 Dipole moment (field-independent basis, Debye):
    X=              4.6340    Y=              1.9984    Z=              0.5113  Tot=              5.0724
 Quadrupole moment (field-independent basis, Debye-Ang):
   XX=           -504.5134   YY=           -528.4534   ZZ=           -492.5657
   XY=            -20.9262   XZ=            -10.9936   YZ=             -8.6808

 Normal termination of Gaussian 16 at Mon Sep 20 17:51:32 2021.
