 Gaussian 16, Revision A.03,
 Gaussian 16:  ES64L-G16RevA.03 25-Dec-2016

 --------------------------------
 #p wB97XD/Def2SVP td=(nstates=5)
 --------------------------------

 --------------------------------
 TDDFT excited states in gaussian
 --------------------------------
 Symbolic Z-matrix:
 Charge =  0 Multiplicity = 1

                         Standard orientation:
 ---------------------------------------------------------------------
 Center     Atomic      Atomic             Coordinates (Angstroms)
 Number     Number       Type             X           Y           Z
 ---------------------------------------------------------------------
      1         12           0      -28.319357    0.349994    0.363278
      2          6           0      -26.777225   -2.073115   -1.643664
      3          6           0      -27.455543    2.767429   -2.075128
      4          6           0      -29.493015    2.769693    2.436215
      5          6           0      -28.429298   -1.949554    2.936412
      6          7           0      -27.404777    0.272415   -1.654008
      7          6           0      -27.020064   -0.899098   -2.312454
      8          6           0      -26.875965   -0.602333   -3.848629
      9          6           0      -27.005531    0.924172   -3.906337
     10          6           0      -27.263503    1.376455   -2.426695
     11          6           0      -25.710909    1.555857   -4.485270
     12          6           0      -27.935669   -1.399401   -4.599433
     13          6           0      -27.639660   -1.808728   -6.032967
     14          1           0      -26.446468   -1.140583   -6.752874
     15          7           0      -28.488125    2.473789    0.243044
     16          6           0      -28.047717    3.275752   -0.826987
     17          6           0      -28.284359    4.680437   -0.543683
     18          6           0      -28.948409    4.755831    0.743556
     19          6           0      -28.981155    3.300876    1.201870
     20          6           0      -28.048603    5.816724   -1.546933
     21          6           0      -29.496429    5.944014    1.510454
     22          8           0      -30.046143    5.781005    2.591631
     23          6           0      -29.545561    7.261474    0.836921
     24          7           0      -28.944003    0.351687    2.401895
     25          6           0      -29.472006    1.461102    2.989959
     26          6           0      -30.050557    1.090969    4.380753
     27          6           0      -29.772286   -0.454720    4.533603
     28          6           0      -29.098150   -0.772868    3.173907
     29          6           0      -29.400418    1.952840    5.477847
     30          6           0      -31.039434   -1.332789    4.710932
     31          6           0      -31.188609   -1.705896    6.182615
     32          7           0      -27.652639   -1.600144    0.723966
     33          6           0      -27.683829   -2.407271    1.811879
     34          6           0      -26.857030   -3.599048    1.502302
     35          6           0      -26.577744   -3.571569    0.167312
     36          6           0      -27.050321   -2.300617   -0.248562
     37          6           0      -26.624669   -4.692748    2.531165
     38          6           0      -25.996848   -4.284589   -0.978160
     39          8           0      -25.441497   -5.376118   -1.009658
     40          6           0      -26.199110   -3.365506   -2.167341
     41          6           0      -24.881331   -3.263959   -2.814079
     42          8           0      -23.884926   -2.598585   -2.500726
     43          8           0      -24.874620   -4.143252   -3.877494
     44          6           0      -23.638196   -4.256625   -4.620145
     45          1           0      -27.245567    3.469140   -2.884768
     46          1           0      -29.947639    3.591206    2.993849
     47          1           0      -28.421560   -2.585621    3.824086
     48          1           0      -25.856612   -0.950668   -4.019354
     49          1           0      -27.757169    1.129048   -4.668618
     50          1           0      -25.119658    2.128581   -3.770570
     51          1           0      -26.037355    2.371669   -5.129616
     52          1           0      -25.048165    0.809549   -4.922900
     53          1           0      -28.838891   -0.795974   -4.504092
     54          1           0      -28.181335   -2.288733   -4.020252
     55          1           0      -28.544864   -1.678798   -6.624574
     56          1           0      -27.479103   -2.880944   -5.915013
     57          1           0      -27.532328    5.505064   -2.455112
     58          1           0      -27.448507    6.601164   -1.083874
     59          1           0      -29.002804    6.300317   -1.752715
     60          1           0      -30.238687    7.195934   -0.002128
     61          1           0      -28.542344    7.644881    0.650910
     62          1           0      -30.004581    8.022083    1.468563
     63          1           0      -31.109612    1.347728    4.373419
     64          1           0      -29.033497   -0.530726    5.332493
     65          1           0      -28.899634    1.419255    6.285166
     66          1           0      -30.299496    2.412115    5.888173
     67          1           0      -28.617344    2.623074    5.124441
     68          1           0      -30.874636   -2.322414    4.284433
     69          1           0      -31.955199   -0.860330    4.355098
     70          1           0      -32.238169   -1.500924    6.393035
     71          1           0      -30.677155   -1.032222    6.869705
     72          1           0      -30.941236   -2.738110    6.432053
     73          1           0      -26.901073   -4.436882    3.554350
     74          1           0      -25.591673   -5.037950    2.550024
     75          1           0      -27.328152   -5.501582    2.330560
     76          1           0      -26.941302   -3.826555   -2.818210
     77          1           0      -22.838096   -4.434380   -3.901118
     78          1           0      -23.393660   -3.365068   -5.197995
     79          1           0      -23.682308   -5.246117   -5.073915
     80         12           0       28.325186    0.414269   -0.680781
     81          6           0       26.310562   -2.491818   -0.264740
     82          6           0       25.550111    2.167308   -1.659840
     83          6           0       30.049647    3.395451   -0.059615
     84          6           0       30.976370   -1.282429    0.881561
     85          7           0       26.061426   -0.157590   -0.665103
     86          6           0       25.533036   -1.391723   -0.703418
     87          6           0       24.182058   -1.338681   -1.393061
     88          6           0       23.883568    0.185677   -1.793276
     89          6           0       25.361680    0.737488   -1.462734
     90          6           0       23.516997    0.243749   -3.293286
     91          6           0       23.095922   -1.919272   -0.501821
     92          6           0       23.198435   -1.616280    1.011942
     93          1           0       22.179447   -0.598668    1.593672
     94          7           0       27.892439    2.537421   -0.923279
     95          6           0       26.656516    2.991568   -1.329400
     96          6           0       26.809208    4.397543   -1.536511
     97          6           0       28.075196    4.845674   -0.997914
     98          6           0       28.783389    3.584392   -0.662642
     99          6           0       25.673417    5.280571   -1.999056
    100          6           0       28.514609    6.280054   -0.699807
    101          8           0       27.745670    7.203263   -0.886695
    102          6           0       29.807124    6.618594   -0.183882
    103          7           0       30.191516    0.999074    0.364100
    104          6           0       30.705959    2.219503    0.330870
    105          6           0       32.049276    2.327058    1.034045
    106          6           0       32.143968    0.864679    1.648936
    107          6           0       31.103504    0.115724    0.897144
    108          6           0       33.270204    2.683005    0.052770
    109          6           0       31.968046    0.912994    3.236365
    110          6           0       33.122657    0.590472    4.142106
    111          7           0       28.694377   -1.474174   -0.100354
    112          6           0       29.873812   -2.055782    0.407738
    113          6           0       29.716768   -3.515866    0.543862
    114          6           0       28.359953   -3.676600    0.263554
    115          6           0       27.706995   -2.423455   -0.006750
    116          6           0       30.800136   -4.617361    0.810292
    117          6           0       27.319759   -4.707765    0.192334
    118          8           0       27.332420   -5.939503    0.352232
    119          6           0       25.966628   -4.008404   -0.164232
    120          6           0       25.189310   -4.324492    1.066741
    121          8           0       25.506428   -4.019024    2.187687
    122          8           0       24.156528   -5.106365    0.765490
    123          6           0       23.177772   -5.484643    1.843856
    124          1           0       24.765685    2.649577   -2.246568
    125          1           0       30.725185    4.233184    0.124564
    126          1           0       31.810296   -1.683733    1.462111
    127          1           0       24.404501   -2.008728   -2.223550
    128          1           0       23.108933    0.637306   -1.172968
    129          1           0       22.513782    0.660413   -3.380754
    130          1           0       23.483769   -0.726664   -3.789230
    131          1           0       24.230006    0.932357   -3.745854
    132          1           0       23.081262   -3.004231   -0.605861
    133          1           0       22.119293   -1.523707   -0.782309
    134          1           0       24.099582   -1.118437    1.369706
    135          1           0       23.080518   -2.588783    1.490026
    136          1           0       24.744035    4.721393   -2.110062
    137          1           0       26.006897    5.801382   -2.897291
    138          1           0       25.579445    6.090022   -1.275985
    139          1           0       30.026875    6.238945    0.814185
    140          1           0       29.901659    7.703203   -0.134650
    141          1           0       30.480605    6.142648   -0.897446
    142          1           0       32.048442    2.997040    1.893453
    143          1           0       33.201512    0.645022    1.501370
    144          1           0       32.888998    2.853172   -0.954543
    145          1           0       33.918765    1.807463    0.017319
    146          1           0       33.909414    3.510529    0.364373
    147          1           0       31.264387    0.154054    3.578574
    148          1           0       31.601053    1.886337    3.559071
    149          1           0       33.085937   -0.414017    4.563790
    150          1           0       32.951466    1.334831    4.920443
    151          1           0       34.100023    0.891219    3.764373
    152          1           0       31.063410   -4.572069    1.866696
    153          1           0       31.626260   -4.424575    0.125660
    154          1           0       30.342213   -5.593512    0.651520
    155          1           0       25.625572   -4.472170   -1.090543
    156          1           0       23.497822   -6.353409    2.419558
    157          1           0       22.196451   -5.709108    1.423878
    158          1           0       23.099399   -4.595129    2.468909
 ---------------------------------------------------------------------

 SCF Done:  E(RwB97XD) =  -4070.56572842     A.U. after   20 cycles

 Excitation energies and oscillator strengths:

 Excited State   1:      Singlet-A      1.6258 eV  762.61 nm  f=0.3406  <S**2>=0.000
     310 -> 316        0.17843
     312 -> 314        0.68297
     310 <- 316        0.11315
 This state for optimization and/or second-order correction.
 Total Energy, E(TD-HF/TD-DFT) =  -4070.50598152
 Copying the excited state density for this state as the 1-particle RhoCI density.

 Excited State   2:      Singlet-A      1.6285 eV  761.32 nm  f=0.4031  <S**2>=0.000
     309 -> 315       -0.20639
     311 -> 313        0.67684
     309 <- 315       -0.12492

 Excited State   3:      Singlet-A      2.1415 eV  578.96 nm  f=0.0720  <S**2>=0.000
     309 -> 313        0.61510
     311 -> 315        0.33058

 Excited State   4:      Singlet-A      2.1420 eV  578.82 nm  f=0.1166  <S**2>=0.000
     310 -> 314        0.64117
     312 -> 316       -0.27575

 Excited State   5:      Singlet-A      3.1858 eV  389.18 nm  f=0.0154  <S**2>=0.000
     308 -> 313        0.65679
     308 -> 318       -0.10732
     311 -> 315       -0.20222

 The electronic state is 1-A.
 Alpha  occ. eigenvalues --  -46.96534 -46.95452 -19.30280 -19.29672 -19.24728
 Alpha  occ. eigenvalues --  -19.24311 -19.24281 -19.23898 -19.23780 -19.23079
 Alpha  occ. eigenvalues --  -14.47005 -14.46788 -14.46554 -14.46329 -14.44758
 Alpha  occ. eigenvalues --  -14.44740 -14.44146 -14.43747 -10.43202 -10.42556
 Alpha  occ. eigenvalues --  -10.39482 -10.39381 -10.38991 -10.38255 -10.36211
 Alpha  occ. eigenvalues --  -10.36104 -10.36079 -10.35388 -10.35312 -10.35271
 Alpha  occ. eigenvalues --  -10.35112 -10.35004 -10.35001 -10.34721 -10.34709
 Alpha  occ. eigenvalues --  -10.34682 -10.34659 -10.34040 -10.33957 -10.33903
 Alpha  occ. eigenvalues --  -10.33779 -10.33292 -10.33004 -10.32993 -10.32937
 Alpha  occ. eigenvalues --  -10.32798 -10.32535 -10.32428 -10.32417 -10.32370
 Alpha  occ. eigenvalues --  -10.32288 -10.32244 -10.32214 -10.32209 -10.32186
 Alpha  occ. eigenvalues --  -10.31888 -10.31826 -10.31809 -10.31759 -10.31716
 Alpha  occ. eigenvalues --  -10.31639 -10.31609 -10.31595 -10.31460 -10.31440
 Alpha  occ. eigenvalues --  -10.31136 -10.30981 -10.30855 -10.30714 -10.30672
 Alpha  occ. eigenvalues --  -10.30532 -10.30523 -10.30395 -10.30330 -10.30330
 Alpha  occ. eigenvalues --  -10.30204 -10.30067 -10.29814 -10.29495 -10.29400
 Alpha  occ. eigenvalues --  -10.29322 -10.29309 -10.29123 -10.28978 -10.28803
 Alpha  occ. eigenvalues --  -10.28752  -3.22329  -3.21302  -1.95873  -1.95475
 Alpha  occ. eigenvalues --   -1.95261  -1.94903  -1.94381  -1.94302  -1.19221
 Alpha  occ. eigenvalues --   -1.17945  -1.12717  -1.12418  -1.12207  -1.11029
 Alpha  occ. eigenvalues --   -1.09888  -1.09041  -1.06588  -1.06297  -1.05665
 Alpha  occ. eigenvalues --   -1.04793  -1.04639  -1.04419  -1.03698  -1.03651
 Alpha  occ. eigenvalues --   -0.95322  -0.93911  -0.91115  -0.90823  -0.90667
 Alpha  occ. eigenvalues --   -0.90627  -0.90155  -0.89906  -0.89037  -0.89014
 Alpha  occ. eigenvalues --   -0.88799  -0.88061  -0.87514  -0.87325  -0.86590
 Alpha  occ. eigenvalues --   -0.86250  -0.85910  -0.85750  -0.84771  -0.84620
 Alpha  occ. eigenvalues --   -0.84517  -0.84334  -0.83044  -0.82835  -0.82200
 Alpha  occ. eigenvalues --   -0.81990  -0.80098  -0.79830  -0.79281  -0.79186
 Alpha  occ. eigenvalues --   -0.78706  -0.78328  -0.78199  -0.77852  -0.76906
 Alpha  occ. eigenvalues --   -0.76484  -0.74839  -0.74509  -0.73708  -0.72986
 Alpha  occ. eigenvalues --   -0.71036  -0.70842  -0.70438  -0.70398  -0.70083
 Alpha  occ. eigenvalues --   -0.69869  -0.69081  -0.68680  -0.67483  -0.67323
 Alpha  occ. eigenvalues --   -0.67147  -0.66829  -0.66764  -0.66647  -0.66019
 Alpha  occ. eigenvalues --   -0.65884  -0.64406  -0.64105  -0.62239  -0.62153
 Alpha  occ. eigenvalues --   -0.61599  -0.61246  -0.61055  -0.60995  -0.60747
 Alpha  occ. eigenvalues --   -0.60626  -0.60335  -0.59806  -0.59644  -0.59243
 Alpha  occ. eigenvalues --   -0.58209  -0.57849  -0.57809  -0.57713  -0.57017
 Alpha  occ. eigenvalues --   -0.56960  -0.56863  -0.56718  -0.56467  -0.55806
 Alpha  occ. eigenvalues --   -0.55561  -0.55489  -0.55383  -0.55316  -0.55239
 Alpha  occ. eigenvalues --   -0.55005  -0.54853  -0.54753  -0.54569  -0.54447
 Alpha  occ. eigenvalues --   -0.53955  -0.53809  -0.53670  -0.53660  -0.53445
 Alpha  occ. eigenvalues --   -0.53314  -0.52694  -0.52591  -0.52322  -0.52061
 Alpha  occ. eigenvalues --   -0.51832  -0.51724  -0.51607  -0.51553  -0.51376
 Alpha  occ. eigenvalues --   -0.51219  -0.51192  -0.51155  -0.50955  -0.50916
 Alpha  occ. eigenvalues --   -0.50560  -0.50468  -0.50171  -0.50071  -0.49788
 Alpha  occ. eigenvalues --   -0.49703  -0.49343  -0.49221  -0.49106  -0.48900
 Alpha  occ. eigenvalues --   -0.48828  -0.48641  -0.48524  -0.48303  -0.48193
 Alpha  occ. eigenvalues --   -0.47955  -0.47822  -0.47729  -0.47537  -0.47226
 Alpha  occ. eigenvalues --   -0.47163  -0.47079  -0.47022  -0.46898  -0.46787
 Alpha  occ. eigenvalues --   -0.46697  -0.46381  -0.46311  -0.46255  -0.46131
 Alpha  occ. eigenvalues --   -0.45908  -0.45592  -0.45525  -0.45487  -0.45355
 Alpha  occ. eigenvalues --   -0.45138  -0.45117  -0.44973  -0.44846  -0.44799
 Alpha  occ. eigenvalues --   -0.44616  -0.44330  -0.44248  -0.43958  -0.43749
 Alpha  occ. eigenvalues --   -0.43444  -0.43427  -0.43340  -0.43244  -0.43191
 Alpha  occ. eigenvalues --   -0.42996  -0.42764  -0.42308  -0.41985  -0.41952
 Alpha  occ. eigenvalues --   -0.41866  -0.41714  -0.40819  -0.40534  -0.40344
 Alpha  occ. eigenvalues --   -0.39909  -0.39890  -0.39884  -0.39673  -0.39374
 Alpha  occ. eigenvalues --   -0.39128  -0.38833  -0.38610  -0.38324  -0.38304
 Alpha  occ. eigenvalues --   -0.37761  -0.37671  -0.36300  -0.36180  -0.36074
 Alpha  occ. eigenvalues --   -0.36050  -0.35602  -0.34873  -0.33582  -0.33555
 Alpha  occ. eigenvalues --   -0.33508  -0.33386  -0.32746  -0.32596  -0.32457
 Alpha  occ. eigenvalues --   -0.32372  -0.32172  -0.31109  -0.26189  -0.25726
 Alpha  occ. eigenvalues --   -0.23108  -0.22738
 Alpha virt. eigenvalues --   -0.07109  -0.07016  -0.00652   0.00462   0.02234
 Alpha virt. eigenvalues --    0.02358   0.03990   0.04152   0.04588   0.05533
 Alpha virt. eigenvalues --    0.07190   0.07387   0.07609   0.07787   0.08216

 Mulliken charges:
               1
     1  Mg   0.955632
     2  C   -0.016121
     3  C   -0.071941
     4  C   -0.061459
     5  C   -0.075372
     6  N   -0.370245
     7  C   -0.076502
     8  C   -0.019334
     9  C   -0.128248
    10  C    0.112637
    11  C    0.004229
    12  C    0.005672
    13  C   -0.087406
    14  H    0.044125
    15  N   -0.442689
    16  C    0.155452
    17  C   -0.170595
    18  C   -0.084790
    19  C    0.094818
    20  C    0.079904
    21  C    0.058874
    22  O   -0.231341
    23  C   -0.015504
    24  N   -0.372778
    25  C    0.091380
    26  C   -0.107441
    27  C   -0.062945
    28  C    0.055572
    29  C    0.009037
    30  C    0.009713
    31  C   -0.064275
    32  N   -0.405357
    33  C    0.114463
    34  C   -0.207733
    35  C   -0.016115
    36  C    0.137349
    37  C    0.069669
    38  C    0.119810
    39  O   -0.196958
    40  C   -0.033016
    41  C    0.261341
    42  O   -0.260788
    43  O   -0.368892
    44  C    0.150859
    45  H   -0.002636
    46  H    0.022727
    47  H   -0.005023
    48  H    0.035182
    49  H    0.041295
    50  H    0.033191
    51  H    0.028436
    52  H    0.050186
    53  H    0.018846
    54  H    0.026463
    55  H    0.050763
    56  H    0.056864
    57  H    0.044949
    58  H    0.041718
    59  H    0.050660
    60  H    0.068865
    61  H    0.058638
    62  H    0.044859
    63  H    0.042176
    64  H    0.041182
    65  H    0.028406
    66  H    0.042391
    67  H    0.055139
    68  H    0.035725
    69  H    0.040897
    70  H    0.024677
    71  H    0.026472
    72  H    0.047216
    73  H    0.017837
    74  H    0.060226
    75  H    0.049677
    76  H    0.082158
    77  H    0.044820
    78  H    0.059119
    79  H    0.053210
    80  Mg   0.942000
    81  C   -0.038001
    82  C   -0.073450
    83  C   -0.078402
    84  C   -0.055705
    85  N   -0.320088
    86  C   -0.052921
    87  C   -0.003176
    88  C   -0.147400
    89  C    0.056822
    90  C    0.022586
    91  C   -0.011408
    92  C   -0.138081
    93  H    0.013828
    94  N   -0.462307
    95  C    0.168130
    96  C   -0.175054
    97  C   -0.086720
    98  C    0.201864
    99  C    0.084781
   100  C    0.035891
   101  O   -0.236011
   102  C    0.005230
   103  N   -0.322763
   104  C    0.047430
   105  C   -0.151689
   106  C   -0.062485
   107  C    0.046703
   108  C    0.017263
   109  C   -0.028933
   110  C   -0.050496
   111  N   -0.501272
   112  C    0.150966
   113  C   -0.184796
   114  C   -0.035041
   115  C    0.186925
   116  C    0.087883
   117  C    0.097767
   118  O   -0.231069
   119  C   -0.050615
   120  C    0.238151
   121  O   -0.235937
   122  O   -0.346752
   123  C    0.130794
   124  H    0.013634
   125  H   -0.019982
   126  H    0.003331
   127  H    0.035239
   128  H    0.061594
   129  H    0.033396
   130  H    0.044491
   131  H    0.040366
   132  H    0.041133
   133  H    0.041310
   134  H    0.087246
   135  H    0.047439
   136  H    0.029825
   137  H    0.048549
   138  H    0.062082
   139  H    0.066409
   140  H    0.056714
   141  H    0.054703
   142  H    0.040378
   143  H    0.018081
   144  H    0.043564
   145  H    0.031195
   146  H    0.046327
   147  H    0.037501
   148  H    0.032160
   149  H    0.053220
   150  H    0.028091
   151  H    0.026638
   152  H    0.054288
   153  H    0.056613
   154  H    0.063026
   155  H    0.067951
   156  H    0.072781
   157  H    0.059173
   158  H    0.067087
 Sum of Mulliken charges =  -0.00000

 Dipole moment (field-independent basis, Debye):
    X=             -1.6647    Y=              3.2574    Z=             -3.6449  Tot=              5.1640
 Quadrupole moment (field-independent basis, Debye-Ang):
   XX=           -188.1674   YY=           -554.7255   ZZ=           -480.0531
   XY=            -42.9073   XZ=             31.9997   YZ=             -8.9562

 Normal termination of Gaussian 16 at Sun Sep 19 21:48:46 2021.
