 Gaussian 16, Revision A.03,
 Gaussian 16:  ES64L-G16RevA.03 25-Dec-2016

 --------------------------------
 #p wB97XD/Def2SVP td=(nstates=5)
 --------------------------------

 --------------------------------
 TDDFT excited states in gaussian
 --------------------------------
 Symbolic Z-matrix:
 Charge =  0 Multiplicity = 1

                         Standard orientation:
 ---------------------------------------------------------------------
 Center     Atomic      Atomic             Coordinates (Angstroms)
 Number     Number       Type             X           Y           Z
 ---------------------------------------------------------------------
      1         12           0       25.940140   -0.764880    0.142260
      2          6           0       27.043493    2.482801   -0.416787
      3          6           0       25.743195   -0.112151    3.441452
      4          6           0       25.637242   -4.078024    0.750914
      5          6           0       26.959682   -1.593475   -3.148289
      6          7           0       26.278332    1.018148    1.253948
      7          6           0       26.575147    2.309359    0.875530
      8          6           0       26.653003    3.236662    2.119532
      9          6           0       26.770626    2.190659    3.270712
     10          6           0       26.119579    0.962503    2.651747
     11          6           0       28.239866    1.869058    3.718493
     12          6           0       25.475289    4.225565    2.044306
     13          6           0       25.825295    5.618307    2.407788
     14          1           0       24.894594    6.635046    1.921832
     15          7           0       25.502762   -1.864711    1.830240
     16          6           0       25.403164   -1.381133    3.095436
     17          6           0       24.770716   -2.382403    3.916986
     18          6           0       24.735099   -3.573585    3.105845
     19          6           0       25.392270   -3.216755    1.845103
     20          6           0       24.404221   -2.169064    5.341972
     21          6           0       24.296330   -5.036305    3.441196
     22          8           0       24.322588   -5.948896    2.612960
     23          6           0       23.676851   -5.379700    4.767053
     24          7           0       26.598197   -2.591997   -0.972222
     25          6           0       26.200713   -3.872858   -0.500639
     26          6           0       26.381229   -4.959319   -1.508518
     27          6           0       26.587431   -4.064237   -2.773527
     28          6           0       26.656810   -2.623263   -2.274817
     29          6           0       27.557481   -5.943249   -1.189838
     30          6           0       25.436237   -4.207194   -3.835065
     31          6           0       23.995393   -4.031364   -3.291534
     32          7           0       26.719597    0.222476   -1.509666
     33          6           0       27.036685   -0.231497   -2.799270
     34          6           0       27.501955    0.893993   -3.519701
     35          6           0       27.487295    1.960025   -2.628862
     36          6           0       27.022473    1.496101   -1.442590
     37          6           0       27.872059    0.904743   -4.968687
     38          6           0       27.843068    3.294570   -2.496520
     39          8           0       28.343069    4.066701   -3.334768
     40          6           0       27.577513    3.783420   -1.040729
     41          6           0       26.544138    4.937487   -1.230022
     42          8           0       25.364382    4.796754   -1.598350
     43          8           0       27.177410    6.136295   -0.920495
     44          6           0       26.481213    7.417048   -1.263332
     45          1           0       25.811361    0.192453    4.487960
     46          1           0       25.454939   -5.154884    0.718974
     47          1           0       27.089037   -1.743969   -4.222155
     48          1           0       27.526386    3.884644    2.054045
     49          1           0       26.149664    2.510178    4.107096
     50          1           0       29.026537    2.457119    3.244942
     51          1           0       28.515194    0.856267    3.427089
     52          1           0       28.331646    2.073142    4.785079
     53          1           0       24.778637    3.907242    2.818575
     54          1           0       25.053083    4.160061    1.041168
     55          1           0       26.778591    5.817608    1.918016
     56          1           0       25.994313    5.662280    3.483527
     57          1           0       24.343410   -1.108091    5.583588
     58          1           0       25.039887   -2.808678    5.955207
     59          1           0       23.389868   -2.531711    5.508694
     60          1           0       23.883825   -6.442579    4.893814
     61          1           0       22.594672   -5.251353    4.734721
     62          1           0       24.142639   -4.836677    5.589994
     63          1           0       25.490246   -5.568707   -1.666196
     64          1           0       27.539416   -4.327491   -3.235655
     65          1           0       28.248539   -5.455965   -0.501490
     66          1           0       28.157363   -6.281367   -2.034922
     67          1           0       27.277632   -6.883271   -0.713420
     68          1           0       25.603065   -5.167001   -4.324279
     69          1           0       25.695511   -3.461052   -4.586088
     70          1           0       23.460796   -3.213869   -3.775692
     71          1           0       24.086190   -3.858679   -2.218775
     72          1           0       23.381203   -4.920043   -3.433753
     73          1           0       28.895240    1.278308   -5.008315
     74          1           0       27.152320    1.536318   -5.489424
     75          1           0       27.908657   -0.072417   -5.450426
     76          1           0       28.504681    4.200875   -0.648957
     77          1           0       26.339082    7.402344   -2.343688
     78          1           0       26.982737    8.350731   -1.008942
     79          1           0       25.574958    7.229825   -0.687286
     80         12           0      -26.730627   -0.435786   -0.168857
     81          6           0      -24.629770    2.396700   -0.352291
     82          6           0      -28.362250    0.957601    2.490925
     83          6           0      -28.161085   -3.362036    0.341962
     84          6           0      -24.655585   -1.972626   -2.601588
     85          7           0      -26.566504    1.530405    0.852945
     86          6           0      -25.678925    2.470410    0.594558
     87          6           0      -26.130427    3.750626    1.273962
     88          6           0      -27.000127    3.229312    2.482112
     89          6           0      -27.347540    1.794186    1.936315
     90          6           0      -26.208389    3.319643    3.841796
     91          6           0      -27.013494    4.632120    0.353839
     92          6           0      -27.110443    6.169183    0.756260
     93          1           0      -26.404780    6.728450    1.994573
     94          7           0      -28.195739   -1.037269    1.065788
     95          6           0      -28.841269   -0.303968    2.094230
     96          6           0      -29.911620   -1.153561    2.666639
     97          6           0      -29.789626   -2.464165    2.079902
     98          6           0      -28.686087   -2.377879    1.098907
     99          6           0      -30.902056   -0.675409    3.668897
    100          6           0      -30.592765   -3.808068    2.279435
    101          8           0      -30.406544   -4.834099    1.611147
    102          6           0      -31.545486   -3.901597    3.435857
    103          7           0      -26.370490   -2.451562   -0.940620
    104          6           0      -27.126971   -3.465085   -0.612502
    105          6           0      -26.827382   -4.749446   -1.333456
    106          6           0      -25.670436   -4.318564   -2.302023
    107          6           0      -25.600537   -2.785540   -2.012013
    108          6           0      -26.582258   -5.905520   -0.359333
    109          6           0      -25.940017   -4.588297   -3.777054
    110          6           0      -24.729484   -5.109854   -4.631335
    111          7           0      -24.997690    0.069457   -1.373150
    112          6           0      -24.299828   -0.662455   -2.353786
    113          6           0      -23.359415    0.199781   -2.982854
    114          6           0      -23.303816    1.356459   -2.141544
    115          6           0      -24.327306    1.252085   -1.233992
    116          6           0      -22.644631   -0.076211   -4.274502
    117          6           0      -22.762767    2.713655   -1.889101
    118          8           0      -21.875298    3.317394   -2.455102
    119          6           0      -23.457019    3.277109   -0.559320
    120          6           0      -23.565652    4.765963   -0.610410
    121          8           0      -24.173446    5.411054   -1.412975
    122          8           0      -22.762248    5.371637    0.373741
    123          6           0      -22.207167    6.702338    0.047292
    124          1           0      -28.793037    1.246865    3.452204
    125          1           0      -28.664429   -4.330411    0.330249
    126          1           0      -24.085639   -2.450890   -3.400979
    127          1           0      -25.192550    4.282211    1.434571
    128          1           0      -27.919499    3.805336    2.592497
    129          1           0      -25.206354    3.711123    3.669606
    130          1           0      -26.046590    2.275202    4.108466
    131          1           0      -26.667865    3.958109    4.596449
    132          1           0      -28.006722    4.188415    0.433818
    133          1           0      -26.637736    4.509479   -0.661906
    134          1           0      -28.181640    6.360772    0.835323
    135          1           0      -26.772709    6.706955   -0.129984
    136          1           0      -30.966416    0.390211    3.885961
    137          1           0      -30.727848   -1.099138    4.657544
    138          1           0      -31.861006   -0.972417    3.243549
    139          1           0      -32.550251   -3.542148    3.214229
    140          1           0      -31.001075   -3.292471    4.158489
    141          1           0      -31.535943   -4.946029    3.746368
    142          1           0      -27.751697   -4.912158   -1.887622
    143          1           0      -24.709229   -4.778140   -2.075174
    144          1           0      -26.229501   -5.588751    0.622639
    145          1           0      -25.779093   -6.488714   -0.808057
    146          1           0      -27.467560   -6.523490   -0.207873
    147          1           0      -26.297464   -3.690744   -4.281479
    148          1           0      -26.835181   -5.209978   -3.768689
    149          1           0      -23.798454   -5.077772   -4.065683
    150          1           0      -24.659259   -4.402862   -5.457710
    151          1           0      -24.788767   -6.103688   -5.076264
    152          1           0      -22.243241   -1.083266   -4.160225
    153          1           0      -21.818081    0.601128   -4.490052
    154          1           0      -23.361444   -0.108720   -5.095622
    155          1           0      -22.761398    3.155271    0.270345
    156          1           0      -22.638697    7.422158    0.742966
    157          1           0      -22.400683    6.990054   -0.986673
    158          1           0      -21.133588    6.610332    0.211607
 ---------------------------------------------------------------------

 SCF Done:  E(RwB97XD) =  -4070.60398462     A.U. after   19 cycles

 Excitation energies and oscillator strengths:

 Excited State   1:      Singlet-A      1.6038 eV  773.05 nm  f=0.3771  <S**2>=0.000
     309 -> 316       -0.16816
     312 -> 313        0.68668
     309 <- 316       -0.11353
 This state for optimization and/or second-order correction.
 Total Energy, E(TD-HF/TD-DFT) =  -4070.54504521
 Copying the excited state density for this state as the 1-particle RhoCI density.

 Excited State   2:      Singlet-A      1.7665 eV  701.86 nm  f=0.3729  <S**2>=0.000
     310 -> 315       -0.19124
     311 -> 314        0.67832
     310 <- 315       -0.11017

 Excited State   3:      Singlet-A      2.1197 eV  584.92 nm  f=0.0961  <S**2>=0.000
     310 -> 314        0.63986
     311 -> 315        0.27491

 Excited State   4:      Singlet-A      2.1619 eV  573.49 nm  f=0.1249  <S**2>=0.000
     309 -> 313        0.64151
     312 -> 316        0.27558

 Excited State   5:      Singlet-A      3.2511 eV  381.36 nm  f=0.0002  <S**2>=0.000
     304 -> 313        0.18459
     304 -> 318       -0.10971
     304 -> 319        0.12691
     306 -> 313        0.55403
     307 -> 313       -0.31530

 The electronic state is 1-A.
 Alpha  occ. eigenvalues --  -46.94867 -46.94657 -19.29974 -19.28468 -19.25424
 Alpha  occ. eigenvalues --  -19.24967 -19.24448 -19.23724 -19.23323 -19.22740
 Alpha  occ. eigenvalues --  -14.46545 -14.46520 -14.46316 -14.46056 -14.44439
 Alpha  occ. eigenvalues --  -14.43903 -14.43097 -14.42567 -10.43926 -10.42362
 Alpha  occ. eigenvalues --  -10.40859 -10.39223 -10.38760 -10.37656 -10.36338
 Alpha  occ. eigenvalues --  -10.35727 -10.35713 -10.34999 -10.34955 -10.34900
 Alpha  occ. eigenvalues --  -10.34649 -10.34582 -10.34543 -10.34322 -10.34217
 Alpha  occ. eigenvalues --  -10.34200 -10.34060 -10.33662 -10.33433 -10.33354
 Alpha  occ. eigenvalues --  -10.33147 -10.32389 -10.32328 -10.32324 -10.32257
 Alpha  occ. eigenvalues --  -10.32194 -10.32174 -10.31986 -10.31980 -10.31960
 Alpha  occ. eigenvalues --  -10.31950 -10.31810 -10.31804 -10.31787 -10.31736
 Alpha  occ. eigenvalues --  -10.31657 -10.31652 -10.31614 -10.31590 -10.31575
 Alpha  occ. eigenvalues --  -10.31391 -10.31233 -10.31041 -10.30898 -10.30821
 Alpha  occ. eigenvalues --  -10.30773 -10.30746 -10.30513 -10.30315 -10.30231
 Alpha  occ. eigenvalues --  -10.30138 -10.30125 -10.29955 -10.29949 -10.29918
 Alpha  occ. eigenvalues --  -10.29769 -10.29718 -10.29692 -10.29675 -10.29655
 Alpha  occ. eigenvalues --  -10.29622 -10.29538 -10.29407 -10.29383 -10.28371
 Alpha  occ. eigenvalues --  -10.27803  -3.20779  -3.20685  -1.94381  -1.94253
 Alpha  occ. eigenvalues --   -1.93901  -1.93814  -1.93740  -1.93659  -1.17306
 Alpha  occ. eigenvalues --   -1.16583  -1.12780  -1.11700  -1.11647  -1.10176
 Alpha  occ. eigenvalues --   -1.09168  -1.08852  -1.07104  -1.06845  -1.06510
 Alpha  occ. eigenvalues --   -1.05907  -1.05507  -1.04220  -1.03656  -1.03077
 Alpha  occ. eigenvalues --   -0.94532  -0.93730  -0.91156  -0.91001  -0.90901
 Alpha  occ. eigenvalues --   -0.90850  -0.90439  -0.89691  -0.89669  -0.89538
 Alpha  occ. eigenvalues --   -0.89179  -0.89060  -0.88457  -0.87314  -0.86475
 Alpha  occ. eigenvalues --   -0.85908  -0.85578  -0.85428  -0.84843  -0.84040
 Alpha  occ. eigenvalues --   -0.83599  -0.83503  -0.82922  -0.82572  -0.82332
 Alpha  occ. eigenvalues --   -0.81800  -0.80619  -0.80135  -0.79081  -0.78970
 Alpha  occ. eigenvalues --   -0.78843  -0.78282  -0.77943  -0.77376  -0.77290
 Alpha  occ. eigenvalues --   -0.77087  -0.75225  -0.74455  -0.73985  -0.73684
 Alpha  occ. eigenvalues --   -0.71745  -0.71689  -0.70733  -0.70604  -0.69503
 Alpha  occ. eigenvalues --   -0.69230  -0.68636  -0.68470  -0.67946  -0.67311
 Alpha  occ. eigenvalues --   -0.67106  -0.66573  -0.66548  -0.66436  -0.66024
 Alpha  occ. eigenvalues --   -0.65439  -0.63579  -0.63015  -0.62266  -0.61857
 Alpha  occ. eigenvalues --   -0.61741  -0.61118  -0.61085  -0.60572  -0.60418
 Alpha  occ. eigenvalues --   -0.60014  -0.59544  -0.59533  -0.58946  -0.58771
 Alpha  occ. eigenvalues --   -0.58464  -0.57928  -0.57547  -0.57399  -0.57251
 Alpha  occ. eigenvalues --   -0.57013  -0.56953  -0.56708  -0.56148  -0.55675
 Alpha  occ. eigenvalues --   -0.55423  -0.55132  -0.55056  -0.54949  -0.54878
 Alpha  occ. eigenvalues --   -0.54753  -0.54751  -0.54364  -0.54135  -0.53922
 Alpha  occ. eigenvalues --   -0.53839  -0.53668  -0.53617  -0.53378  -0.53272
 Alpha  occ. eigenvalues --   -0.53161  -0.52858  -0.52446  -0.52402  -0.52258
 Alpha  occ. eigenvalues --   -0.52066  -0.51935  -0.51540  -0.51320  -0.51177
 Alpha  occ. eigenvalues --   -0.51078  -0.50834  -0.50802  -0.50669  -0.50637
 Alpha  occ. eigenvalues --   -0.50433  -0.50242  -0.50010  -0.49939  -0.49887
 Alpha  occ. eigenvalues --   -0.49750  -0.49621  -0.49472  -0.49305  -0.49224
 Alpha  occ. eigenvalues --   -0.48985  -0.48929  -0.48550  -0.48501  -0.48436
 Alpha  occ. eigenvalues --   -0.48188  -0.48080  -0.47873  -0.47627  -0.47492
 Alpha  occ. eigenvalues --   -0.47375  -0.47342  -0.46950  -0.46757  -0.46528
 Alpha  occ. eigenvalues --   -0.46387  -0.46158  -0.46059  -0.45884  -0.45666
 Alpha  occ. eigenvalues --   -0.45640  -0.45363  -0.45359  -0.45320  -0.45100
 Alpha  occ. eigenvalues --   -0.45011  -0.44985  -0.44709  -0.44581  -0.44530
 Alpha  occ. eigenvalues --   -0.44284  -0.44207  -0.43933  -0.43841  -0.43737
 Alpha  occ. eigenvalues --   -0.43610  -0.43492  -0.43456  -0.43261  -0.43058
 Alpha  occ. eigenvalues --   -0.43039  -0.42898  -0.42791  -0.42589  -0.42138
 Alpha  occ. eigenvalues --   -0.42018  -0.41887  -0.41848  -0.41038  -0.40967
 Alpha  occ. eigenvalues --   -0.40688  -0.40164  -0.39951  -0.39711  -0.39596
 Alpha  occ. eigenvalues --   -0.39269  -0.38871  -0.38523  -0.38373  -0.38066
 Alpha  occ. eigenvalues --   -0.37670  -0.37345  -0.36213  -0.36148  -0.36087
 Alpha  occ. eigenvalues --   -0.35779  -0.35452  -0.35207  -0.33919  -0.33520
 Alpha  occ. eigenvalues --   -0.33407  -0.32720  -0.32508  -0.32031  -0.32025
 Alpha  occ. eigenvalues --   -0.31898  -0.31520  -0.30387  -0.26141  -0.25662
 Alpha  occ. eigenvalues --   -0.23151  -0.22982
 Alpha virt. eigenvalues --   -0.07338  -0.06813  -0.00092   0.00450   0.01890
 Alpha virt. eigenvalues --    0.02622   0.04482   0.04887   0.05418   0.06039
 Alpha virt. eigenvalues --    0.06991   0.07152   0.07444   0.08113   0.09049

 Mulliken charges:
               1
     1  Mg   0.955871
     2  C   -0.066920
     3  C   -0.119128
     4  C   -0.020959
     5  C   -0.102708
     6  N   -0.406891
     7  C    0.020045
     8  C   -0.101566
     9  C   -0.087839
    10  C    0.034032
    11  C    0.034865
    12  C    0.039912
    13  C   -0.123666
    14  H    0.052847
    15  N   -0.463819
    16  C    0.229558
    17  C   -0.175606
    18  C   -0.078302
    19  C    0.188271
    20  C    0.069185
    21  C    0.055816
    22  O   -0.248583
    23  C   -0.006171
    24  N   -0.316549
    25  C   -0.057233
    26  C   -0.058156
    27  C   -0.099670
    28  C    0.111760
    29  C    0.018210
    30  C   -0.021965
    31  C   -0.053860
    32  N   -0.434966
    33  C    0.117048
    34  C   -0.197937
    35  C    0.054032
    36  C    0.194220
    37  C    0.092959
    38  C    0.016736
    39  O   -0.242769
    40  C   -0.028743
    41  C    0.287544
    42  O   -0.268754
    43  O   -0.389769
    44  C    0.142325
    45  H   -0.000938
    46  H    0.018617
    47  H    0.002550
    48  H    0.020113
    49  H    0.019447
    50  H    0.035605
    51  H    0.053060
    52  H    0.043461
    53  H    0.021641
    54  H    0.065542
    55  H    0.039928
    56  H    0.040145
    57  H    0.041104
    58  H    0.067689
    59  H    0.043136
    60  H    0.054685
    61  H    0.075069
    62  H    0.027160
    63  H    0.045802
    64  H    0.030917
    65  H    0.039587
    66  H    0.032765
    67  H    0.042650
    68  H    0.031240
    69  H    0.022899
    70  H    0.046467
    71  H    0.045732
    72  H    0.042288
    73  H    0.058133
    74  H    0.068020
    75  H    0.019633
    76  H    0.066920
    77  H    0.068322
    78  H    0.069552
    79  H    0.058348
    80  Mg   0.949357
    81  C    0.045843
    82  C   -0.095103
    83  C   -0.065682
    84  C   -0.086048
    85  N   -0.313965
    86  C    0.000938
    87  C   -0.120487
    88  C   -0.103281
    89  C    0.089389
    90  C    0.035019
    91  C   -0.006430
    92  C   -0.094860
    93  H    0.041425
    94  N   -0.554545
    95  C    0.176040
    96  C   -0.150977
    97  C   -0.082767
    98  C    0.208181
    99  C    0.034998
   100  C    0.081964
   101  O   -0.237311
   102  C   -0.013142
   103  N   -0.304499
   104  C   -0.029616
   105  C   -0.047687
   106  C   -0.103723
   107  C    0.058221
   108  C    0.030142
   109  C   -0.003899
   110  C   -0.057099
   111  N   -0.438143
   112  C    0.134214
   113  C   -0.193297
   114  C   -0.035315
   115  C    0.077279
   116  C    0.080577
   117  C    0.135349
   118  O   -0.202628
   119  C   -0.093329
   120  C    0.221047
   121  O   -0.208218
   122  O   -0.410335
   123  C    0.136737
   124  H    0.001475
   125  H    0.012949
   126  H   -0.022038
   127  H    0.032018
   128  H    0.036194
   129  H    0.038420
   130  H    0.032947
   131  H    0.048364
   132  H    0.023410
   133  H    0.054550
   134  H    0.041797
   135  H    0.065413
   136  H    0.043014
   137  H    0.065293
   138  H    0.060768
   139  H    0.080012
   140  H    0.041582
   141  H    0.065172
   142  H    0.042244
   143  H    0.040190
   144  H    0.046665
   145  H    0.033120
   146  H    0.056298
   147  H    0.030820
   148  H    0.022366
   149  H    0.035964
   150  H    0.038521
   151  H    0.045680
   152  H    0.035929
   153  H    0.058417
   154  H    0.050942
   155  H    0.080247
   156  H    0.051946
   157  H    0.069271
   158  H    0.055709
 Sum of Mulliken charges =  -0.00000

 Dipole moment (field-independent basis, Debye):
    X=             -4.5710    Y=             -3.3186    Z=              7.1426  Tot=              9.1062
 Quadrupole moment (field-independent basis, Debye-Ang):
   XX=           -320.9927   YY=           -505.8219   ZZ=           -473.6710
   XY=             30.0170   XZ=             -8.0433   YZ=             47.1028

 Normal termination of Gaussian 16 at Sun Sep 19 08:20:50 2021.
