 Gaussian 16, Revision A.03,
 Gaussian 16:  ES64L-G16RevA.03 25-Dec-2016

 --------------------------------
 #p wB97XD/Def2SVP td=(nstates=5)
 --------------------------------

 --------------------------------
 TDDFT excited states in gaussian
 --------------------------------
 Symbolic Z-matrix:
 Charge =  0 Multiplicity = 1

                         Standard orientation:
 ---------------------------------------------------------------------
 Center     Atomic      Atomic             Coordinates (Angstroms)
 Number     Number       Type             X           Y           Z
 ---------------------------------------------------------------------
      1         12           0       28.675790    0.424389    0.538263
      2          6           0       28.650528   -2.191448   -1.749556
      3          6           0       28.716122    2.629254   -2.008590
      4          6           0       29.482507    2.882739    2.716532
      5          6           0       29.466296   -1.912261    3.081669
      6          7           0       28.592649    0.150922   -1.570698
      7          6           0       28.428647   -0.967183   -2.359031
      8          6           0       28.378886   -0.571716   -3.860571
      9          6           0       28.958509    0.875659   -3.812433
     10          6           0       28.640355    1.297984   -2.385630
     11          6           0       30.500561    0.975178   -4.085875
     12          6           0       26.955697   -0.854869   -4.375308
     13          6           0       26.906557   -1.479526   -5.717598
     14          1           0       25.654827   -2.164673   -6.033608
     15          7           0       28.817674    2.474772    0.377014
     16          6           0       28.739053    3.193212   -0.772835
     17          6           0       28.554946    4.581197   -0.430670
     18          6           0       28.781169    4.656132    0.991069
     19          6           0       29.129113    3.295604    1.411274
     20          6           0       28.327898    5.654892   -1.433688
     21          6           0       28.858199    5.881237    1.959424
     22          8           0       29.055326    5.764921    3.170662
     23          6           0       28.550100    7.272857    1.481891
     24          7           0       29.711762    0.431006    2.523252
     25          6           0       29.789668    1.643711    3.260996
     26          6           0       30.162316    1.445074    4.692946
     27          6           0       29.919628   -0.096859    4.779457
     28          6           0       29.608485   -0.564135    3.360029
     29          6           0       31.614028    1.911956    5.050434
     30          6           0       28.740509   -0.491221    5.742110
     31          6           0       27.397800    0.242819    5.495749
     32          7           0       28.895641   -1.633360    0.707438
     33          6           0       29.167196   -2.450806    1.815478
     34          6           0       29.168655   -3.784210    1.341920
     35          6           0       28.943593   -3.711614   -0.027135
     36          6           0       28.800239   -2.402466   -0.349789
     37          6           0       29.327435   -5.006138    2.189467
     38          6           0       28.887867   -4.481238   -1.180249
     39          8           0       29.015010   -5.711696   -1.316827
     40          6           0       28.675697   -3.571769   -2.427915
     41          6           0       27.323388   -4.079123   -3.019032
     42          8           0       26.206123   -3.936374   -2.491173
     43          8           0       27.593817   -4.716018   -4.225355
     44          6           0       26.500961   -5.511785   -4.869541
     45          1           0       28.822283    3.234518   -2.911359
     46          1           0       29.635961    3.530485    3.582995
     47          1           0       29.495753   -2.684553    3.853204
     48          1           0       28.995952   -1.248608   -4.450499
     49          1           0       28.382973    1.512314   -4.483739
     50          1           0       31.001503    0.045950   -4.358839
     51          1           0       31.032575    1.254448   -3.177338
     52          1           0       30.662348    1.646710   -4.928817
     53          1           0       26.495937    0.123026   -4.511281
     54          1           0       26.448023   -1.461350   -3.624787
     55          1           0       27.681536   -2.246173   -5.711939
     56          1           0       27.191375   -0.731436   -6.457162
     57          1           0       27.977056    5.247395   -2.381630
     58          1           0       29.202364    6.306454   -1.437072
     59          1           0       27.503616    6.286198   -1.101674
     60          1           0       29.086940    7.920581    2.175343
     61          1           0       27.485899    7.489426    1.577832
     62          1           0       28.929498    7.454330    0.475814
     63          1           0       29.488035    1.934255    5.397299
     64          1           0       30.838486   -0.576060    5.118879
     65          1           0       32.205593    1.956966    4.135637
     66          1           0       32.174249    1.285477    5.744716
     67          1           0       31.699215    2.898158    5.507685
     68          1           0       29.128434   -0.362082    6.752669
     69          1           0       28.659800   -1.569953    5.608648
     70          1           0       26.580893   -0.441733    5.266505
     71          1           0       27.569065    0.937408    4.672894
     72          1           0       27.072062    0.823797    6.358051
     73          1           0       30.173107   -5.549106    1.767515
     74          1           0       28.388067   -5.557869    2.153986
     75          1           0       29.598797   -4.823389    3.229284
     76          1           0       29.473058   -3.782138   -3.140203
     77          1           0       26.231952   -6.288062   -4.153570
     78          1           0       26.721136   -6.000060   -5.818812
     79          1           0       25.777793   -4.699809   -4.946354
     80         12           0      -29.375804   -0.593588   -0.449425
     81          6           0      -26.904114    1.729000   -1.532697
     82          6           0      -26.949200   -2.990374   -0.133581
     83          6           0      -31.547953   -2.457509    1.564185
     84          6           0      -31.675007    2.055388   -0.237150
     85          7           0      -27.049368   -0.453163   -0.590335
     86          6           0      -26.327695    0.465375   -1.253074
     87          6           0      -25.020955   -0.156604   -1.710387
     88          6           0      -24.985311   -1.677550   -1.202069
     89          6           0      -26.525057   -1.731135   -0.727855
     90          6           0      -24.670305   -2.596610   -2.403683
     91          6           0      -23.832926    0.644316   -1.202251
     92          6           0      -23.946106    1.233117    0.224036
     93          1           0      -23.092868    0.556421    1.331442
     94          7           0      -29.301608   -2.543216    0.523865
     95          6           0      -28.166824   -3.324779    0.513175
     96          6           0      -28.552072   -4.575147    1.088621
     97          6           0      -29.860540   -4.461834    1.695833
     98          6           0      -30.344817   -3.131822    1.247143
     99          6           0      -27.587457   -5.726403    1.255466
    100          6           0      -30.520731   -5.417715    2.690736
    101          8           0      -29.917684   -6.397050    3.085384
    102          6           0      -31.838032   -5.222282    3.217908
    103          7           0      -31.286181   -0.227457    0.615172
    104          6           0      -31.993629   -1.175700    1.211456
    105          6           0      -33.318697   -0.680085    1.767407
    106          6           0      -33.158156    0.875861    1.486570
    107          6           0      -32.028270    0.928786    0.522594
    108          6           0      -34.605217   -1.324285    1.053168
    109          6           0      -32.953325    1.673134    2.856099
    110          6           0      -34.017061    2.605625    3.362500
    111          7           0      -29.417287    1.336576   -1.008138
    112          6           0      -30.473031    2.270344   -0.976922
    113          6           0      -30.076410    3.526107   -1.640841
    114          6           0      -28.718901    3.302411   -1.869937
    115          6           0      -28.286168    2.022761   -1.374934
    116          6           0      -30.958499    4.743140   -2.086613
    117          6           0      -27.526398    3.958588   -2.415598
    118          8           0      -27.333845    5.064285   -2.947822
    119          6           0      -26.314824    2.983946   -2.244225
    120          6           0      -25.466165    3.797745   -1.329381
    121          8           0      -25.801111    4.203050   -0.245899
    122          8           0      -24.327353    4.124102   -1.933794
    123          6           0      -23.273638    4.875948   -1.166759
    124          1           0      -26.268768   -3.825558   -0.311447
    125          1           0      -32.346435   -2.947352    2.125032
    126          1           0      -32.417631    2.827812   -0.024109
    127          1           0      -25.151468   -0.021852   -2.784148
    128          1           0      -24.279719   -1.829317   -0.384808
    129          1           0      -23.751044   -3.138907   -2.183289
    130          1           0      -24.491355   -2.070325   -3.341642
    131          1           0      -25.497127   -3.304123   -2.460012
    132          1           0      -23.643909    1.481154   -1.874673
    133          1           0      -22.941210    0.018425   -1.156964
    134          1           0      -24.907324    1.152192    0.731402
    135          1           0      -23.659230    2.278293    0.107668
    136          1           0      -26.582284   -5.464846    0.923853
    137          1           0      -28.023574   -6.594881    0.760668
    138          1           0      -27.609064   -6.015365    2.305661
    139          1           0      -31.968132   -4.332887    3.834848
    140          1           0      -32.107124   -6.076644    3.838707
    141          1           0      -32.442192   -5.116374    2.316217
    142          1           0      -33.406025   -0.765749    2.850225
    143          1           0      -34.168968    1.135828    1.171770
    144          1           0      -34.281906   -2.070043    0.326346
    145          1           0      -35.102812   -0.523346    0.506032
    146          1           0      -35.363055   -1.741838    1.717857
    147          1           0      -32.126968    2.380074    2.781232
    148          1           0      -32.742304    0.990044    3.677731
    149          1           0      -33.806439    3.658723    3.175993
    150          1           0      -33.950517    2.388858    4.429163
    151          1           0      -35.039441    2.298731    3.141301
    152          1           0      -31.199459    5.320019   -1.194143
    153          1           0      -31.821669    4.335682   -2.613191
    154          1           0      -30.351419    5.393771   -2.715823
    155          1           0      -25.925617    2.811605   -3.248350
    156          1           0      -23.433242    5.954407   -1.175177
    157          1           0      -22.279515    4.685304   -1.573123
    158          1           0      -23.326121    4.469913   -0.156586
 ---------------------------------------------------------------------

 SCF Done:  E(RwB97XD) =  -4070.57688104     A.U. after   19 cycles

 Excitation energies and oscillator strengths:

 Excited State   1:      Singlet-A      1.6038 eV  773.05 nm  f=0.3719  <S**2>=0.000
     310 -> 316       -0.16816
     312 -> 313        0.68667
     310 <- 316       -0.11353
 This state for optimization and/or second-order correction.
 Total Energy, E(TD-HF/TD-DFT) =  -4070.51794121
 Copying the excited state density for this state as the 1-particle RhoCI density.

 Excited State   2:      Singlet-A      1.6285 eV  761.33 nm  f=0.3563  <S**2>=0.000
     309 -> 315       -0.20687
     311 -> 314        0.67851
     309 <- 315       -0.12523

 Excited State   3:      Singlet-A      2.1415 eV  578.96 nm  f=0.0704  <S**2>=0.000
     309 -> 314        0.61695
     311 -> 315        0.33159

 Excited State   4:      Singlet-A      2.1620 eV  573.48 nm  f=0.1248  <S**2>=0.000
     310 -> 313        0.64157
     312 -> 316        0.27547

 Excited State   5:      Singlet-A      3.1855 eV  389.22 nm  f=0.0153  <S**2>=0.000
     308 -> 314        0.65686
     308 -> 317        0.10729
     311 -> 315       -0.20196

 The electronic state is 1-A.
 Alpha  occ. eigenvalues --  -46.96546 -46.94669 -19.30295 -19.29990 -19.24984
 Alpha  occ. eigenvalues --  -19.23910 -19.23794 -19.23738 -19.23089 -19.22754
 Alpha  occ. eigenvalues --  -14.47018 -14.46568 -14.46558 -14.46073 -14.44751
 Alpha  occ. eigenvalues --  -14.44153 -14.43917 -14.43113 -10.43942 -10.42570
 Alpha  occ. eigenvalues --  -10.39236 -10.39003 -10.38265 -10.37670 -10.36227
 Alpha  occ. eigenvalues --  -10.36117 -10.35729 -10.35401 -10.35015 -10.35013
 Alpha  occ. eigenvalues --  -10.35012 -10.34732 -10.34720 -10.34557 -10.34336
 Alpha  occ. eigenvalues --  -10.34232 -10.34215 -10.33969 -10.33915 -10.33369
 Alpha  occ. eigenvalues --  -10.33161 -10.33005 -10.32949 -10.32811 -10.32441
 Alpha  occ. eigenvalues --  -10.32404 -10.32384 -10.32342 -10.32338 -10.32225
 Alpha  occ. eigenvalues --  -10.32220 -10.32208 -10.32199 -10.31974 -10.31902
 Alpha  occ. eigenvalues --  -10.31819 -10.31801 -10.31727 -10.31604 -10.31589
 Alpha  occ. eigenvalues --  -10.31471 -10.31247 -10.31146 -10.31055 -10.30992
 Alpha  occ. eigenvalues --  -10.30913 -10.30867 -10.30786 -10.30682 -10.30547
 Alpha  occ. eigenvalues --  -10.30527 -10.30340 -10.30329 -10.30245 -10.30080
 Alpha  occ. eigenvalues --  -10.29963 -10.29826 -10.29783 -10.29687 -10.29670
 Alpha  occ. eigenvalues --  -10.29637 -10.29504 -10.29398 -10.29319 -10.28989
 Alpha  occ. eigenvalues --  -10.27817  -3.22340  -3.20698  -1.95885  -1.95488
 Alpha  occ. eigenvalues --   -1.95273  -1.94266  -1.93826  -1.93672  -1.19236
 Alpha  occ. eigenvalues --   -1.16599  -1.12428  -1.11660  -1.11041  -1.10191
 Alpha  occ. eigenvalues --   -1.09902  -1.08868  -1.06859  -1.06600  -1.05922
 Alpha  occ. eigenvalues --   -1.05677  -1.05521  -1.04431  -1.04233  -1.03662
 Alpha  occ. eigenvalues --   -0.94547  -0.93923  -0.91015  -0.90916  -0.90835
 Alpha  occ. eigenvalues --   -0.90680  -0.90453  -0.90166  -0.89705  -0.89075
 Alpha  occ. eigenvalues --   -0.89026  -0.88471  -0.88073  -0.87335  -0.86601
 Alpha  occ. eigenvalues --   -0.86489  -0.85921  -0.85442  -0.84783  -0.84529
 Alpha  occ. eigenvalues --   -0.84055  -0.83517  -0.83057  -0.82937  -0.82347
 Alpha  occ. eigenvalues --   -0.82212  -0.80149  -0.79842  -0.79294  -0.78984
 Alpha  occ. eigenvalues --   -0.78857  -0.78339  -0.78212  -0.77957  -0.77390
 Alpha  occ. eigenvalues --   -0.76917  -0.75240  -0.74851  -0.73999  -0.73720
 Alpha  occ. eigenvalues --   -0.71703  -0.70854  -0.70747  -0.70449  -0.70096
 Alpha  occ. eigenvalues --   -0.69517  -0.68691  -0.68485  -0.67494  -0.67326
 Alpha  occ. eigenvalues --   -0.67159  -0.66776  -0.66587  -0.66450  -0.66039
 Alpha  occ. eigenvalues --   -0.66032  -0.64420  -0.63595  -0.62251  -0.61871
 Alpha  occ. eigenvalues --   -0.61755  -0.61257  -0.61132  -0.61007  -0.60639
 Alpha  occ. eigenvalues --   -0.60432  -0.59817  -0.59559  -0.59255  -0.58961
 Alpha  occ. eigenvalues --   -0.58222  -0.57943  -0.57820  -0.57562  -0.57265
 Alpha  occ. eigenvalues --   -0.56972  -0.56969  -0.56876  -0.56723  -0.56479
 Alpha  occ. eigenvalues --   -0.55818  -0.55438  -0.55394  -0.55016  -0.54963
 Alpha  occ. eigenvalues --   -0.54893  -0.54765  -0.54580  -0.54458  -0.54378
 Alpha  occ. eigenvalues --   -0.53967  -0.53853  -0.53683  -0.53632  -0.53457
 Alpha  occ. eigenvalues --   -0.53392  -0.52604  -0.52417  -0.52273  -0.52072
 Alpha  occ. eigenvalues --   -0.51736  -0.51620  -0.51555  -0.51389  -0.51334
 Alpha  occ. eigenvalues --   -0.51167  -0.51092  -0.50926  -0.50816  -0.50683
 Alpha  occ. eigenvalues --   -0.50480  -0.50448  -0.50184  -0.50025  -0.49901
 Alpha  occ. eigenvalues --   -0.49714  -0.49635  -0.49319  -0.49232  -0.48999
 Alpha  occ. eigenvalues --   -0.48911  -0.48839  -0.48536  -0.48515  -0.48204
 Alpha  occ. eigenvalues --   -0.48202  -0.47887  -0.47741  -0.47641  -0.47548
 Alpha  occ. eigenvalues --   -0.47389  -0.47239  -0.47091  -0.47034  -0.46800
 Alpha  occ. eigenvalues --   -0.46542  -0.46402  -0.46266  -0.46073  -0.45919
 Alpha  occ. eigenvalues --   -0.45681  -0.45604  -0.45498  -0.45377  -0.45373
 Alpha  occ. eigenvalues --   -0.45130  -0.45115  -0.44999  -0.44859  -0.44595
 Alpha  occ. eigenvalues --   -0.44342  -0.44299  -0.43970  -0.43855  -0.43751
 Alpha  occ. eigenvalues --   -0.43507  -0.43454  -0.43352  -0.43257  -0.43053
 Alpha  occ. eigenvalues --   -0.42805  -0.42776  -0.42604  -0.42152  -0.41996
 Alpha  occ. eigenvalues --   -0.41964  -0.41862  -0.41726  -0.41052  -0.40545
 Alpha  occ. eigenvalues --   -0.40178  -0.39965  -0.39904  -0.39385  -0.39284
 Alpha  occ. eigenvalues --   -0.39140  -0.38885  -0.38846  -0.38537  -0.38336
 Alpha  occ. eigenvalues --   -0.38082  -0.37684  -0.36193  -0.36164  -0.36101
 Alpha  occ. eigenvalues --   -0.36086  -0.35614  -0.35466  -0.33594  -0.33534
 Alpha  occ. eigenvalues --   -0.32758  -0.32733  -0.32606  -0.32384  -0.32046
 Alpha  occ. eigenvalues --   -0.31912  -0.31535  -0.31119  -0.26201  -0.26155
 Alpha  occ. eigenvalues --   -0.23120  -0.22997
 Alpha virt. eigenvalues --   -0.07352  -0.07121  -0.00663   0.00436   0.02346
 Alpha virt. eigenvalues --    0.02608   0.04140   0.04467   0.04576   0.05404
 Alpha virt. eigenvalues --    0.07137   0.07179   0.07430   0.07598   0.09234

 Mulliken charges:
               1
     1  Mg   0.955884
     2  C   -0.066795
     3  C   -0.119191
     4  C   -0.021037
     5  C   -0.102645
     6  N   -0.406734
     7  C    0.020006
     8  C   -0.101613
     9  C   -0.087864
    10  C    0.034076
    11  C    0.034862
    12  C    0.039931
    13  C   -0.123677
    14  H    0.052817
    15  N   -0.463953
    16  C    0.229700
    17  C   -0.175614
    18  C   -0.078331
    19  C    0.188241
    20  C    0.069249
    21  C    0.055837
    22  O   -0.248553
    23  C   -0.006274
    24  N   -0.316635
    25  C   -0.057222
    26  C   -0.058142
    27  C   -0.099729
    28  C    0.111763
    29  C    0.018221
    30  C   -0.021928
    31  C   -0.053879
    32  N   -0.434902
    33  C    0.116946
    34  C   -0.197874
    35  C    0.053999
    36  C    0.194240
    37  C    0.092961
    38  C    0.016691
    39  O   -0.242778
    40  C   -0.028790
    41  C    0.287497
    42  O   -0.268731
    43  O   -0.389767
    44  C    0.142344
    45  H   -0.000958
    46  H    0.018657
    47  H    0.002511
    48  H    0.020116
    49  H    0.019445
    50  H    0.035613
    51  H    0.053071
    52  H    0.043469
    53  H    0.021625
    54  H    0.065547
    55  H    0.039947
    56  H    0.040152
    57  H    0.041097
    58  H    0.067683
    59  H    0.043119
    60  H    0.054718
    61  H    0.075069
    62  H    0.027199
    63  H    0.045801
    64  H    0.030934
    65  H    0.039594
    66  H    0.032778
    67  H    0.042656
    68  H    0.031249
    69  H    0.022907
    70  H    0.046452
    71  H    0.045746
    72  H    0.042279
    73  H    0.058148
    74  H    0.068001
    75  H    0.019626
    76  H    0.066941
    77  H    0.068316
    78  H    0.069554
    79  H    0.058331
    80  Mg   0.941859
    81  C   -0.037999
    82  C   -0.073557
    83  C   -0.078434
    84  C   -0.055673
    85  N   -0.319982
    86  C   -0.053020
    87  C   -0.003103
    88  C   -0.147407
    89  C    0.056848
    90  C    0.022589
    91  C   -0.011578
    92  C   -0.138086
    93  H    0.013812
    94  N   -0.462219
    95  C    0.168152
    96  C   -0.174998
    97  C   -0.086686
    98  C    0.201847
    99  C    0.084696
   100  C    0.035874
   101  O   -0.235997
   102  C    0.005264
   103  N   -0.322848
   104  C    0.047521
   105  C   -0.151661
   106  C   -0.062498
   107  C    0.046708
   108  C    0.017245
   109  C   -0.028934
   110  C   -0.050501
   111  N   -0.501202
   112  C    0.150875
   113  C   -0.184740
   114  C   -0.035126
   115  C    0.186876
   116  C    0.087886
   117  C    0.097749
   118  O   -0.231088
   119  C   -0.050538
   120  C    0.238316
   121  O   -0.235912
   122  O   -0.346789
   123  C    0.130782
   124  H    0.013644
   125  H   -0.019958
   126  H    0.003328
   127  H    0.035245
   128  H    0.061588
   129  H    0.033390
   130  H    0.044482
   131  H    0.040382
   132  H    0.041143
   133  H    0.041308
   134  H    0.087253
   135  H    0.047477
   136  H    0.029830
   137  H    0.048572
   138  H    0.062107
   139  H    0.066388
   140  H    0.056725
   141  H    0.054704
   142  H    0.040394
   143  H    0.018085
   144  H    0.043571
   145  H    0.031200
   146  H    0.046341
   147  H    0.037494
   148  H    0.032162
   149  H    0.053211
   150  H    0.028099
   151  H    0.026648
   152  H    0.054284
   153  H    0.056621
   154  H    0.063016
   155  H    0.067933
   156  H    0.072770
   157  H    0.059150
   158  H    0.067093
 Sum of Mulliken charges =  -0.00000

 Dipole moment (field-independent basis, Debye):
    X=             -1.5691    Y=              2.5515    Z=             -2.7252  Tot=              4.0496
 Quadrupole moment (field-independent basis, Debye-Ang):
   XX=           -348.9338   YY=           -558.1177   ZZ=           -482.0622
   XY=            109.2212   XZ=            -21.7140   YZ=              5.0970

 Normal termination of Gaussian 16 at Sun Sep 19 07:35:04 2021.
