 Gaussian 16, Revision A.03,
 Gaussian 16:  ES64L-G16RevA.03 25-Dec-2016

 --------------------------------
 #p wB97XD/Def2SVP td=(nstates=5)
 --------------------------------

 --------------------------------
 TDDFT excited states in gaussian
 --------------------------------
 Symbolic Z-matrix:
 Charge =  0 Multiplicity = 1

                         Standard orientation:
 ---------------------------------------------------------------------
 Center     Atomic      Atomic             Coordinates (Angstroms)
 Number     Number       Type             X           Y           Z
 ---------------------------------------------------------------------
      1         12           0      -25.532591   -0.827740   -0.075127
      2          6           0      -26.183639    2.511449    0.629039
      3          6           0      -24.315788    0.265454   -3.133556
      4          6           0      -25.359373   -4.097984   -0.992590
      5          6           0      -26.947657   -1.710912    2.953650
      6          7           0      -25.333394    1.162713   -1.146404
      7          6           0      -25.631369    2.423834   -0.653049
      8          6           0      -25.403974    3.586939   -1.696769
      9          6           0      -25.108329    2.732616   -2.989983
     10          6           0      -24.939687    1.276668   -2.418476
     11          6           0      -26.098186    2.698548   -4.158114
     12          6           0      -24.281316    4.531796   -1.230383
     13          6           0      -24.691287    5.896320   -0.742373
     14          1           0      -23.756507    7.067786   -1.092257
     15          7           0      -24.755275   -1.827030   -1.717024
     16          6           0      -24.250085   -1.169349   -2.794946
     17          6           0      -23.832722   -2.224708   -3.738567
     18          6           0      -24.202666   -3.472593   -3.213104
     19          6           0      -24.775656   -3.210241   -1.950292
     20          6           0      -23.044057   -1.898110   -4.941367
     21          6           0      -24.087553   -4.845457   -3.808027
     22          8           0      -24.361587   -5.903047   -3.175556
     23          6           0      -23.689781   -5.099225   -5.157043
     24          7           0      -25.986326   -2.602521    0.851767
     25          6           0      -25.805223   -3.831054    0.294585
     26          6           0      -26.234123   -4.945482    1.165646
     27          6           0      -26.694569   -4.203697    2.471621
     28          6           0      -26.593240   -2.786975    2.046830
     29          6           0      -27.279793   -6.014513    0.731735
     30          6           0      -25.908661   -4.615255    3.813041
     31          6           0      -24.550751   -3.977885    4.232540
     32          7           0      -26.432913    0.122486    1.482685
     33          6           0      -26.925964   -0.353728    2.663303
     34          6           0      -27.226180    0.706715    3.522687
     35          6           0      -27.017971    1.870277    2.686297
     36          6           0      -26.510624    1.448469    1.473504
     37          6           0      -27.657905    0.638117    4.986361
     38          6           0      -27.013008    3.303693    2.747801
     39          8           0      -27.200852    4.120285    3.626572
     40          6           0      -26.678289    3.772810    1.288514
     41          6           0      -27.891205    4.315617    0.645197
     42          8           0      -28.508505    3.814111   -0.320042
     43          8           0      -28.359139    5.453795    1.202558
     44          6           0      -29.436365    6.235326    0.504638
     45          1           0      -23.994196    0.610047   -4.117942
     46          1           0      -25.363830   -5.161496   -1.241088
     47          1           0      -27.244664   -1.898247    3.988129
     48          1           0      -26.341694    4.048552   -2.007886
     49          1           0      -24.138701    3.077436   -3.349043
     50          1           0      -26.567419    1.716687   -4.224705
     51          1           0      -25.495026    2.731168   -5.064239
     52          1           0      -26.865622    3.473289   -4.147479
     53          1           0      -23.672238    4.704755   -2.118406
     54          1           0      -23.661347    3.993332   -0.513590
     55          1           0      -24.759781    5.846015    0.344629
     56          1           0      -25.686935    6.223881   -1.041852
     57          1           0      -22.094839   -2.412907   -4.798518
     58          1           0      -22.843109   -0.854943   -5.188735
     59          1           0      -23.531566   -2.317649   -5.821342
     60          1           0      -24.239613   -4.374791   -5.757286
     61          1           0      -23.758173   -6.161520   -5.387884
     62          1           0      -22.655777   -4.797893   -5.324973
     63          1           0      -25.269928   -5.433245    1.305871
     64          1           0      -27.756047   -4.387279    2.633725
     65          1           0      -26.838138   -7.007185    0.643863
     66          1           0      -27.689333   -5.787973   -0.253255
     67          1           0      -28.152037   -6.057166    1.383918
     68          1           0      -25.693728   -5.668694    3.632423
     69          1           0      -26.704870   -4.503597    4.549187
     70          1           0      -24.235932   -3.117682    3.642309
     71          1           0      -23.725744   -4.671936    4.395530
     72          1           0      -24.735357   -3.642287    5.252184
     73          1           0      -28.609032    1.144299    5.154690
     74          1           0      -26.920748    1.188814    5.570459
     75          1           0      -27.671579   -0.367019    5.408628
     76          1           0      -26.035867    4.649714    1.370548
     77          1           0      -29.318603    7.155883    1.076481
     78          1           0      -30.436539    5.809155    0.575713
     79          1           0      -29.185657    6.344460   -0.550964
     80         12           0       26.231194   -0.599868    0.156927
     81          6           0       24.715858    2.651687    0.532376
     82          6           0       27.180283    0.415258   -3.062712
     83          6           0       27.720198   -3.508645   -0.162095
     84          6           0       24.923237   -1.518189    3.266117
     85          7           0       25.919042    1.370910   -1.106202
     86          6           0       25.482188    2.584115   -0.676617
     87          6           0       25.826249    3.693162   -1.657476
     88          6           0       26.317449    2.898169   -2.992330
     89          6           0       26.461189    1.476461   -2.376355
     90          6           0       25.377848    3.032094   -4.216833
     91          6           0       26.896864    4.687876   -1.094531
     92          6           0       26.433384    6.167555   -1.074283
     93          1           0       27.306788    7.144498   -2.053693
     94          7           0       27.274563   -1.402360   -1.348607
     95          6           0       27.573896   -0.887279   -2.655223
     96          6           0       28.385724   -1.812233   -3.481006
     97          6           0       28.569034   -2.913528   -2.582082
     98          6           0       27.854222   -2.633467   -1.325502
     99          6           0       28.829246   -1.545024   -4.920750
    100          6           0       29.253506   -4.202931   -2.833417
    101          8           0       29.587683   -5.013334   -1.975904
    102          6           0       29.714341   -4.505403   -4.272810
    103          7           0       26.439295   -2.165395    1.439837
    104          6           0       27.085714   -3.294856    1.071066
    105          6           0       26.867679   -4.434855    2.026675
    106          6           0       26.014329   -3.823538    3.165137
    107          6           0       25.804697   -2.382533    2.647802
    108          6           0       26.313746   -5.694715    1.394976
    109          6           0       26.847646   -3.826829    4.578162
    110          6           0       26.098602   -4.530677    5.835858
    111          7           0       24.831486    0.249434    1.513645
    112          6           0       24.475177   -0.247783    2.790385
    113          6           0       23.663201    0.776885    3.456637
    114          6           0       23.872085    1.931072    2.656698
    115          6           0       24.467735    1.533221    1.458829
    116          6           0       22.842093    0.694657    4.739935
    117          6           0       23.396936    3.336402    2.515102
    118          8           0       22.641668    4.101414    3.176747
    119          6           0       24.055156    3.854385    1.178192
    120          6           0       22.978559    4.446556    0.317312
    121          8           0       21.905943    3.943779    0.135376
    122          8           0       23.368758    5.683093   -0.116467
    123          6           0       22.242523    6.468921   -0.680934
    124          1           0       27.332493    0.727935   -4.097655
    125          1           0       28.190953   -4.493231   -0.207110
    126          1           0       24.536140   -1.769099    4.255651
    127          1           0       24.883949    4.188526   -1.891678
    128          1           0       27.322726    3.184472   -3.302604
    129          1           0       24.932217    2.070059   -4.471517
    130          1           0       25.923862    3.426691   -5.074712
    131          1           0       24.577624    3.766452   -4.124539
    132          1           0       27.816173    4.665289   -1.680308
    133          1           0       27.164122    4.450014   -0.064576
    134          1           0       26.629412    6.664499   -0.123810
    135          1           0       25.366407    6.322435   -1.231402
    136          1           0       28.796499   -0.511270   -5.266263
    137          1           0       28.340808   -2.152382   -5.682686
    138          1           0       29.878808   -1.839750   -4.946687
    139          1           0       28.857252   -4.546277   -4.944937
    140          1           0       30.308335   -5.417830   -4.335181
    141          1           0       30.365554   -3.691303   -4.590986
    142          1           0       27.844950   -4.766658    2.379916
    143          1           0       25.050072   -4.323901    3.249274
    144          1           0       27.044706   -6.500064    1.317748
    145          1           0       25.988331   -5.588717    0.360162
    146          1           0       25.448018   -6.008069    1.978803
    147          1           0       27.128870   -2.834318    4.928697
    148          1           0       27.798348   -4.353600    4.500154
    149          1           0       25.351826   -5.191349    5.395033
    150          1           0       25.636674   -3.795917    6.496575
    151          1           0       26.763386   -5.215868    6.361212
    152          1           0       22.811226    1.646064    5.270590
    153          1           0       23.383877    0.046073    5.429330
    154          1           0       21.916320    0.218732    4.416288
    155          1           0       24.689970    4.690473    1.470469
    156          1           0       21.777125    5.858226   -1.454362
    157          1           0       22.741561    7.292387   -1.191547
    158          1           0       21.432878    6.787059   -0.024209
 ---------------------------------------------------------------------

 SCF Done:  E(RwB97XD) =  -4070.60433137     A.U. after   20 cycles

 Excitation energies and oscillator strengths:

 Excited State   1:      Singlet-A      1.6155 eV  767.46 nm  f=0.3671  <S**2>=0.000
     309 -> 315       -0.19316
     311 -> 313        0.68205
     309 <- 315       -0.12121
 This state for optimization and/or second-order correction.
 Total Energy, E(TD-HF/TD-DFT) =  -4070.54496213
 Copying the excited state density for this state as the 1-particle RhoCI density.

 Excited State   2:      Singlet-A      1.6445 eV  753.94 nm  f=0.3883  <S**2>=0.000
     310 -> 316        0.18305
     312 -> 314        0.68259
     310 <- 316        0.11719

 Excited State   3:      Singlet-A      2.1191 eV  585.07 nm  f=0.1295  <S**2>=0.000
     309 -> 313        0.64524
     311 -> 315        0.27987

 Excited State   4:      Singlet-A      2.1515 eV  576.26 nm  f=0.1381  <S**2>=0.000
     310 -> 314        0.64868
     312 -> 316       -0.26447

 Excited State   5:      Singlet-A      3.3480 eV  370.33 nm  f=0.0039  <S**2>=0.000
     305 -> 314       -0.18870
     308 -> 314        0.65708

 The electronic state is 1-A.
 Alpha  occ. eigenvalues --  -46.94869 -46.93867 -19.30877 -19.29250 -19.24675
 Alpha  occ. eigenvalues --  -19.24025 -19.23755 -19.23260 -19.23182 -19.22986
 Alpha  occ. eigenvalues --  -14.47258 -14.46601 -14.46513 -14.46437 -14.45379
 Alpha  occ. eigenvalues --  -14.44139 -14.43839 -14.42939 -10.42665 -10.42345
 Alpha  occ. eigenvalues --  -10.39192 -10.39132 -10.38457 -10.38173 -10.35922
 Alpha  occ. eigenvalues --  -10.35739 -10.35697 -10.35686 -10.35636 -10.35307
 Alpha  occ. eigenvalues --  -10.34991 -10.34925 -10.34914 -10.34784 -10.34784
 Alpha  occ. eigenvalues --  -10.34658 -10.34476 -10.34121 -10.34071 -10.33986
 Alpha  occ. eigenvalues --  -10.33302 -10.33133 -10.32967 -10.32927 -10.32864
 Alpha  occ. eigenvalues --  -10.32722 -10.32540 -10.32525 -10.32516 -10.32500
 Alpha  occ. eigenvalues --  -10.32382 -10.32259 -10.32240 -10.32209 -10.32039
 Alpha  occ. eigenvalues --  -10.31877 -10.31872 -10.31852 -10.31697 -10.31408
 Alpha  occ. eigenvalues --  -10.31341 -10.31316 -10.31292 -10.31199 -10.31170
 Alpha  occ. eigenvalues --  -10.31111 -10.31077 -10.30823 -10.30803 -10.30786
 Alpha  occ. eigenvalues --  -10.30763 -10.30727 -10.30471 -10.30199 -10.30182
 Alpha  occ. eigenvalues --  -10.29962 -10.29947 -10.29946 -10.29839 -10.29770
 Alpha  occ. eigenvalues --  -10.29737 -10.29521 -10.29502 -10.29358 -10.29218
 Alpha  occ. eigenvalues --  -10.28643  -3.20946  -3.19995  -1.94536  -1.94070
 Alpha  occ. eigenvalues --   -1.93935  -1.93600  -1.93127  -1.92975  -1.19130
 Alpha  occ. eigenvalues --   -1.17275  -1.12223  -1.11748  -1.10884  -1.10136
 Alpha  occ. eigenvalues --   -1.09299  -1.07245  -1.06869  -1.06104  -1.05991
 Alpha  occ. eigenvalues --   -1.05283  -1.05239  -1.04640  -1.04270  -1.04076
 Alpha  occ. eigenvalues --   -0.95057  -0.93550  -0.90874  -0.90620  -0.90371
 Alpha  occ. eigenvalues --   -0.90321  -0.90191  -0.90012  -0.89524  -0.89368
 Alpha  occ. eigenvalues --   -0.88955  -0.88918  -0.88033  -0.87558  -0.86267
 Alpha  occ. eigenvalues --   -0.85953  -0.85550  -0.85068  -0.84719  -0.84330
 Alpha  occ. eigenvalues --   -0.83708  -0.83347  -0.82913  -0.82627  -0.82483
 Alpha  occ. eigenvalues --   -0.81721  -0.81095  -0.80510  -0.79410  -0.79024
 Alpha  occ. eigenvalues --   -0.78762  -0.78714  -0.78119  -0.77973  -0.77219
 Alpha  occ. eigenvalues --   -0.77178  -0.75077  -0.74559  -0.73411  -0.73303
 Alpha  occ. eigenvalues --   -0.72010  -0.71168  -0.70711  -0.70668  -0.69953
 Alpha  occ. eigenvalues --   -0.69541  -0.69113  -0.69092  -0.67837  -0.67613
 Alpha  occ. eigenvalues --   -0.67122  -0.67007  -0.66611  -0.66419  -0.66355
 Alpha  occ. eigenvalues --   -0.66026  -0.64352  -0.63462  -0.62850  -0.61944
 Alpha  occ. eigenvalues --   -0.61594  -0.61229  -0.61131  -0.60745  -0.60576
 Alpha  occ. eigenvalues --   -0.60338  -0.59933  -0.59711  -0.59277  -0.59140
 Alpha  occ. eigenvalues --   -0.58160  -0.58138  -0.57544  -0.57266  -0.56956
 Alpha  occ. eigenvalues --   -0.56860  -0.56471  -0.56331  -0.55758  -0.55729
 Alpha  occ. eigenvalues --   -0.55356  -0.55175  -0.54827  -0.54637  -0.54529
 Alpha  occ. eigenvalues --   -0.54439  -0.54364  -0.54148  -0.53949  -0.53796
 Alpha  occ. eigenvalues --   -0.53622  -0.53344  -0.53295  -0.52992  -0.52783
 Alpha  occ. eigenvalues --   -0.52781  -0.52419  -0.52280  -0.52078  -0.51985
 Alpha  occ. eigenvalues --   -0.51900  -0.51717  -0.51703  -0.51556  -0.51416
 Alpha  occ. eigenvalues --   -0.51354  -0.51169  -0.50897  -0.50738  -0.50703
 Alpha  occ. eigenvalues --   -0.50345  -0.50219  -0.50080  -0.50057  -0.49951
 Alpha  occ. eigenvalues --   -0.49820  -0.49692  -0.49546  -0.49424  -0.49160
 Alpha  occ. eigenvalues --   -0.48986  -0.48782  -0.48682  -0.48493  -0.48447
 Alpha  occ. eigenvalues --   -0.48149  -0.48138  -0.47907  -0.47882  -0.47596
 Alpha  occ. eigenvalues --   -0.47496  -0.47292  -0.47170  -0.47075  -0.46913
 Alpha  occ. eigenvalues --   -0.46750  -0.46688  -0.46686  -0.46347  -0.46162
 Alpha  occ. eigenvalues --   -0.46038  -0.45885  -0.45806  -0.45794  -0.45729
 Alpha  occ. eigenvalues --   -0.45686  -0.45338  -0.45281  -0.44825  -0.44776
 Alpha  occ. eigenvalues --   -0.44677  -0.44550  -0.44383  -0.44195  -0.44020
 Alpha  occ. eigenvalues --   -0.43515  -0.43507  -0.43398  -0.43267  -0.43020
 Alpha  occ. eigenvalues --   -0.42715  -0.42676  -0.42611  -0.42390  -0.42223
 Alpha  occ. eigenvalues --   -0.42075  -0.41997  -0.41580  -0.41312  -0.40815
 Alpha  occ. eigenvalues --   -0.40523  -0.40178  -0.40121  -0.39796  -0.39453
 Alpha  occ. eigenvalues --   -0.39342  -0.38834  -0.38530  -0.38527  -0.38376
 Alpha  occ. eigenvalues --   -0.37595  -0.37516  -0.36648  -0.36400  -0.36292
 Alpha  occ. eigenvalues --   -0.35437  -0.35260  -0.34745  -0.33867  -0.33202
 Alpha  occ. eigenvalues --   -0.32974  -0.32605  -0.32534  -0.32487  -0.32145
 Alpha  occ. eigenvalues --   -0.31915  -0.31510  -0.31475  -0.25827  -0.25541
 Alpha  occ. eigenvalues --   -0.23120  -0.22904
 Alpha virt. eigenvalues --   -0.07354  -0.07033   0.00063   0.00622   0.02165
 Alpha virt. eigenvalues --    0.02763   0.04142   0.04472   0.06558   0.06644
 Alpha virt. eigenvalues --    0.06783   0.07504   0.07713   0.07894   0.08099

 Mulliken charges:
               1
     1  Mg   0.983883
     2  C   -0.026398
     3  C   -0.064959
     4  C   -0.072246
     5  C   -0.099278
     6  N   -0.335578
     7  C   -0.019122
     8  C   -0.046000
     9  C   -0.130650
    10  C    0.025440
    11  C    0.037438
    12  C    0.055245
    13  C   -0.144124
    14  H    0.038424
    15  N   -0.481528
    16  C    0.183373
    17  C   -0.191500
    18  C   -0.022558
    19  C    0.131507
    20  C    0.056653
    21  C    0.038398
    22  O   -0.281137
    23  C    0.024781
    24  N   -0.375341
    25  C    0.076426
    26  C   -0.094222
    27  C   -0.055024
    28  C    0.063482
    29  C    0.027621
    30  C   -0.032306
    31  C   -0.043699
    32  N   -0.452689
    33  C    0.130745
    34  C   -0.169542
    35  C   -0.056330
    36  C    0.215767
    37  C    0.092235
    38  C    0.091617
    39  O   -0.190068
    40  C   -0.123782
    41  C    0.263166
    42  O   -0.290793
    43  O   -0.356959
    44  C    0.146669
    45  H   -0.009032
    46  H    0.021564
    47  H   -0.013503
    48  H    0.038351
    49  H    0.026775
    50  H    0.047592
    51  H    0.032119
    52  H    0.052287
    53  H    0.035810
    54  H    0.047044
    55  H    0.065143
    56  H    0.052646
    57  H    0.057343
    58  H    0.043323
    59  H    0.035701
    60  H    0.042577
    61  H    0.066605
    62  H    0.043684
    63  H    0.047306
    64  H    0.036182
    65  H    0.044659
    66  H    0.039204
    67  H    0.036221
    68  H    0.035237
    69  H    0.040152
    70  H    0.056358
    71  H    0.040430
    72  H    0.028987
    73  H    0.060705
    74  H    0.053792
    75  H    0.024487
    76  H    0.056500
    77  H    0.066041
    78  H    0.067010
    79  H    0.053665
    80  Mg   0.990333
    81  C   -0.017406
    82  C   -0.078484
    83  C   -0.086442
    84  C   -0.079837
    85  N   -0.298104
    86  C   -0.019901
    87  C   -0.052948
    88  C   -0.107234
    89  C    0.010943
    90  C    0.015725
    91  C    0.042971
    92  C   -0.139073
    93  H   -0.009627
    94  N   -0.512319
    95  C    0.177228
    96  C   -0.130224
    97  C   -0.071014
    98  C    0.182121
    99  C    0.070312
   100  C    0.029663
   101  O   -0.236673
   102  C   -0.016561
   103  N   -0.420663
   104  C    0.093829
   105  C   -0.078822
   106  C   -0.074244
   107  C    0.102136
   108  C    0.012661
   109  C   -0.031812
   110  C   -0.079634
   111  N   -0.424244
   112  C    0.112385
   113  C   -0.186372
   114  C   -0.110899
   115  C    0.145456
   116  C    0.092642
   117  C    0.193662
   118  O   -0.247708
   119  C   -0.086665
   120  C    0.237089
   121  O   -0.215004
   122  O   -0.372146
   123  C    0.133782
   124  H   -0.004491
   125  H    0.020947
   126  H   -0.003314
   127  H    0.041522
   128  H    0.042934
   129  H    0.048256
   130  H    0.034633
   131  H    0.041308
   132  H    0.049084
   133  H    0.046173
   134  H    0.054725
   135  H    0.060348
   136  H    0.047032
   137  H    0.062935
   138  H    0.044817
   139  H    0.052802
   140  H    0.053698
   141  H    0.038512
   142  H    0.046258
   143  H    0.048431
   144  H    0.040266
   145  H    0.042075
   146  H    0.029143
   147  H    0.043056
   148  H    0.034671
   149  H    0.027511
   150  H    0.051967
   151  H    0.040939
   152  H    0.063933
   153  H    0.026457
   154  H    0.068687
   155  H    0.067089
   156  H    0.050133
   157  H    0.052102
   158  H    0.076477
 Sum of Mulliken charges =  -0.00000

 Dipole moment (field-independent basis, Debye):
    X=              4.3927    Y=             -1.3245    Z=             -6.2192  Tot=              7.7285
 Quadrupole moment (field-independent basis, Debye-Ang):
   XX=           -459.9778   YY=           -512.6434   ZZ=           -463.8471
   XY=              2.7452   XZ=            -41.4377   YZ=            -53.9386

 Normal termination of Gaussian 16 at Sat Sep 18 21:01:05 2021.
