 Gaussian 16, Revision A.03,
 Gaussian 16:  ES64L-G16RevA.03 25-Dec-2016

 --------------------------------
 #p wB97XD/Def2SVP td=(nstates=5)
 --------------------------------

 --------------------------------
 TDDFT excited states in gaussian
 --------------------------------
 Symbolic Z-matrix:
 Charge =  0 Multiplicity = 1

                         Standard orientation:
 ---------------------------------------------------------------------
 Center     Atomic      Atomic             Coordinates (Angstroms)
 Number     Number       Type             X           Y           Z
 ---------------------------------------------------------------------
      1         12           0      -22.077781    0.658407    0.333452
      2          6           0      -21.719321   -2.491313   -1.088050
      3          6           0      -22.315574   -0.970191    3.386450
      4          6           0      -22.937515    3.658839    1.684195
      5          6           0      -21.988199    2.061053   -2.825734
      6          7           0      -22.077494   -1.494586    1.050279
      7          6           0      -21.877368   -2.639282    0.293816
      8          6           0      -21.982981   -3.978618    1.123815
      9          6           0      -22.499743   -3.401952    2.498620
     10          6           0      -22.332011   -1.848738    2.313590
     11          6           0      -23.918532   -3.694921    2.995323
     12          6           0      -20.630140   -4.713069    1.155957
     13          6           0      -20.510886   -5.968119    0.332071
     14          1           0      -19.673222   -7.112790    0.929242
     15          7           0      -22.373742    1.338003    2.269733
     16          6           0      -22.344757    0.504593    3.344100
     17          6           0      -22.623458    1.361336    4.513164
     18          6           0      -22.904553    2.661095    4.063940
     19          6           0      -22.743304    2.633205    2.662133
     20          6           0      -22.468442    0.845057    5.886049
     21          6           0      -23.330055    3.878872    4.830689
     22          8           0      -23.444244    5.023613    4.310938
     23          6           0      -23.681860    3.866562    6.215805
     24          7           0      -22.328890    2.551028   -0.421385
     25          6           0      -22.654511    3.641397    0.325350
     26          6           0      -22.796718    4.880930   -0.467106
     27          6           0      -22.434902    4.404044   -1.919517
     28          6           0      -22.306847    2.941069   -1.716733
     29          6           0      -24.089301    5.749121   -0.469523
     30          6           0      -21.185127    5.152614   -2.600797
     31          6           0      -19.706042    4.725396   -2.364302
     32          7           0      -21.936489   -0.000830   -1.586374
     33          6           0      -21.874145    0.678860   -2.768690
     34          6           0      -21.534478   -0.192009   -3.807644
     35          6           0      -21.556664   -1.488731   -3.163597
     36          6           0      -21.777860   -1.299832   -1.813938
     37          6           0      -21.212506    0.156228   -5.259711
     38          6           0      -21.274352   -2.870873   -3.425269
     39          8           0      -20.871071   -3.491589   -4.387777
     40          6           0      -21.608136   -3.615536   -2.085236
     41          6           0      -22.865879   -4.374491   -2.232652
     42          8           0      -23.947911   -4.140401   -1.650707
     43          8           0      -22.802259   -5.398664   -3.111337
     44          6           0      -23.928343   -6.391466   -3.178981
     45          1           0      -22.453549   -1.492630    4.334713
     46          1           0      -23.245320    4.640689    2.050330
     47          1           0      -21.777726    2.442995   -3.827370
     48          1           0      -22.858409   -4.566243    0.845388
     49          1           0      -21.779829   -3.741033    3.243438
     50          1           0      -24.523902   -2.788877    2.959609
     51          1           0      -23.830990   -3.875362    4.065700
     52          1           0      -24.438466   -4.505397    2.483375
     53          1           0      -20.504473   -5.025822    2.193197
     54          1           0      -19.845686   -3.987679    0.940227
     55          1           0      -20.055049   -5.690938   -0.618812
     56          1           0      -21.453710   -6.427125    0.034259
     57          1           0      -21.673376    1.449212    6.321140
     58          1           0      -22.234114   -0.208509    6.043711
     59          1           0      -23.383706    1.027519    6.449107
     60          1           0      -24.317705    2.990455    6.340497
     61          1           0      -24.035882    4.846154    6.534401
     62          1           0      -22.822146    3.615765    6.837221
     63          1           0      -21.985363    5.459337   -0.026203
     64          1           0      -23.300618    4.536846   -2.567294
     65          1           0      -23.924217    6.730426   -0.024590
     66          1           0      -24.876168    5.285874    0.126707
     67          1           0      -24.532037    5.864330   -1.458807
     68          1           0      -21.270017    6.155924   -2.182805
     69          1           0      -21.495365    5.141384   -3.645763
     70          1           0      -19.570684    3.785025   -1.830622
     71          1           0      -19.039059    5.498965   -1.982682
     72          1           0      -19.315512    4.603521   -3.373763
     73          1           0      -21.860871   -0.372865   -5.958911
     74          1           0      -20.202497   -0.198482   -5.464406
     75          1           0      -21.195135    1.224567   -5.476840
     76          1           0      -20.864728   -4.402890   -1.959482
     77          1           0      -23.392275   -7.156068   -3.741398
     78          1           0      -24.827266   -6.037336   -3.682520
     79          1           0      -24.202317   -6.705323   -2.171264
     80         12           0       21.813301    0.638387   -0.340078
     81          6           0       23.656926   -2.162904    1.024543
     82          6           0       20.163546   -1.551724   -2.048617
     83          6           0       20.447505    3.330122   -1.663599
     84          6           0       24.288391    2.923820    1.023875
     85          7           0       21.848079   -1.658378   -0.378116
     86          6           0       22.648406   -2.610236    0.218785
     87          6           0       22.265801   -3.970140   -0.242894
     88          6           0       21.499635   -3.702250   -1.563822
     89          6           0       21.171540   -2.203624   -1.365153
     90          6           0       22.338855   -3.916606   -2.842514
     91          6           0       21.295290   -4.621594    0.788923
     92          6           0       21.566887   -6.132940    1.151791
     93          1           0       20.977962   -6.744162    2.485058
     94          7           0       20.379583    0.825390   -1.711018
     95          6           0       19.723084   -0.173909   -2.237421
     96          6           0       18.658010    0.367751   -3.060162
     97          6           0       18.702588    1.760922   -2.817728
     98          6           0       19.894783    2.013662   -2.054809
     99          6           0       17.676400   -0.561543   -3.796952
    100          6           0       17.726163    2.785569   -3.324383
    101          8           0       17.887702    3.943310   -3.077593
    102          6           0       16.501992    2.330143   -4.049556
    103          7           0       22.526627    2.850511   -0.520062
    104          6           0       21.615774    3.690136   -1.007927
    105          6           0       21.926247    5.102276   -0.679954
    106          6           0       23.305692    4.936992    0.032942
    107          6           0       23.436381    3.447924    0.215472
    108          6           0       21.876591    6.156225   -1.843987
    109          6           0       23.355468    5.764925    1.376053
    110          6           0       24.187204    7.076128    1.442389
    111          7           0       23.536003    0.515983    0.739045
    112          6           0       24.406214    1.477351    1.299897
    113          6           0       25.444187    0.793214    2.098409
    114          6           0       25.157294   -0.562653    2.013839
    115          6           0       24.064233   -0.716061    1.177908
    116          6           0       26.674044    1.480536    2.739600
    117          6           0       25.646119   -1.895991    2.491573
    118          8           0       26.533237   -2.246388    3.233466
    119          6           0       24.783938   -3.015917    1.720113
    120          6           0       24.373098   -4.055803    2.590318
    121          8           0       23.281665   -4.030427    3.176127
    122          8           0       25.274506   -5.095992    2.793959
    123          6           0       24.821531   -6.311256    3.537874
    124          1           0       19.503906   -2.183328   -2.646248
    125          1           0       19.956533    4.225604   -2.050020
    126          1           0       25.034439    3.597435    1.448272
    127          1           0       23.158626   -4.536588   -0.508951
    128          1           0       20.598514   -4.291791   -1.731585
    129          1           0       21.892002   -4.690543   -3.467277
    130          1           0       23.333217   -4.223953   -2.519996
    131          1           0       22.485036   -3.020591   -3.446401
    132          1           0       20.311812   -4.551856    0.323795
    133          1           0       21.313342   -3.971326    1.663289
    134          1           0       22.645169   -6.287839    1.125738
    135          1           0       21.119399   -6.653829    0.304473
    136          1           0       16.684797   -0.427055   -3.362874
    137          1           0       17.946692   -1.616588   -3.824228
    138          1           0       17.519500   -0.208420   -4.815760
    139          1           0       15.854100    1.713269   -3.427369
    140          1           0       16.652543    1.656222   -4.892849
    141          1           0       15.905583    3.204647   -4.310831
    142          1           0       21.201174    5.432874    0.063747
    143          1           0       24.103205    5.198529   -0.662861
    144          1           0       21.489915    5.628320   -2.715088
    145          1           0       22.788133    6.718247   -2.050306
    146          1           0       21.182576    6.947256   -1.559384
    147          1           0       23.777256    5.136887    2.161233
    148          1           0       22.318407    5.807632    1.708870
    149          1           0       23.603595    7.860279    1.924408
    150          1           0       24.482767    7.369815    0.435025
    151          1           0       25.083088    6.932782    2.047685
    152          1           0       26.375157    2.486851    3.031681
    153          1           0       27.441489    1.619636    1.977812
    154          1           0       27.052392    0.926291    3.598845
    155          1           0       25.410529   -3.434837    0.933267
    156          1           0       24.019420   -6.822205    3.003414
    157          1           0       24.687323   -6.104056    4.598872
    158          1           0       25.604993   -7.058362    3.411539
 ---------------------------------------------------------------------

 SCF Done:  E(RwB97XD) =  -4070.58335301     A.U. after   19 cycles

 Excitation energies and oscillator strengths:

 Excited State   1:      Singlet-A      1.6445 eV  753.93 nm  f=0.3828  <S**2>=0.000
     309 -> 315        0.18306
     312 -> 314        0.68257
     309 <- 315        0.11719
 This state for optimization and/or second-order correction.
 Total Energy, E(TD-HF/TD-DFT) =  -4070.52291856
 Copying the excited state density for this state as the 1-particle RhoCI density.

 Excited State   2:      Singlet-A      1.6949 eV  731.51 nm  f=0.3827  <S**2>=0.000
     310 -> 316        0.16833
     311 -> 313        0.68667
     310 <- 316        0.11048

 Excited State   3:      Singlet-A      2.1227 eV  584.09 nm  f=0.2193  <S**2>=0.000
     310 -> 313        0.67195
     311 -> 316       -0.20545

 Excited State   4:      Singlet-A      2.1516 eV  576.25 nm  f=0.1392  <S**2>=0.000
     309 -> 314        0.64866
     312 -> 315       -0.26448

 Excited State   5:      Singlet-A      3.3482 eV  370.30 nm  f=0.0040  <S**2>=0.000
     305 -> 314       -0.19104
     308 -> 314        0.65673

 The electronic state is 1-A.
 Alpha  occ. eigenvalues --  -46.95790 -46.93898 -19.29281 -19.29195 -19.24630
 Alpha  occ. eigenvalues --  -19.24320 -19.23458 -19.23291 -19.23213 -19.23014
 Alpha  occ. eigenvalues --  -14.46626 -14.46466 -14.46391 -14.44739 -14.44422
 Alpha  occ. eigenvalues --  -14.44373 -14.44171 -14.42969 -10.42376 -10.42328
 Alpha  occ. eigenvalues --  -10.39938 -10.39130 -10.38484 -10.38204 -10.35769
 Alpha  occ. eigenvalues --  -10.35374 -10.35299 -10.35101 -10.35020 -10.34812
 Alpha  occ. eigenvalues --  -10.34743 -10.34688 -10.34506 -10.34151 -10.34101
 Alpha  occ. eigenvalues --  -10.34080 -10.34030 -10.33835 -10.33589 -10.33361
 Alpha  occ. eigenvalues --  -10.32965 -10.32897 -10.32853 -10.32555 -10.32529
 Alpha  occ. eigenvalues --  -10.32288 -10.32272 -10.32248 -10.32237 -10.32137
 Alpha  occ. eigenvalues --  -10.31979 -10.31904 -10.31901 -10.31881 -10.31728
 Alpha  occ. eigenvalues --  -10.31437 -10.31371 -10.31345 -10.31320 -10.31304
 Alpha  occ. eigenvalues --  -10.31304 -10.31140 -10.31107 -10.30860 -10.30854
 Alpha  occ. eigenvalues --  -10.30832 -10.30815 -10.30792 -10.30566 -10.30398
 Alpha  occ. eigenvalues --  -10.30279 -10.30213 -10.30171 -10.30024 -10.29975
 Alpha  occ. eigenvalues --  -10.29883 -10.29867 -10.29797 -10.29603 -10.29553
 Alpha  occ. eigenvalues --  -10.29552 -10.29529 -10.29403 -10.29352 -10.29086
 Alpha  occ. eigenvalues --  -10.28673  -3.21768  -3.20026  -1.95342  -1.94899
 Alpha  occ. eigenvalues --   -1.94729  -1.93631  -1.93160  -1.93004  -1.17305
 Alpha  occ. eigenvalues --   -1.16326  -1.14432  -1.13049  -1.11779  -1.10164
 Alpha  occ. eigenvalues --   -1.08536  -1.07832  -1.07275  -1.06979  -1.06922
 Alpha  occ. eigenvalues --   -1.06899  -1.06133  -1.05269  -1.04300  -1.02967
 Alpha  occ. eigenvalues --   -0.95087  -0.93195  -0.91151  -0.90903  -0.90820
 Alpha  occ. eigenvalues --   -0.90350  -0.90220  -0.89887  -0.89774  -0.89626
 Alpha  occ. eigenvalues --   -0.89553  -0.88947  -0.88063  -0.87131  -0.86297
 Alpha  occ. eigenvalues --   -0.86279  -0.85580  -0.84949  -0.84747  -0.84360
 Alpha  occ. eigenvalues --   -0.84081  -0.83920  -0.82943  -0.82880  -0.82512
 Alpha  occ. eigenvalues --   -0.82382  -0.80777  -0.80540  -0.79439  -0.79041
 Alpha  occ. eigenvalues --   -0.78792  -0.78608  -0.78148  -0.78134  -0.77389
 Alpha  occ. eigenvalues --   -0.77248  -0.75106  -0.74731  -0.73332  -0.73094
 Alpha  occ. eigenvalues --   -0.72040  -0.71212  -0.70740  -0.70723  -0.69983
 Alpha  occ. eigenvalues --   -0.69975  -0.69285  -0.69121  -0.68059  -0.67538
 Alpha  occ. eigenvalues --   -0.67151  -0.67036  -0.66985  -0.66640  -0.66385
 Alpha  occ. eigenvalues --   -0.66242  -0.63497  -0.63492  -0.63054  -0.62075
 Alpha  occ. eigenvalues --   -0.61973  -0.61624  -0.61160  -0.61064  -0.60605
 Alpha  occ. eigenvalues --   -0.60036  -0.59741  -0.59533  -0.59306  -0.59176
 Alpha  occ. eigenvalues --   -0.58579  -0.58167  -0.57642  -0.57573  -0.57485
 Alpha  occ. eigenvalues --   -0.56889  -0.56361  -0.55923  -0.55837  -0.55788
 Alpha  occ. eigenvalues --   -0.55372  -0.55205  -0.55024  -0.54856  -0.54602
 Alpha  occ. eigenvalues --   -0.54468  -0.54394  -0.54382  -0.53979  -0.53935
 Alpha  occ. eigenvalues --   -0.53825  -0.53779  -0.53227  -0.53022  -0.52811
 Alpha  occ. eigenvalues --   -0.52536  -0.52309  -0.52189  -0.52108  -0.52077
 Alpha  occ. eigenvalues --   -0.51803  -0.51731  -0.51643  -0.51584  -0.51541
 Alpha  occ. eigenvalues --   -0.51383  -0.51176  -0.50926  -0.50761  -0.50733
 Alpha  occ. eigenvalues --   -0.50655  -0.50375  -0.50240  -0.50109  -0.49948
 Alpha  occ. eigenvalues --   -0.49849  -0.49722  -0.49702  -0.49472  -0.49356
 Alpha  occ. eigenvalues --   -0.49189  -0.48712  -0.48477  -0.48380  -0.48178
 Alpha  occ. eigenvalues --   -0.48149  -0.47937  -0.47716  -0.47625  -0.47462
 Alpha  occ. eigenvalues --   -0.47322  -0.47310  -0.47200  -0.47105  -0.46883
 Alpha  occ. eigenvalues --   -0.46737  -0.46718  -0.46527  -0.46434  -0.46192
 Alpha  occ. eigenvalues --   -0.45945  -0.45914  -0.45837  -0.45715  -0.45430
 Alpha  occ. eigenvalues --   -0.45367  -0.45279  -0.44912  -0.44855  -0.44734
 Alpha  occ. eigenvalues --   -0.44707  -0.44667  -0.44412  -0.44164  -0.43780
 Alpha  occ. eigenvalues --   -0.43537  -0.43428  -0.43208  -0.43050  -0.42916
 Alpha  occ. eigenvalues --   -0.42706  -0.42558  -0.42274  -0.42252  -0.42097
 Alpha  occ. eigenvalues --   -0.42024  -0.41791  -0.41767  -0.41609  -0.40844
 Alpha  occ. eigenvalues --   -0.40261  -0.40151  -0.39826  -0.39571  -0.39104
 Alpha  occ. eigenvalues --   -0.38865  -0.38557  -0.38474  -0.38406  -0.38175
 Alpha  occ. eigenvalues --   -0.37724  -0.37625  -0.36322  -0.35562  -0.35466
 Alpha  occ. eigenvalues --   -0.35044  -0.34775  -0.34766  -0.33980  -0.33625
 Alpha  occ. eigenvalues --   -0.33285  -0.33231  -0.32769  -0.32562  -0.32175
 Alpha  occ. eigenvalues --   -0.31946  -0.31799  -0.31505  -0.25571  -0.25470
 Alpha  occ. eigenvalues --   -0.23470  -0.22933
 Alpha virt. eigenvalues --   -0.07429  -0.07063   0.00593   0.01569   0.02734
 Alpha virt. eigenvalues --    0.03036   0.04443   0.04706   0.05480   0.06613
 Alpha virt. eigenvalues --    0.06729   0.07473   0.07720   0.08068   0.08402

 Mulliken charges:
               1
     1  Mg   0.984192
     2  C   -0.026361
     3  C   -0.064985
     4  C   -0.072329
     5  C   -0.099297
     6  N   -0.335683
     7  C   -0.019320
     8  C   -0.045834
     9  C   -0.130754
    10  C    0.025552
    11  C    0.037453
    12  C    0.055289
    13  C   -0.144124
    14  H    0.038385
    15  N   -0.481719
    16  C    0.183339
    17  C   -0.191449
    18  C   -0.022563
    19  C    0.131733
    20  C    0.056516
    21  C    0.038503
    22  O   -0.281135
    23  C    0.024612
    24  N   -0.375254
    25  C    0.076279
    26  C   -0.094281
    27  C   -0.054980
    28  C    0.063623
    29  C    0.027623
    30  C   -0.032322
    31  C   -0.043661
    32  N   -0.452943
    33  C    0.130633
    34  C   -0.169532
    35  C   -0.056334
    36  C    0.216002
    37  C    0.092244
    38  C    0.091563
    39  O   -0.190103
    40  C   -0.123898
    41  C    0.263154
    42  O   -0.290760
    43  O   -0.356959
    44  C    0.146649
    45  H   -0.009025
    46  H    0.021601
    47  H   -0.013555
    48  H    0.038417
    49  H    0.026766
    50  H    0.047604
    51  H    0.032138
    52  H    0.052284
    53  H    0.035803
    54  H    0.047002
    55  H    0.065113
    56  H    0.052674
    57  H    0.057372
    58  H    0.043351
    59  H    0.035766
    60  H    0.042646
    61  H    0.066647
    62  H    0.043727
    63  H    0.047302
    64  H    0.036201
    65  H    0.044673
    66  H    0.039223
    67  H    0.036237
    68  H    0.035247
    69  H    0.040157
    70  H    0.056338
    71  H    0.040409
    72  H    0.028948
    73  H    0.060714
    74  H    0.053743
    75  H    0.024481
    76  H    0.056490
    77  H    0.066022
    78  H    0.067037
    79  H    0.053684
    80  Mg   0.973860
    81  C   -0.021197
    82  C   -0.054222
    83  C   -0.053545
    84  C   -0.110259
    85  N   -0.302007
    86  C   -0.006897
    87  C   -0.073424
    88  C   -0.132675
    89  C    0.070266
    90  C    0.036889
    91  C    0.034162
    92  C   -0.096331
    93  H    0.049855
    94  N   -0.460669
    95  C    0.091585
    96  C   -0.147544
    97  C   -0.078573
    98  C    0.134291
    99  C    0.063439
   100  C    0.051968
   101  O   -0.201384
   102  C   -0.020842
   103  N   -0.271155
   104  C    0.014726
   105  C   -0.095367
   106  C   -0.044798
   107  C    0.058264
   108  C    0.023235
   109  C   -0.029447
   110  C   -0.028143
   111  N   -0.485520
   112  C    0.125994
   113  C   -0.223685
   114  C   -0.055335
   115  C    0.152223
   116  C    0.077588
   117  C    0.163221
   118  O   -0.174801
   119  C   -0.083061
   120  C    0.267148
   121  O   -0.273049
   122  O   -0.390022
   123  C    0.157584
   124  H   -0.025714
   125  H    0.021053
   126  H   -0.000124
   127  H    0.020589
   128  H    0.035033
   129  H    0.041946
   130  H    0.027858
   131  H    0.045286
   132  H    0.025019
   133  H    0.073827
   134  H    0.043878
   135  H    0.037076
   136  H    0.048474
   137  H    0.053697
   138  H    0.042020
   139  H    0.049885
   140  H    0.043024
   141  H    0.056157
   142  H    0.045871
   143  H    0.031661
   144  H    0.049306
   145  H    0.037548
   146  H    0.032022
   147  H    0.020852
   148  H    0.014720
   149  H    0.040139
   150  H    0.034907
   151  H    0.038242
   152  H    0.028666
   153  H    0.052698
   154  H    0.061909
   155  H    0.080222
   156  H    0.043687
   157  H    0.073785
   158  H    0.042434
 Sum of Mulliken charges =  -0.00000

 Dipole moment (field-independent basis, Debye):
    X=             -2.8949    Y=             -1.0080    Z=             -1.2894  Tot=              3.3255
 Quadrupole moment (field-independent basis, Debye-Ang):
   XX=           -652.4271   YY=           -475.3225   ZZ=           -500.7797
   XY=              6.8134   XZ=           -152.2625   YZ=             -9.5850

 Normal termination of Gaussian 16 at Sat Sep 18 20:20:47 2021.
