 Gaussian 16, Revision A.03,
 Gaussian 16:  ES64L-G16RevA.03 25-Dec-2016

 --------------------------------
 #p wB97XD/Def2SVP td=(nstates=5)
 --------------------------------

 --------------------------------
 TDDFT excited states in gaussian
 --------------------------------
 Symbolic Z-matrix:
 Charge =  0 Multiplicity = 1

                         Standard orientation:
 ---------------------------------------------------------------------
 Center     Atomic      Atomic             Coordinates (Angstroms)
 Number     Number       Type             X           Y           Z
 ---------------------------------------------------------------------
      1         12           0      -22.049458   -0.749649   -0.208770
      2          6           0      -23.662856    2.102198    1.283250
      3          6           0      -19.936578    1.453429   -1.737178
      4          6           0      -20.750532   -3.384507   -1.827959
      5          6           0      -24.551589   -2.689372    1.027344
      6          7           0      -21.808886    1.616315   -0.164094
      7          6           0      -22.576512    2.481812    0.559853
      8          6           0      -21.946847    3.818740    0.452682
      9          6           0      -20.833812    3.663108   -0.620305
     10          6           0      -20.829371    2.146038   -0.953401
     11          6           0      -21.134439    4.509580   -1.898024
     12          6           0      -21.444679    4.415788    1.743463
     13          6           0      -21.003369    5.870329    1.765809
     14          1           0      -21.552987    6.714674    2.837691
     15          7           0      -20.501333   -0.946536   -1.485825
     16          6           0      -19.787732    0.120424   -2.098325
     17          6           0      -18.705336   -0.498235   -2.886545
     18          6           0      -19.016714   -1.853170   -2.964619
     19          6           0      -20.188688   -2.107747   -2.107401
     20          6           0      -17.654410    0.346816   -3.575705
     21          6           0      -18.280353   -2.991941   -3.702790
     22          8           0      -18.761290   -4.124249   -3.895915
     23          6           0      -16.912968   -2.705338   -4.173389
     24          7           0      -22.600957   -2.781387   -0.447942
     25          6           0      -21.945263   -3.699318   -1.128072
     26          6           0      -22.614714   -5.100217   -1.079227
     27          6           0      -23.651900   -4.879390    0.024033
     28          6           0      -23.572319   -3.386679    0.248092
     29          6           0      -23.259180   -5.478869   -2.455329
     30          6           0      -23.465661   -5.662189    1.304236
     31          6           0      -24.730548   -6.281587    1.924737
     32          7           0      -23.685335   -0.387274    0.986330
     33          6           0      -24.614310   -1.310300    1.414457
     34          6           0      -25.627348   -0.683685    2.316326
     35          6           0      -25.235094    0.636104    2.218499
     36          6           0      -24.119005    0.793841    1.387982
     37          6           0      -26.647138   -1.351706    3.181644
     38          6           0      -25.593382    1.964964    2.692033
     39          8           0      -26.487574    2.263787    3.475507
     40          6           0      -24.591541    2.990236    2.113256
     41          6           0      -25.378317    4.043955    1.524879
     42          8           0      -25.993532    4.005764    0.432096
     43          8           0      -25.238449    5.193161    2.241976
     44          6           0      -25.722609    6.431177    1.671355
     45          1           0      -19.200434    2.136847   -2.164930
     46          1           0      -20.438811   -4.207672   -2.474006
     47          1           0      -25.415392   -3.341101    1.172833
     48          1           0      -22.754449    4.431494    0.054314
     49          1           0      -19.855930    3.975567   -0.253537
     50          1           0      -20.416494    5.196283   -2.347570
     51          1           0      -21.996258    5.114351   -1.616298
     52          1           0      -21.551939    3.949922   -2.735460
     53          1           0      -20.539862    3.912640    2.084833
     54          1           0      -22.071046    4.139237    2.591117
     55          1           0      -21.277204    6.369686    0.837631
     56          1           0      -19.957227    5.844953    2.069734
     57          1           0      -17.464420    0.068171   -4.612009
     58          1           0      -16.691471    0.360425   -3.065551
     59          1           0      -17.915108    1.399155   -3.691152
     60          1           0      -16.341356   -2.296023   -3.340309
     61          1           0      -17.086117   -1.942625   -4.931793
     62          1           0      -16.465839   -3.668107   -4.418131
     63          1           0      -21.831383   -5.798183   -0.781729
     64          1           0      -24.690942   -5.056272   -0.252355
     65          1           0      -24.346618   -5.509811   -2.394118
     66          1           0      -22.960784   -6.478774   -2.770416
     67          1           0      -22.950084   -4.691420   -3.142872
     68          1           0      -22.969966   -5.069688    2.072558
     69          1           0      -22.629269   -6.325029    1.084820
     70          1           0      -24.406916   -7.162360    2.478501
     71          1           0      -25.527969   -6.443670    1.198857
     72          1           0      -25.060506   -5.470877    2.573995
     73          1           0      -26.359522   -1.436372    4.229765
     74          1           0      -26.900372   -2.275509    2.662270
     75          1           0      -27.604036   -0.841813    3.063325
     76          1           0      -24.147008    3.456453    2.992490
     77          1           0      -26.068748    6.352174    0.640454
     78          1           0      -24.988028    7.225932    1.798283
     79          1           0      -26.580310    6.824633    2.217548
     80         12           0       22.379993   -0.612821    0.541576
     81          6           0       22.591411    2.413124   -1.435122
     82          6           0       23.339092    1.201824    3.036486
     83          6           0       22.392236   -3.518555    2.096922
     84          6           0       22.115410   -2.577110   -2.504932
     85          7           0       22.789074    1.636486    0.767532
     86          6           0       22.835701    2.691393   -0.120075
     87          6           0       23.246927    3.936878    0.578879
     88          6           0       23.939017    3.418680    1.865777
     89          6           0       23.370254    1.980419    1.895886
     90          6           0       25.481760    3.398565    1.796240
     91          6           0       21.982796    4.759915    0.973229
     92          6           0       22.048429    6.315174    0.715417
     93          1           0       20.714948    7.159020    0.627215
     94          7           0       22.789921   -1.067776    2.437616
     95          6           0       23.061300   -0.191430    3.367702
     96          6           0       23.136747   -0.888388    4.637835
     97          6           0       22.735615   -2.211047    4.335594
     98          6           0       22.650913   -2.304304    2.903329
     99          6           0       23.411481   -0.123514    5.945312
    100          6           0       22.512044   -3.322373    5.323003
    101          8           0       22.203128   -4.411759    4.941987
    102          6           0       22.580257   -3.023286    6.785117
    103          7           0       22.547140   -2.812107   -0.213357
    104          6           0       22.369689   -3.737499    0.727278
    105          6           0       22.027327   -5.060056    0.151316
    106          6           0       22.145064   -4.750135   -1.374624
    107          6           0       22.289078   -3.251952   -1.423937
    108          6           0       22.825311   -6.313670    0.661141
    109          6           0       20.900820   -5.311544   -2.167450
    110          6           0       21.059648   -6.578563   -3.053382
    111          7           0       22.353626   -0.272963   -1.466158
    112          6           0       22.166913   -1.103410   -2.593786
    113          6           0       22.120622   -0.271312   -3.813838
    114          6           0       22.259519    1.041759   -3.384436
    115          6           0       22.440733    1.024799   -2.011857
    116          6           0       22.090288   -0.813843   -5.263260
    117          6           0       22.309572    2.445889   -3.904900
    118          8           0       22.182920    2.938017   -5.001227
    119          6           0       22.703884    3.392755   -2.663650
    120          6           0       21.920422    4.572843   -2.632205
    121          8           0       20.867865    4.646339   -1.982771
    122          8           0       22.365692    5.641961   -3.403387
    123          6           0       21.695555    6.970254   -3.255004
    124          1           0       23.611826    1.703628    3.966550
    125          1           0       22.332084   -4.475521    2.619281
    126          1           0       22.026783   -3.151713   -3.428206
    127          1           0       24.012396    4.452664   -0.001471
    128          1           0       23.718344    3.957131    2.787241
    129          1           0       25.907286    4.037288    2.570802
    130          1           0       25.758480    3.771027    0.810372
    131          1           0       25.927989    2.406919    1.876297
    132          1           0       21.869771    4.594276    2.044782
    133          1           0       21.148135    4.284978    0.457994
    134          1           0       22.639535    6.473520   -0.186185
    135          1           0       22.622939    6.663677    1.574487
    136          1           0       22.521069   -0.184567    6.572389
    137          1           0       23.736203    0.910507    5.834499
    138          1           0       24.141645   -0.662644    6.548208
    139          1           0       21.821362   -2.307561    7.100127
    140          1           0       23.477426   -2.517570    7.141931
    141          1           0       22.363907   -3.937310    7.338723
    142          1           0       20.978120   -5.253067    0.374988
    143          1           0       23.097604   -5.129060   -1.745642
    144          1           0       23.451827   -5.962100    1.480224
    145          1           0       23.373038   -6.894986   -0.081430
    146          1           0       22.109417   -7.044549    1.037569
    147          1           0       20.545762   -4.543372   -2.854973
    148          1           0       20.087737   -5.301858   -1.441579
    149          1           0       20.233063   -7.264608   -2.869172
    150          1           0       22.017987   -7.052525   -2.840454
    151          1           0       21.020970   -6.315290   -4.111084
    152          1           0       21.534002   -1.750736   -5.253729
    153          1           0       23.102788   -1.085157   -5.563048
    154          1           0       21.638882   -0.104741   -5.957555
    155          1           0       23.753767    3.663438   -2.771877
    156          1           0       21.823826    7.363901   -2.245704
    157          1           0       20.694874    6.963897   -3.685421
    158          1           0       22.315446    7.688522   -3.791443
 ---------------------------------------------------------------------

 SCF Done:  E(RwB97XD) =  -4070.58744947     A.U. after   19 cycles

 Excitation energies and oscillator strengths:

 Excited State   1:      Singlet-A      1.6934 eV  732.15 nm  f=0.2950  <S**2>=0.000
     309 -> 315        0.19960
     311 -> 313       -0.14969
     312 -> 314        0.66300
     309 <- 315        0.11960
 This state for optimization and/or second-order correction.
 Total Energy, E(TD-HF/TD-DFT) =  -4070.52521708
 Copying the excited state density for this state as the 1-particle RhoCI density.

 Excited State   2:      Singlet-A      1.6950 eV  731.49 nm  f=0.4610  <S**2>=0.000
     310 -> 316       -0.16433
     311 -> 313        0.67016
     312 -> 314        0.14804
     310 <- 316       -0.10784

 Excited State   3:      Singlet-A      2.1227 eV  584.10 nm  f=0.2209  <S**2>=0.000
     310 -> 313        0.67195
     311 -> 316        0.20538

 Excited State   4:      Singlet-A      2.2627 eV  547.96 nm  f=0.0703  <S**2>=0.000
     309 -> 314        0.61591
     312 -> 315       -0.33994

 Excited State   5:      Singlet-A      3.4402 eV  360.40 nm  f=0.0065  <S**2>=0.000
     302 -> 313       -0.20277
     304 -> 313       -0.17578
     308 -> 313        0.63277

 The electronic state is 1-A.
 Alpha  occ. eigenvalues --  -46.95813 -46.94838 -19.30404 -19.29221 -19.24655
 Alpha  occ. eigenvalues --  -19.24344 -19.24072 -19.23822 -19.23672 -19.23484
 Alpha  occ. eigenvalues --  -14.46468 -14.46414 -14.45710 -14.44763 -14.44448
 Alpha  occ. eigenvalues --  -14.44399 -14.44389 -14.44186 -10.42996 -10.42354
 Alpha  occ. eigenvalues --  -10.39962 -10.39218 -10.39154 -10.38478 -10.35399
 Alpha  occ. eigenvalues --  -10.35324 -10.35125 -10.34954 -10.34789 -10.34768
 Alpha  occ. eigenvalues --  -10.34602 -10.34582 -10.34557 -10.34459 -10.34436
 Alpha  occ. eigenvalues --  -10.34105 -10.34082 -10.34055 -10.33861 -10.33614
 Alpha  occ. eigenvalues --  -10.33386 -10.33193 -10.32990 -10.32878 -10.32535
 Alpha  occ. eigenvalues --  -10.32373 -10.32297 -10.32273 -10.32167 -10.32164
 Alpha  occ. eigenvalues --  -10.32136 -10.32031 -10.32015 -10.32004 -10.31929
 Alpha  occ. eigenvalues --  -10.31718 -10.31491 -10.31428 -10.31345 -10.31330
 Alpha  occ. eigenvalues --  -10.31329 -10.31254 -10.31108 -10.31028 -10.30960
 Alpha  occ. eigenvalues --  -10.30885 -10.30590 -10.30423 -10.30303 -10.30223
 Alpha  occ. eigenvalues --  -10.30195 -10.30088 -10.30050 -10.29954 -10.29907
 Alpha  occ. eigenvalues --  -10.29841 -10.29836 -10.29834 -10.29766 -10.29626
 Alpha  occ. eigenvalues --  -10.29577 -10.29558 -10.29427 -10.29376 -10.29112
 Alpha  occ. eigenvalues --  -10.28642  -3.21792  -3.20875  -1.95366  -1.94923
 Alpha  occ. eigenvalues --   -1.94752  -1.94476  -1.93993  -1.93856  -1.18309
 Alpha  occ. eigenvalues --   -1.16351  -1.14456  -1.13074  -1.11713  -1.11275
 Alpha  occ. eigenvalues --   -1.08561  -1.08156  -1.07857  -1.07766  -1.07003
 Alpha  occ. eigenvalues --   -1.06946  -1.06613  -1.05086  -1.04232  -1.02992
 Alpha  occ. eigenvalues --   -0.95157  -0.93220  -0.91948  -0.91186  -0.91176
 Alpha  occ. eigenvalues --   -0.90845  -0.90411  -0.89911  -0.89799  -0.89651
 Alpha  occ. eigenvalues --   -0.89537  -0.89005  -0.88574  -0.87156  -0.86625
 Alpha  occ. eigenvalues --   -0.86304  -0.85952  -0.84974  -0.84817  -0.84524
 Alpha  occ. eigenvalues --   -0.84106  -0.83944  -0.83195  -0.82905  -0.82859
 Alpha  occ. eigenvalues --   -0.82407  -0.80803  -0.80629  -0.79644  -0.79371
 Alpha  occ. eigenvalues --   -0.79066  -0.78633  -0.78481  -0.78159  -0.77414
 Alpha  occ. eigenvalues --   -0.77179  -0.74986  -0.74757  -0.73926  -0.73118
 Alpha  occ. eigenvalues --   -0.71454  -0.71237  -0.71223  -0.70747  -0.70038
 Alpha  occ. eigenvalues --   -0.70001  -0.69311  -0.68526  -0.68325  -0.68084
 Alpha  occ. eigenvalues --   -0.67563  -0.67370  -0.67105  -0.67010  -0.66563
 Alpha  occ. eigenvalues --   -0.66267  -0.64534  -0.63522  -0.63079  -0.62388
 Alpha  occ. eigenvalues --   -0.62100  -0.61896  -0.61489  -0.61089  -0.60759
 Alpha  occ. eigenvalues --   -0.60361  -0.60061  -0.59621  -0.59558  -0.59201
 Alpha  occ. eigenvalues --   -0.58604  -0.58469  -0.57695  -0.57667  -0.57518
 Alpha  occ. eigenvalues --   -0.57510  -0.56368  -0.55958  -0.55948  -0.55862
 Alpha  occ. eigenvalues --   -0.55826  -0.55414  -0.55397  -0.55125  -0.55049
 Alpha  occ. eigenvalues --   -0.54879  -0.54627  -0.54407  -0.53960  -0.53908
 Alpha  occ. eigenvalues --   -0.53804  -0.53797  -0.53636  -0.53251  -0.53124
 Alpha  occ. eigenvalues --   -0.52716  -0.52561  -0.52446  -0.52217  -0.52214
 Alpha  occ. eigenvalues --   -0.52101  -0.51860  -0.51828  -0.51668  -0.51582
 Alpha  occ. eigenvalues --   -0.51566  -0.51200  -0.51003  -0.50786  -0.50679
 Alpha  occ. eigenvalues --   -0.50598  -0.50309  -0.50265  -0.50264  -0.49973
 Alpha  occ. eigenvalues --   -0.49877  -0.49756  -0.49727  -0.49497  -0.49379
 Alpha  occ. eigenvalues --   -0.49292  -0.49159  -0.48973  -0.48465  -0.48405
 Alpha  occ. eigenvalues --   -0.48174  -0.48153  -0.47964  -0.47741  -0.47509
 Alpha  occ. eigenvalues --   -0.47486  -0.47335  -0.47087  -0.47010  -0.46908
 Alpha  occ. eigenvalues --   -0.46762  -0.46552  -0.46461  -0.46459  -0.45970
 Alpha  occ. eigenvalues --   -0.45874  -0.45830  -0.45628  -0.45455  -0.45334
 Alpha  occ. eigenvalues --   -0.45304  -0.45062  -0.44937  -0.44759  -0.44692
 Alpha  occ. eigenvalues --   -0.44462  -0.44349  -0.44189  -0.43978  -0.43805
 Alpha  occ. eigenvalues --   -0.43670  -0.43643  -0.43504  -0.43233  -0.43209
 Alpha  occ. eigenvalues --   -0.42975  -0.42941  -0.42763  -0.42583  -0.42299
 Alpha  occ. eigenvalues --   -0.42122  -0.42041  -0.41816  -0.41809  -0.41792
 Alpha  occ. eigenvalues --   -0.40708  -0.40287  -0.39839  -0.39596  -0.39220
 Alpha  occ. eigenvalues --   -0.39129  -0.38499  -0.38200  -0.38015  -0.37910
 Alpha  occ. eigenvalues --   -0.37749  -0.37664  -0.35881  -0.35587  -0.35492
 Alpha  occ. eigenvalues --   -0.35163  -0.35069  -0.34791  -0.34005  -0.33776
 Alpha  occ. eigenvalues --   -0.33650  -0.33310  -0.32985  -0.32794  -0.32753
 Alpha  occ. eigenvalues --   -0.32530  -0.32434  -0.31824  -0.26001  -0.25495
 Alpha  occ. eigenvalues --   -0.23495  -0.22721
 Alpha virt. eigenvalues --   -0.07454  -0.06507   0.00102   0.01544   0.02791
 Alpha virt. eigenvalues --    0.03011   0.04623   0.04681   0.05454   0.06132
 Alpha virt. eigenvalues --    0.06683   0.06703   0.07694   0.08132   0.08888

 Mulliken charges:
               1
     1  Mg   0.974553
     2  C    0.002751
     3  C   -0.074121
     4  C   -0.058805
     5  C   -0.108662
     6  N   -0.330769
     7  C   -0.063179
     8  C    0.015553
     9  C   -0.121646
    10  C    0.063829
    11  C    0.011228
    12  C    0.011758
    13  C   -0.119986
    14  H    0.035287
    15  N   -0.515906
    16  C    0.190018
    17  C   -0.128771
    18  C   -0.091679
    19  C    0.167208
    20  C    0.036465
    21  C    0.055226
    22  O   -0.254770
    23  C    0.008727
    24  N   -0.326124
    25  C   -0.014245
    26  C   -0.059892
    27  C   -0.105026
    28  C    0.037537
    29  C    0.034213
    30  C    0.005195
    31  C   -0.035241
    32  N   -0.421088
    33  C    0.133125
    34  C   -0.209214
    35  C   -0.009041
    36  C    0.152731
    37  C    0.108961
    38  C    0.073407
    39  O   -0.209216
    40  C   -0.032059
    41  C    0.264657
    42  O   -0.283635
    43  O   -0.351470
    44  C    0.134904
    45  H   -0.012361
    46  H    0.030641
    47  H    0.003567
    48  H    0.033952
    49  H    0.037532
    50  H    0.041043
    51  H    0.017659
    52  H    0.035937
    53  H    0.014282
    54  H    0.025728
    55  H    0.056600
    56  H    0.056716
    57  H    0.040423
    58  H    0.054060
    59  H    0.039018
    60  H    0.053165
    61  H    0.060435
    62  H    0.061943
    63  H    0.043778
    64  H    0.028141
    65  H    0.033569
    66  H    0.048029
    67  H    0.054523
    68  H    0.023068
    69  H    0.008868
    70  H    0.052180
    71  H    0.038542
    72  H    0.041092
    73  H    0.077446
    74  H    0.017124
    75  H    0.049437
    76  H    0.080816
    77  H    0.066837
    78  H    0.047331
    79  H    0.046092
    80  Mg   0.973895
    81  C   -0.020945
    82  C   -0.054152
    83  C   -0.053528
    84  C   -0.110094
    85  N   -0.301884
    86  C   -0.007173
    87  C   -0.073287
    88  C   -0.132761
    89  C    0.070228
    90  C    0.036888
    91  C    0.034102
    92  C   -0.096269
    93  H    0.049823
    94  N   -0.460701
    95  C    0.091545
    96  C   -0.147367
    97  C   -0.078505
    98  C    0.134267
    99  C    0.063071
   100  C    0.051809
   101  O   -0.201380
   102  C   -0.020473
   103  N   -0.271109
   104  C    0.014665
   105  C   -0.095381
   106  C   -0.044770
   107  C    0.058135
   108  C    0.023282
   109  C   -0.029473
   110  C   -0.028130
   111  N   -0.485541
   112  C    0.125859
   113  C   -0.223638
   114  C   -0.055409
   115  C    0.152275
   116  C    0.077555
   117  C    0.163240
   118  O   -0.174806
   119  C   -0.083167
   120  C    0.267168
   121  O   -0.273080
   122  O   -0.389988
   123  C    0.157552
   124  H   -0.025703
   125  H    0.021064
   126  H   -0.000186
   127  H    0.020598
   128  H    0.035023
   129  H    0.041949
   130  H    0.027870
   131  H    0.045287
   132  H    0.025017
   133  H    0.073806
   134  H    0.043880
   135  H    0.037074
   136  H    0.048554
   137  H    0.053715
   138  H    0.042116
   139  H    0.049773
   140  H    0.042926
   141  H    0.056133
   142  H    0.045856
   143  H    0.031670
   144  H    0.049319
   145  H    0.037557
   146  H    0.032008
   147  H    0.020865
   148  H    0.014705
   149  H    0.040133
   150  H    0.034924
   151  H    0.038240
   152  H    0.028670
   153  H    0.052731
   154  H    0.061907
   155  H    0.080236
   156  H    0.043701
   157  H    0.073772
   158  H    0.042459
 Sum of Mulliken charges =  -0.00000

 Dipole moment (field-independent basis, Debye):
    X=              6.7968    Y=              0.1846    Z=              4.3116  Tot=              8.0511
 Quadrupole moment (field-independent basis, Debye-Ang):
   XX=           -619.2710   YY=           -470.7203   ZZ=           -513.1552
   XY=             41.7239   XZ=            125.3665   YZ=             10.0246

 Normal termination of Gaussian 16 at Mon Sep 20 03:23:21 2021.
