 Gaussian 16, Revision A.03,
 Gaussian 16:  ES64L-G16RevA.03 25-Dec-2016

 --------------------------------
 #p wB97XD/Def2SVP td=(nstates=5)
 --------------------------------

 --------------------------------
 TDDFT excited states in gaussian
 --------------------------------
 Symbolic Z-matrix:
 Charge =  0 Multiplicity = 1

                         Standard orientation:
 ---------------------------------------------------------------------
 Center     Atomic      Atomic             Coordinates (Angstroms)
 Number     Number       Type             X           Y           Z
 ---------------------------------------------------------------------
      1         12           0       13.557023   -0.551394    0.186477
      2          6           0       11.453923    2.198402   -0.354858
      3          6           0       16.310114    1.535387   -0.589297
      4          6           0       15.586256   -3.268152    0.362308
      5          6           0       10.772958   -2.593453    0.189324
      6          7           0       13.806537    1.611648   -0.226939
      7          6           0       12.772679    2.552358   -0.212856
      8          6           0       13.388073    3.991177   -0.072306
      9          6           0       14.888874    3.729531   -0.243978
     10          6           0       15.023947    2.176113   -0.414558
     11          6           0       15.434000    4.495135   -1.479665
     12          6           0       12.952946    4.577718    1.265091
     13          6           0       12.842902    6.089256    1.380557
     14          1           0       13.470637    6.955635    0.265332
     15          7           0       15.652471   -0.874576   -0.054549
     16          6           0       16.602399    0.104953   -0.401291
     17          6           0       17.924095   -0.485080   -0.521212
     18          6           0       17.801891   -1.890864   -0.185849
     19          6           0       16.302627   -2.064197    0.038161
     20          6           0       19.211076    0.316395   -0.754786
     21          6           0       18.851541   -2.979602   -0.071295
     22          8           0       18.530019   -4.116321    0.248385
     23          6           0       20.280171   -2.597805   -0.142069
     24          7           0       13.185989   -2.645857    0.333797
     25          6           0       14.197815   -3.545252    0.484486
     26          6           0       13.610554   -4.944606    0.805366
     27          6           0       12.047132   -4.731289    0.818053
     28          6           0       11.950943   -3.209197    0.537990
     29          6           0       14.090392   -5.977106   -0.230403
     30          6           0       11.352857   -5.063315    2.165589
     31          6           0       10.679571   -6.428137    2.059477
     32          7           0       11.498565   -0.360054   -0.135683
     33          6           0       10.477964   -1.250095   -0.182392
     34          6           0        9.278188   -0.522486   -0.662901
     35          6           0        9.568190    0.810325   -0.641296
     36          6           0       10.956860    0.847263   -0.355234
     37          6           0        7.955819   -1.235473   -0.890326
     38          6           0        9.057236    2.178441   -0.799821
     39          8           0        7.931078    2.553804   -1.102665
     40          6           0       10.243840    3.083578   -0.530617
     41          6           0       10.291154    4.017721   -1.666514
     42          8           0       10.709305    3.854091   -2.820686
     43          8           0        9.687955    5.190835   -1.261538
     44          6           0        9.562781    6.234796   -2.255321
     45          1           0       17.138709    2.227182   -0.753171
     46          1           0       16.317116   -4.066408    0.507752
     47          1           0        9.956852   -3.315291    0.114998
     48          1           0       12.938679    4.480407   -0.937329
     49          1           0       15.373589    4.220634    0.599749
     50          1           0       15.732166    3.863661   -2.316759
     51          1           0       16.415252    4.870762   -1.190966
     52          1           0       14.716660    5.219304   -1.865316
     53          1           0       13.647443    4.142622    1.984391
     54          1           0       12.002045    4.130035    1.551588
     55          1           0       13.239587    6.392824    2.348422
     56          1           0       11.760545    6.217550    1.417728
     57          1           0       19.041526    1.368437   -0.984830
     58          1           0       19.769133   -0.113425   -1.587681
     59          1           0       19.866937    0.175913    0.103595
     60          1           0       20.513585   -1.968695    0.717269
     61          1           0       20.540443   -2.233885   -1.135983
     62          1           0       20.936176   -3.456083    0.003579
     63          1           0       14.018619   -5.258247    1.765933
     64          1           0       11.679909   -5.284308   -0.047469
     65          1           0       13.317006   -6.514648   -0.778294
     66          1           0       14.573518   -6.683098    0.444731
     67          1           0       14.697980   -5.564370   -1.035263
     68          1           0       10.473935   -4.432956    2.301828
     69          1           0       12.026575   -5.049537    3.022546
     70          1           0       10.986550   -6.936218    2.973525
     71          1           0       11.093159   -7.072712    1.284246
     72          1           0        9.592513   -6.409559    1.976792
     73          1           0        8.009266   -2.324395   -0.903258
     74          1           0        7.463981   -0.923082   -1.810711
     75          1           0        7.329784   -1.076656   -0.011576
     76          1           0       10.061188    3.594913    0.413958
     77          1           0        9.106755    5.792173   -3.141257
     78          1           0       10.515687    6.680513   -2.541481
     79          1           0        8.721684    6.837139   -1.913725
     80         12           0      -13.252742   -0.732724   -0.117784
     81          6           0      -11.906980    2.235663    0.995554
     82          6           0      -15.566968    1.167192   -2.067901
     83          6           0      -14.818286   -3.494736   -0.944244
     84          6           0      -11.082338   -2.535358    1.932436
     85          7           0      -13.614277    1.453047   -0.442273
     86          6           0      -12.924924    2.468203    0.086713
     87          6           0      -13.446943    3.808224   -0.526892
     88          6           0      -14.716923    3.391907   -1.401581
     89          6           0      -14.673767    1.858061   -1.260595
     90          6           0      -16.078124    3.818974   -0.886910
     91          6           0      -12.388042    4.629339   -1.277994
     92          6           0      -12.363459    6.071571   -0.800441
     93          1           0      -11.890923    7.204144   -1.723535
     94          7           0      -14.907781   -1.097156   -1.402469
     95          6           0      -15.678231   -0.240217   -2.134325
     96          6           0      -16.628638   -0.908072   -2.906080
     97          6           0      -16.539785   -2.291982   -2.523679
     98          6           0      -15.367404   -2.357720   -1.584127
     99          6           0      -17.574936   -0.219819   -3.879065
    100          6           0      -17.437576   -3.453070   -2.918895
    101          8           0      -17.286079   -4.544683   -2.336847
    102          6           0      -18.548516   -3.291825   -3.874488
    103          7           0      -12.946404   -2.674894    0.401979
    104          6           0      -13.692634   -3.713578   -0.115762
    105          6           0      -13.294549   -5.137939    0.422495
    106          6           0      -11.914235   -4.771080    1.117355
    107          6           0      -11.981359   -3.234131    1.179024
    108          6           0      -14.240709   -5.947713    1.394337
    109          6           0      -10.575398   -5.426733    0.547282
    110          6           0      -10.037730   -4.809900   -0.716892
    111          7           0      -11.901044   -0.320783    1.284784
    112          6           0      -11.074741   -1.109958    2.061999
    113          6           0      -10.217898   -0.347439    2.874626
    114          6           0      -10.498075    0.955912    2.448266
    115          6           0      -11.532747    0.946587    1.467933
    116          6           0       -9.223909   -0.964868    3.763286
    117          6           0      -10.153568    2.283345    2.785442
    118          8           0       -9.404826    2.661264    3.688764
    119          6           0      -11.040899    3.237819    1.828051
    120          6           0      -11.829028    4.136523    2.652916
    121          8           0      -12.815077    3.855184    3.294905
    122          8           0      -11.255185    5.331931    2.712256
    123          6           0      -11.811189    6.328653    3.576672
    124          1           0      -16.302017    1.756459   -2.619326
    125          1           0      -15.235159   -4.487592   -1.123865
    126          1           0      -10.423161   -3.137969    2.560843
    127          1           0      -13.793296    4.307476    0.377472
    128          1           0      -14.595727    3.919034   -2.348576
    129          1           0      -16.048596    4.468695   -0.011700
    130          1           0      -16.648932    2.948017   -0.565988
    131          1           0      -16.678698    4.208060   -1.709671
    132          1           0      -12.484060    4.621336   -2.363867
    133          1           0      -11.421094    4.160121   -1.098007
    134          1           0      -11.626518    6.105033    0.002810
    135          1           0      -13.377694    6.293240   -0.468873
    136          1           0      -17.283118    0.814462   -4.061581
    137          1           0      -18.552406   -0.122608   -3.406107
    138          1           0      -17.724658   -0.822572   -4.774040
    139          1           0      -19.287021   -4.084254   -3.747837
    140          1           0      -18.126847   -3.417977   -4.872157
    141          1           0      -19.029922   -2.323971   -3.736561
    142          1           0      -12.976103   -5.808320   -0.376441
    143          1           0      -11.910932   -5.196279    2.120222
    144          1           0      -15.137823   -5.351080    1.554837
    145          1           0      -13.809866   -5.933037    2.396255
    146          1           0      -14.506384   -6.970493    1.125493
    147          1           0      -10.837386   -6.448562    0.273911
    148          1           0       -9.780038   -5.525960    1.284982
    149          1           0       -8.954171   -4.917609   -0.682503
    150          1           0      -10.288678   -3.787007   -0.994828
    151          1           0      -10.454160   -5.389678   -1.540645
    152          1           0       -8.789567   -1.922578    3.477633
    153          1           0       -9.465003   -0.963916    4.825604
    154          1           0       -8.430500   -0.218708    3.728607
    155          1           0      -10.354450    3.815739    1.209564
    156          1           0      -12.572708    6.930757    3.079713
    157          1           0      -11.001547    7.013273    3.828737
    158          1           0      -12.260846    5.853488    4.448655
 ---------------------------------------------------------------------

 SCF Done:  E(RwB97XD) =  -4070.61813244     A.U. after   19 cycles

 Excitation energies and oscillator strengths:

 Excited State   1:      Singlet-A      1.6252 eV  762.87 nm  f=0.4761  <S**2>=0.000
     310 -> 315       -0.17725
     312 -> 314        0.67880
     310 <- 315       -0.11245
 This state for optimization and/or second-order correction.
 Total Energy, E(TD-HF/TD-DFT) =  -4070.55840628
 Copying the excited state density for this state as the 1-particle RhoCI density.

 Excited State   2:      Singlet-A      1.6479 eV  752.38 nm  f=0.3401  <S**2>=0.000
     309 -> 316        0.17666
     311 -> 313        0.67853
     309 <- 316        0.11343

 Excited State   3:      Singlet-A      2.1419 eV  578.84 nm  f=0.1104  <S**2>=0.000
     310 -> 314        0.64291
     312 -> 315        0.27648

 Excited State   4:      Singlet-A      2.1651 eV  572.66 nm  f=0.1604  <S**2>=0.000
     309 -> 313        0.65088
     311 -> 316       -0.25698

 Excited State   5:      Singlet-A      3.6185 eV  342.64 nm  f=0.0000  <S**2>=0.000
     312 -> 313        0.70702

 The electronic state is 1-A.
 Alpha  occ. eigenvalues --  -46.95430 -46.93973 -19.29948 -19.29642 -19.24700
 Alpha  occ. eigenvalues --  -19.24283 -19.24262 -19.23585 -19.23473 -19.23240
 Alpha  occ. eigenvalues --  -14.46831 -14.46766 -14.46726 -14.46309 -14.44733
 Alpha  occ. eigenvalues --  -14.44262 -14.43726 -14.43500 -10.43174 -10.42027
 Alpha  occ. eigenvalues --  -10.39464 -10.39353 -10.38789 -10.38460 -10.36054
 Alpha  occ. eigenvalues --  -10.35500 -10.35287 -10.35250 -10.35177 -10.35096
 Alpha  occ. eigenvalues --  -10.35089 -10.34864 -10.34743 -10.34650 -10.34636
 Alpha  occ. eigenvalues --  -10.34080 -10.34020 -10.33757 -10.33350 -10.33271
 Alpha  occ. eigenvalues --  -10.32988 -10.32972 -10.32919 -10.32556 -10.32512
 Alpha  occ. eigenvalues --  -10.32412 -10.32389 -10.32376 -10.32342 -10.32267
 Alpha  occ. eigenvalues --  -10.32238 -10.32222 -10.31953 -10.31804 -10.31784
 Alpha  occ. eigenvalues --  -10.31735 -10.31676 -10.31622 -10.31588 -10.31587
 Alpha  occ. eigenvalues --  -10.31577 -10.31574 -10.31566 -10.31413 -10.31325
 Alpha  occ. eigenvalues --  -10.31171 -10.30685 -10.30657 -10.30502 -10.30451
 Alpha  occ. eigenvalues --  -10.30380 -10.30308 -10.30234 -10.30199 -10.30186
 Alpha  occ. eigenvalues --  -10.30119 -10.29972 -10.29556 -10.29377 -10.29365
 Alpha  occ. eigenvalues --  -10.29298 -10.29109 -10.28788 -10.28728 -10.28698
 Alpha  occ. eigenvalues --  -10.28604  -3.21280  -3.20165  -1.94880  -1.94359
 Alpha  occ. eigenvalues --   -1.94279  -1.93760  -1.93312  -1.93144  -1.20030
 Alpha  occ. eigenvalues --   -1.17916  -1.12699  -1.12179  -1.11016  -1.10670
 Alpha  occ. eigenvalues --   -1.09893  -1.09013  -1.06543  -1.06275  -1.05692
 Alpha  occ. eigenvalues --   -1.05269  -1.04771  -1.04616  -1.04519  -1.03675
 Alpha  occ. eigenvalues --   -0.95297  -0.93982  -0.91214  -0.91088  -0.90609
 Alpha  occ. eigenvalues --   -0.90583  -0.90146  -0.89885  -0.89517  -0.89383
 Alpha  occ. eigenvalues --   -0.89015  -0.88777  -0.88667  -0.87491  -0.86457
 Alpha  occ. eigenvalues --   -0.86226  -0.85729  -0.85689  -0.84770  -0.84596
 Alpha  occ. eigenvalues --   -0.84316  -0.84269  -0.83083  -0.82811  -0.82503
 Alpha  occ. eigenvalues --   -0.81967  -0.80254  -0.80076  -0.79190  -0.79163
 Alpha  occ. eigenvalues --   -0.78768  -0.78680  -0.77829  -0.77819  -0.77153
 Alpha  occ. eigenvalues --   -0.76463  -0.75374  -0.74486  -0.73361  -0.72964
 Alpha  occ. eigenvalues --   -0.71495  -0.71013  -0.70766  -0.70379  -0.69846
 Alpha  occ. eigenvalues --   -0.69681  -0.69058  -0.69022  -0.67304  -0.67275
 Alpha  occ. eigenvalues --   -0.66855  -0.66803  -0.66624  -0.66507  -0.66289
 Alpha  occ. eigenvalues --   -0.65861  -0.64236  -0.64078  -0.62360  -0.62132
 Alpha  occ. eigenvalues --   -0.61923  -0.61575  -0.61029  -0.60929  -0.60720
 Alpha  occ. eigenvalues --   -0.60431  -0.60314  -0.60238  -0.59622  -0.59603
 Alpha  occ. eigenvalues --   -0.58440  -0.58031  -0.57827  -0.57689  -0.57035
 Alpha  occ. eigenvalues --   -0.56993  -0.56693  -0.56525  -0.56232  -0.55544
 Alpha  occ. eigenvalues --   -0.55469  -0.55388  -0.55295  -0.55215  -0.55068
 Alpha  occ. eigenvalues --   -0.54828  -0.54730  -0.54639  -0.54391  -0.54172
 Alpha  occ. eigenvalues --   -0.53948  -0.53783  -0.53636  -0.53609  -0.53291
 Alpha  occ. eigenvalues --   -0.53218  -0.52671  -0.52301  -0.52213  -0.52153
 Alpha  occ. eigenvalues --   -0.51870  -0.51811  -0.51540  -0.51527  -0.51356
 Alpha  occ. eigenvalues --   -0.51199  -0.51172  -0.51096  -0.51014  -0.50931
 Alpha  occ. eigenvalues --   -0.50805  -0.50535  -0.50266  -0.50051  -0.49999
 Alpha  occ. eigenvalues --   -0.49764  -0.49650  -0.49320  -0.49225  -0.49085
 Alpha  occ. eigenvalues --   -0.48747  -0.48618  -0.48391  -0.48282  -0.48246
 Alpha  occ. eigenvalues --   -0.47932  -0.47883  -0.47801  -0.47375  -0.47285
 Alpha  occ. eigenvalues --   -0.47140  -0.46992  -0.46871  -0.46796  -0.46675
 Alpha  occ. eigenvalues --   -0.46451  -0.46358  -0.46290  -0.46230  -0.46109
 Alpha  occ. eigenvalues --   -0.45771  -0.45506  -0.45500  -0.45374  -0.45335
 Alpha  occ. eigenvalues --   -0.45136  -0.45117  -0.44950  -0.44777  -0.44593
 Alpha  occ. eigenvalues --   -0.44548  -0.44421  -0.44224  -0.43858  -0.43731
 Alpha  occ. eigenvalues --   -0.43458  -0.43406  -0.43360  -0.43273  -0.43169
 Alpha  occ. eigenvalues --   -0.42965  -0.42948  -0.42844  -0.42315  -0.42287
 Alpha  occ. eigenvalues --   -0.41838  -0.41046  -0.40796  -0.40795  -0.40326
 Alpha  occ. eigenvalues --   -0.40035  -0.39891  -0.39858  -0.39647  -0.39596
 Alpha  occ. eigenvalues --   -0.39099  -0.38587  -0.38565  -0.38274  -0.38268
 Alpha  occ. eigenvalues --   -0.38048  -0.37740  -0.36274  -0.36163  -0.36027
 Alpha  occ. eigenvalues --   -0.35731  -0.35319  -0.34850  -0.33608  -0.33536
 Alpha  occ. eigenvalues --   -0.33485  -0.33358  -0.32660  -0.32486  -0.32434
 Alpha  occ. eigenvalues --   -0.32157  -0.32149  -0.31880  -0.25981  -0.25704
 Alpha  occ. eigenvalues --   -0.23224  -0.22716
 Alpha virt. eigenvalues --   -0.07400  -0.06994   0.00483   0.00561   0.02258
 Alpha virt. eigenvalues --    0.02598   0.04013   0.04646   0.05558   0.06286
 Alpha virt. eigenvalues --    0.07413   0.07816   0.07992   0.08239   0.08310

 Mulliken charges:
               1
     1  Mg   0.955649
     2  C   -0.016238
     3  C   -0.071930
     4  C   -0.061465
     5  C   -0.075414
     6  N   -0.370209
     7  C   -0.076387
     8  C   -0.019382
     9  C   -0.128166
    10  C    0.112549
    11  C    0.004222
    12  C    0.005687
    13  C   -0.087423
    14  H    0.044047
    15  N   -0.442500
    16  C    0.155446
    17  C   -0.170852
    18  C   -0.084810
    19  C    0.094700
    20  C    0.080356
    21  C    0.059021
    22  O   -0.231406
    23  C   -0.015822
    24  N   -0.372842
    25  C    0.091442
    26  C   -0.107449
    27  C   -0.062952
    28  C    0.055587
    29  C    0.009063
    30  C    0.009709
    31  C   -0.064261
    32  N   -0.405582
    33  C    0.114608
    34  C   -0.207845
    35  C   -0.016070
    36  C    0.137505
    37  C    0.069692
    38  C    0.119981
    39  O   -0.196787
    40  C   -0.032997
    41  C    0.261226
    42  O   -0.260859
    43  O   -0.368819
    44  C    0.150883
    45  H   -0.002631
    46  H    0.022678
    47  H   -0.005064
    48  H    0.035188
    49  H    0.041305
    50  H    0.033133
    51  H    0.028419
    52  H    0.050189
    53  H    0.018845
    54  H    0.026513
    55  H    0.050801
    56  H    0.056984
    57  H    0.044916
    58  H    0.041529
    59  H    0.050561
    60  H    0.068946
    61  H    0.058660
    62  H    0.044844
    63  H    0.042175
    64  H    0.041108
    65  H    0.028319
    66  H    0.042361
    67  H    0.055115
    68  H    0.035812
    69  H    0.040930
    70  H    0.024680
    71  H    0.026384
    72  H    0.047187
    73  H    0.017725
    74  H    0.060187
    75  H    0.049861
    76  H    0.082273
    77  H    0.044763
    78  H    0.059061
    79  H    0.053334
    80  Mg   0.992193
    81  C   -0.044677
    82  C   -0.105232
    83  C   -0.051565
    84  C   -0.103958
    85  N   -0.349852
    86  C   -0.028311
    87  C   -0.021335
    88  C   -0.162810
    89  C    0.116156
    90  C    0.006276
    91  C    0.037890
    92  C   -0.145991
    93  H    0.028948
    94  N   -0.425341
    95  C    0.160190
    96  C   -0.175159
    97  C   -0.074148
    98  C    0.171274
    99  C    0.066480
   100  C    0.038051
   101  O   -0.260232
   102  C    0.004680
   103  N   -0.396072
   104  C    0.027576
   105  C   -0.070151
   106  C   -0.076063
   107  C    0.087075
   108  C    0.029270
   109  C   -0.031211
   110  C   -0.058256
   111  N   -0.470266
   112  C    0.132037
   113  C   -0.134331
   114  C   -0.037845
   115  C    0.195538
   116  C    0.072322
   117  C    0.096229
   118  O   -0.219274
   119  C   -0.078306
   120  C    0.235513
   121  O   -0.251601
   122  O   -0.327995
   123  C    0.135859
   124  H   -0.002149
   125  H    0.021754
   126  H   -0.004736
   127  H    0.033153
   128  H    0.042997
   129  H    0.043749
   130  H    0.040330
   131  H    0.035142
   132  H    0.039626
   133  H    0.030203
   134  H    0.063294
   135  H    0.056012
   136  H    0.042434
   137  H    0.056953
   138  H    0.056357
   139  H    0.055754
   140  H    0.067014
   141  H    0.044952
   142  H    0.038408
   143  H    0.027309
   144  H    0.039837
   145  H    0.027253
   146  H    0.056690
   147  H    0.029093
   148  H    0.032942
   149  H    0.037941
   150  H    0.047739
   151  H    0.028732
   152  H    0.046056
   153  H    0.055470
   154  H    0.045617
   155  H    0.065796
   156  H    0.042496
   157  H    0.055601
   158  H    0.066607
 Sum of Mulliken charges =  -0.00000

 Dipole moment (field-independent basis, Debye):
    X=              2.5442    Y=              0.3454    Z=             -1.0188  Tot=              2.7622
 Quadrupole moment (field-independent basis, Debye-Ang):
   XX=           -366.1936   YY=           -475.3297   ZZ=           -515.1140
   XY=             13.4303   XZ=             92.0640   YZ=            -13.7535

 Normal termination of Gaussian 16 at Sun Sep 19 23:52:29 2021.
