 Gaussian 16, Revision A.03,
 Gaussian 16:  ES64L-G16RevA.03 25-Dec-2016

 --------------------------------
 #p wB97XD/Def2SVP td=(nstates=5)
 --------------------------------

 --------------------------------
 TDDFT excited states in gaussian
 --------------------------------
 Symbolic Z-matrix:
 Charge =  0 Multiplicity = 1

                         Standard orientation:
 ---------------------------------------------------------------------
 Center     Atomic      Atomic             Coordinates (Angstroms)
 Number     Number       Type             X           Y           Z
 ---------------------------------------------------------------------
      1         12           0        0.807274    0.182252   -0.172958
      2          6           0       -2.687659    0.051262   -0.207873
      3          6           0        0.741451   -3.285554   -0.262334
      4          6           0        4.024182    0.271290    0.290560
      5          6           0        0.576455    3.702197    0.143878
      6          7           0       -0.832869   -1.478372    0.177926
      7          6           0       -2.135265   -1.261941   -0.032653
      8          6           0       -2.817770   -2.588628   -0.059835
      9          6           0       -1.733875   -3.608103    0.368433
     10          6           0       -0.506328   -2.775077    0.056982
     11          6           0       -1.737450   -4.172156    1.790331
     12          6           0       -3.398715   -2.917183   -1.471719
     13          6           0       -4.879011   -3.404947   -1.587446
     14          1           0       -5.510893   -4.205518   -0.406255
     15          7           0        2.238952   -1.332261   -0.155378
     16          6           0        1.982157   -2.674894   -0.399414
     17          6           0        3.249257   -3.329514   -0.438263
     18          6           0        4.256442   -2.324801   -0.145558
     19          6           0        3.555839   -1.057891    0.002700
     20          6           0        3.446188   -4.850606   -0.618805
     21          6           0        5.790486   -2.482355    0.060374
     22          8           0        6.531305   -1.587427    0.318650
     23          6           0        6.349218   -3.875266   -0.154113
     24          7           0        2.074347    1.775340    0.151567
     25          6           0        3.384915    1.537981    0.382767
     26          6           0        4.223819    2.821664    0.631712
     27          6           0        3.130046    3.928053    0.308473
     28          6           0        1.842924    3.125364    0.160660
     29          6           0        4.827707    2.830510    2.152197
     30          6           0        3.517774    4.867817   -0.876143
     31          6           0        2.940186    4.558922   -2.245787
     32          7           0       -0.712453    1.669063   -0.087787
     33          6           0       -0.647445    3.035784   -0.050323
     34          6           0       -2.052781    3.572466   -0.098553
     35          6           0       -2.867138    2.419235   -0.162509
     36          6           0       -2.024995    1.259343   -0.112950
     37          6           0       -2.502153    4.996941    0.082370
     38          6           0       -4.245086    1.939161   -0.232139
     39          8           0       -5.282204    2.608220   -0.250040
     40          6           0       -4.145483    0.428923   -0.425314
     41          6           0       -5.061910   -0.173383    0.600873
     42          8           0       -4.804892   -0.297326    1.784338
     43          8           0       -6.223620   -0.342556   -0.008914
     44          6           0       -7.411774   -0.519384    0.811181
     45          1           0        0.726427   -4.370759   -0.145616
     46          1           0        5.113530    0.338610    0.265721
     47          1           0        0.507434    4.789165    0.226415
     48          1           0       -3.649756   -2.565249    0.643264
     49          1           0       -1.877185   -4.481690   -0.267631
     50          1           0       -2.554311   -3.851024    2.436884
     51          1           0       -0.801808   -3.928765    2.294530
     52          1           0       -1.792450   -5.255217    1.682785
     53          1           0       -2.767751   -3.585785   -2.056972
     54          1           0       -3.300464   -1.932777   -1.929103
     55          1           0       -4.863450   -4.047015   -2.469036
     56          1           0       -5.514408   -2.540803   -1.779734
     57          1           0        4.060378   -5.301050    0.160982
     58          1           0        4.019057   -5.090255   -1.514758
     59          1           0        2.519128   -5.420589   -0.693155
     60          1           0        6.042098   -4.312476   -1.104404
     61          1           0        6.064396   -4.486259    0.702520
     62          1           0        7.434104   -3.868234   -0.049047
     63          1           0        5.070142    2.906896   -0.049663
     64          1           0        2.994862    4.644028    1.119033
     65          1           0        4.247295    3.596286    2.666968
     66          1           0        5.848297    3.209180    2.212179
     67          1           0        4.652491    1.907583    2.706166
     68          1           0        4.586736    4.695705   -1.002601
     69          1           0        3.366605    5.921113   -0.640770
     70          1           0        3.043290    3.476864   -2.335827
     71          1           0        3.614491    5.122368   -2.890299
     72          1           0        1.885243    4.729384   -2.459044
     73          1           0       -1.759759    5.750436    0.345599
     74          1           0       -3.250478    5.037616    0.873988
     75          1           0       -3.035339    5.242513   -0.835516
     76          1           0       -4.578197    0.057398   -1.354409
     77          1           0       -7.349178   -0.414303    1.893824
     78          1           0       -7.655876   -1.569582    0.648258
     79          1           0       -8.267792   -0.139878    0.253093
 ---------------------------------------------------------------------

 SCF Done:  E(RwB97XD) =  -2035.30297610     A.U. after   20 cycles

 Excitation energies and oscillator strengths:

 Excited State   1:      Singlet-A      1.6771 eV  739.27 nm  f=0.3952  <S**2>=0.000
     155 ->158         0.19195
     156 ->157         0.68163
     155 <-158         0.11866
 This state for optimization and/or second-order correction.
 Total Energy, E(TD-HF/TD-DFT) =  -2035.24134361
 Copying the excited state density for this state as the 1-particle RhoCI density.

 Excited State   2:      Singlet-A      2.1599 eV  574.04 nm  f=0.0978  <S**2>=0.000
     155 ->157         0.64015
     156 ->158        -0.28503

 Excited State   3:      Singlet-A      3.3635 eV  368.62 nm  f=0.0023  <S**2>=0.000
     153 ->157        -0.35498
     154 ->157         0.58042

 Excited State   4:      Singlet-A      3.4601 eV  358.32 nm  f=0.1120  <S**2>=0.000
     150 ->157        -0.28459
     150 ->159         0.20060
     153 ->157         0.33907
     154 ->157         0.27159
     155 ->157         0.10933
     156 ->158         0.38003

 Excited State   5:      Singlet-A      3.5245 eV  351.78 nm  f=0.0451  <S**2>=0.000
     150 ->157         0.45840
     150 ->159        -0.32184
     151 ->157         0.11297
     153 ->157         0.28082
     156 ->158         0.22886

 The electronic state is 1-A.
 Alpha  occ. eigenvalues --  -46.95128 -19.31509 -19.24638 -19.24553 -19.23562
 Alpha  occ. eigenvalues --  -14.46360 -14.46185 -14.43952 -14.43298 -10.43040
 Alpha  occ. eigenvalues --  -10.39561 -10.38389 -10.35823 -10.35322 -10.35137
 Alpha  occ. eigenvalues --  -10.34784 -10.34752 -10.33699 -10.33628 -10.33534
 Alpha  occ. eigenvalues --  -10.33483 -10.33349 -10.32915 -10.32436 -10.32403
 Alpha  occ. eigenvalues --  -10.32385 -10.32133 -10.31621 -10.31189 -10.31119
 Alpha  occ. eigenvalues --  -10.31042 -10.30716 -10.30626 -10.30598 -10.30424
 Alpha  occ. eigenvalues --  -10.30337 -10.30269 -10.29948 -10.29939 -10.29802
 Alpha  occ. eigenvalues --  -10.29212 -10.29037 -10.28893  -3.21035  -1.94630
 Alpha  occ. eigenvalues --   -1.94192  -1.93964  -1.20566  -1.13517  -1.11922
 Alpha  occ. eigenvalues --   -1.10897  -1.07024  -1.05780  -1.04676  -1.03857
 Alpha  occ. eigenvalues --   -0.95407  -0.90591  -0.90487  -0.89934  -0.89029
 Alpha  occ. eigenvalues --   -0.88233  -0.87432  -0.86382  -0.85617  -0.84506
 Alpha  occ. eigenvalues --   -0.83349  -0.82703  -0.81960  -0.79876  -0.79310
 Alpha  occ. eigenvalues --   -0.78909  -0.78228  -0.77035  -0.74693  -0.73693
 Alpha  occ. eigenvalues --   -0.71462  -0.70889  -0.70001  -0.68065  -0.67247
 Alpha  occ. eigenvalues --   -0.66906  -0.66628  -0.66338  -0.64814  -0.61836
 Alpha  occ. eigenvalues --   -0.61653  -0.61179  -0.60481  -0.60106  -0.59304
 Alpha  occ. eigenvalues --   -0.58837  -0.58003  -0.56918  -0.56744  -0.56646
 Alpha  occ. eigenvalues --   -0.55591  -0.55211  -0.54831  -0.54450  -0.53896
 Alpha  occ. eigenvalues --   -0.53607  -0.53342  -0.53144  -0.52997  -0.52133
 Alpha  occ. eigenvalues --   -0.51625  -0.51322  -0.51105  -0.50758  -0.50629
 Alpha  occ. eigenvalues --   -0.50312  -0.50016  -0.49888  -0.49257  -0.48817
 Alpha  occ. eigenvalues --   -0.48321  -0.47928  -0.47833  -0.47792  -0.47599
 Alpha  occ. eigenvalues --   -0.47535  -0.47324  -0.46956  -0.46746  -0.46427
 Alpha  occ. eigenvalues --   -0.45707  -0.45328  -0.45167  -0.45029  -0.44902
 Alpha  occ. eigenvalues --   -0.44637  -0.44104  -0.43710  -0.43547  -0.43108
 Alpha  occ. eigenvalues --   -0.42952  -0.42598  -0.42165  -0.41538  -0.41196
 Alpha  occ. eigenvalues --   -0.40287  -0.39189  -0.39024  -0.38787  -0.38427
 Alpha  occ. eigenvalues --   -0.38147  -0.36415  -0.36088  -0.35342  -0.33449
 Alpha  occ. eigenvalues --   -0.33003  -0.32277  -0.32152  -0.31074  -0.25720
 Alpha  occ. eigenvalues --   -0.22880
 Alpha virt. eigenvalues --   -0.06832   0.00395   0.02215   0.04987   0.05888
 Alpha virt. eigenvalues --    0.07693   0.07865   0.08194   0.09752   0.10212
 Alpha virt. eigenvalues --    0.11500   0.12293   0.12760   0.13565   0.14366

 Mulliken charges:
               1
     1  Mg   0.943639
     2  C   -0.009972
     3  C   -0.053652
     4  C   -0.049902
     5  C   -0.089558
     6  N   -0.281301
     7  C    0.032712
     8  C   -0.102536
     9  C   -0.079040
    10  C   -0.023181
    11  C    0.044044
    12  C   -0.008001
    13  C   -0.108826
    14  H    0.034717
    15  N   -0.486488
    16  C    0.194306
    17  C   -0.162108
    18  C   -0.110851
    19  C    0.127568
    20  C    0.066865
    21  C    0.057649
    22  O   -0.197958
    23  C   -0.025213
    24  N   -0.388472
    25  C    0.068254
    26  C   -0.106279
    27  C   -0.052049
    28  C    0.081456
    29  C    0.014967
    30  C   -0.034395
    31  C   -0.035083
    32  N   -0.430920
    33  C    0.126595
    34  C   -0.181571
    35  C   -0.031506
    36  C    0.144790
    37  C    0.071977
    38  C    0.142785
    39  O   -0.213866
    40  C   -0.092617
    41  C    0.223672
    42  O   -0.247821
    43  O   -0.327067
    44  C    0.146636
    45  H   -0.006221
    46  H    0.024711
    47  H   -0.006550
    48  H    0.040500
    49  H    0.020992
    50  H    0.046973
    51  H    0.041499
    52  H    0.029955
    53  H    0.038451
    54  H    0.025586
    55  H    0.052986
    56  H    0.060537
    57  H    0.037149
    58  H    0.040634
    59  H    0.034198
    60  H    0.057482
    61  H    0.052200
    62  H    0.039926
    63  H    0.050014
    64  H    0.031429
    65  H    0.019125
    66  H    0.045891
    67  H    0.058989
    68  H    0.022767
    69  H    0.029633
    70  H    0.030049
    71  H    0.044292
    72  H    0.041670
    73  H    0.038409
    74  H    0.061896
    75  H    0.059407
    76  H    0.073380
    77  H    0.085494
    78  H    0.026945
    79  H    0.057202
 Sum of Mulliken charges =  -0.00000

 Dipole moment (field-independent basis, Debye):
    X=             -0.7031    Y=             -1.6682    Z=             -1.9295  Tot=              2.6458
 Quadrupole moment (field-independent basis, Debye-Ang):
   XX=           -264.1412   YY=           -221.3611   ZZ=           -257.9424
   XY=             19.4554   XZ=              1.4690   YZ=              3.7805

 Normal termination of Gaussian 16 at Mon Sep 20 21:22:15 2021.
