 Gaussian 16, Revision A.03,
 Gaussian 16:  ES64L-G16RevA.03 25-Dec-2016

 --------------------------------
 #p wB97XD/Def2SVP td=(nstates=5)
 --------------------------------

 --------------------------------
 TDDFT excited states in gaussian
 --------------------------------
 Symbolic Z-matrix:
 Charge =  0 Multiplicity = 1

                         Standard orientation:
 ---------------------------------------------------------------------
 Center     Atomic      Atomic             Coordinates (Angstroms)
 Number     Number       Type             X           Y           Z
 ---------------------------------------------------------------------
      1         12           0       33.526492    0.050085    0.152942
      2          6           0       30.053151   -0.260042    0.560382
      3          6           0       33.675225   -3.306063   -0.353494
      4          6           0       36.660708    0.554050   -0.633886
      5          6           0       32.889069    3.583847   -0.116542
      6          7           0       32.045071   -1.555191    0.182267
      7          6           0       30.691605   -1.463678    0.345324
      8          6           0       30.068146   -2.809599   -0.053602
      9          6           0       31.211891   -3.778685    0.224626
     10          6           0       32.382782   -2.830039   -0.096349
     11          6           0       31.249969   -4.258998    1.693805
     12          6           0       29.632388   -2.815428   -1.565539
     13          6           0       28.064709   -2.904096   -1.908636
     14          1           0       27.403888   -1.753673   -2.687039
     15          7           0       34.957793   -1.191162   -0.471139
     16          6           0       34.837857   -2.555966   -0.598571
     17          6           0       36.133345   -3.092712   -0.876151
     18          6           0       37.097256   -2.030991   -0.856030
     19          6           0       36.272156   -0.804704   -0.654761
     20          6           0       36.400121   -4.618912   -1.111634
     21          6           0       38.650769   -2.223897   -0.997362
     22          8           0       39.115421   -3.321410   -1.038130
     23          6           0       39.511582   -1.065021   -0.794095
     24          7           0       34.558155    1.804810   -0.622756
     25          6           0       35.903010    1.730701   -0.481833
     26          6           0       36.551453    3.076835   -0.205483
     27          6           0       35.410108    4.060471   -0.413843
     28          6           0       34.175566    3.093585   -0.392014
     29          6           0       37.166294    3.176943    1.239444
     30          6           0       35.413955    5.014632   -1.699423
     31          6           0       35.686244    6.491345   -1.595738
     32          7           0       31.912190    1.416705    0.402519
     33          6           0       31.795428    2.805961    0.266163
     34          6           0       30.428580    3.246833    0.442170
     35          6           0       29.727004    2.075250    0.586955
     36          6           0       30.631511    0.963876    0.536803
     37          6           0       29.964188    4.642119    0.375603
     38          6           0       28.392659    1.528506    0.780069
     39          8           0       27.320285    2.115361    0.970730
     40          6           0       28.560253    0.026888    0.879411
     41          6           0       28.089693   -0.389725    2.268675
     42          8           0       28.611425    0.078684    3.277917
     43          8           0       26.960510   -1.220852    2.204493
     44          6           0       26.441601   -1.625116    3.483798
     45          1           0       33.709311   -4.397238   -0.354878
     46          1           0       37.746023    0.650446   -0.576632
     47          1           0       32.723593    4.663071   -0.089002
     48          1           0       29.140418   -2.903871    0.511342
     49          1           0       31.112388   -4.622153   -0.457435
     50          1           0       31.324341   -5.330470    1.511330
     51          1           0       30.291889   -3.946673    2.110250
     52          1           0       32.064686   -3.884606    2.313733
     53          1           0       30.071880   -3.701516   -2.023408
     54          1           0       30.107911   -1.962308   -2.048796
     55          1           0       27.560463   -2.897445   -0.942010
     56          1           0       27.757623   -3.828614   -2.396119
     57          1           0       36.974826   -4.908102   -1.990968
     58          1           0       35.414332   -5.079570   -1.183585
     59          1           0       36.906050   -5.092087   -0.269873
     60          1           0       39.316485   -0.234669   -1.473085
     61          1           0       40.547445   -1.382361   -0.913735
     62          1           0       39.526848   -0.789635    0.259541
     63          1           0       37.403203    3.273493   -0.857453
     64          1           0       35.294783    4.696338    0.463939
     65          1           0       38.241963    3.003267    1.263563
     66          1           0       36.588127    2.557242    1.924842
     67          1           0       37.017610    4.203523    1.577365
     68          1           0       34.617882    4.889843   -2.432660
     69          1           0       36.291256    4.558477   -2.158853
     70          1           0       36.619263    6.795677   -2.068983
     71          1           0       35.751235    6.777176   -0.545613
     72          1           0       34.825884    6.957385   -2.075488
     73          1           0       30.670595    5.197271   -0.242164
     74          1           0       30.041430    5.022824    1.394427
     75          1           0       28.926949    4.702089    0.049188
     76          1           0       27.861480   -0.336348    0.127051
     77          1           0       27.013053   -2.411452    3.977692
     78          1           0       25.417425   -1.988414    3.403883
     79          1           0       26.366186   -0.819227    4.213332
     80         12           0      -33.062504    0.521770    0.411561
     81          6           0      -30.841700   -2.066887   -0.132789
     82          6           0      -30.682512    2.691519   -0.804232
     83          6           0      -35.444498    2.996536    0.382532
     84          6           0      -35.428360   -1.725488    1.508714
     85          7           0      -31.097835    0.315911   -0.554525
     86          6           0      -30.373118   -0.859075   -0.590287
     87          6           0      -28.980808   -0.650960   -1.180179
     88          6           0      -28.834283    0.912163   -1.064848
     89          6           0      -30.281663    1.326493   -0.843460
     90          6           0      -27.784574    1.473854   -0.002378
     91          6           0      -28.734332   -1.242217   -2.604823
     92          6           0      -27.431761   -1.991755   -2.789395
     93          1           0      -26.463761   -1.245000   -3.693904
     94          7           0      -33.031070    2.522014   -0.150614
     95          6           0      -31.978450    3.222148   -0.588210
     96          6           0      -32.326828    4.621356   -0.764480
     97          6           0      -33.662444    4.825500   -0.460481
     98          6           0      -34.141541    3.422201   -0.100543
     99          6           0      -31.290929    5.702842   -1.334894
    100          6           0      -34.427363    6.191722   -0.431747
    101          8           0      -33.816576    7.235215   -0.798725
    102          6           0      -35.851689    6.285092   -0.037794
    103          7           0      -35.283305    0.591322    0.660155
    104          6           0      -35.961029    1.710833    0.768617
    105          6           0      -37.307098    1.520905    1.436046
    106          6           0      -37.434318   -0.006974    1.756949
    107          6           0      -35.941672   -0.443994    1.366965
    108          6           0      -37.790460    2.533582    2.522808
    109          6           0      -38.500194   -0.880900    1.034435
    110          6           0      -38.768307   -2.192805    1.742539
    111          7           0      -33.138862   -1.530663    0.639180
    112          6           0      -34.165820   -2.330902    1.191120
    113          6           0      -33.666682   -3.674602    1.299695
    114          6           0      -32.333772   -3.642633    0.822153
    115          6           0      -32.123008   -2.329387    0.411128
    116          6           0      -34.331492   -4.832032    2.029910
    117          6           0      -31.225848   -4.441844    0.640832
    118          8           0      -30.990380   -5.615428    0.737382
    119          6           0      -30.201215   -3.473130   -0.149427
    120          6           0      -30.325680   -3.918390   -1.605724
    121          8           0      -31.212363   -3.596439   -2.373007
    122          8           0      -29.255260   -4.761329   -1.857560
    123          6           0      -29.238202   -5.394525   -3.172251
    124          1           0      -29.916331    3.447475   -0.987612
    125          1           0      -36.146417    3.832429    0.361905
    126          1           0      -36.020634   -2.521840    1.964196
    127          1           0      -28.263974   -1.080451   -0.480931
    128          1           0      -28.659370    1.282018   -2.075807
    129          1           0      -28.180066    2.471630    0.187389
    130          1           0      -26.795729    1.677507   -0.413994
    131          1           0      -27.653609    0.896596    0.912791
    132          1           0      -28.752367   -0.359464   -3.244304
    133          1           0      -29.558921   -1.787976   -3.062943
    134          1           0      -27.677565   -2.968311   -3.207176
    135          1           0      -26.903256   -2.148670   -1.848890
    136          1           0      -30.313001    5.307993   -1.613521
    137          1           0      -31.135842    6.502966   -0.610349
    138          1           0      -31.597060    6.125232   -2.290954
    139          1           0      -35.971496    5.920784    0.982025
    140          1           0      -36.506927    5.851316   -0.793291
    141          1           0      -36.011362    7.352405    0.110221
    142          1           0      -38.172001    1.582130    0.775198
    143          1           0      -37.377168   -0.215180    2.825613
    144          1           0      -37.112392    3.385655    2.458010
    145          1           0      -37.896192    2.097188    3.516693
    146          1           0      -38.780582    2.950228    2.337403
    147          1           0      -38.148329   -0.996232    0.009346
    148          1           0      -39.376537   -0.235728    0.973031
    149          1           0      -39.810070   -2.456691    1.558638
    150          1           0      -38.626127   -2.177447    2.823767
    151          1           0      -38.199478   -2.982690    1.251945
    152          1           0      -33.686303   -5.700940    2.159952
    153          1           0      -35.235438   -5.091516    1.480390
    154          1           0      -34.659285   -4.534997    3.026178
    155          1           0      -29.207501   -3.494819    0.299025
    156          1           0      -30.085871   -6.074501   -3.258636
    157          1           0      -28.292152   -5.898324   -3.367466
    158          1           0      -29.394689   -4.637848   -3.940534
 ---------------------------------------------------------------------

 SCF Done:  E(RwB97XD) =  -4070.61407327     A.U. after   20 cycles

 Excitation energies and oscillator strengths:

 Excited State   1:      Singlet-A      1.6667 eV  743.87 nm  f=0.3607  <S**2>=0.000
     309 -> 315       -0.19754
     312 -> 314        0.68094
     309 <- 315       -0.12066
 This state for optimization and/or second-order correction.
 Total Energy, E(TD-HF/TD-DFT) =  -4070.55282170
 Copying the excited state density for this state as the 1-particle RhoCI density.

 Excited State   2:      Singlet-A      1.8712 eV  662.58 nm  f=0.3745  <S**2>=0.000
     310 -> 316        0.14189
     311 -> 313        0.68597

 Excited State   3:      Singlet-A      2.2255 eV  557.12 nm  f=0.1300  <S**2>=0.000
     310 -> 313        0.64317
     311 -> 316       -0.24622
     311 -> 317        0.10801

 Excited State   4:      Singlet-A      2.2261 eV  556.95 nm  f=0.0470  <S**2>=0.000
     309 -> 314        0.60296
     312 -> 315        0.35644

 Excited State   5:      Singlet-A      3.4377 eV  360.67 nm  f=0.5270  <S**2>=0.000
     304 -> 314       -0.14621
     305 -> 314       -0.27339
     309 -> 314       -0.28739
     312 -> 315        0.55203
     309 <- 314        0.10587

 The electronic state is 1-A.
 Alpha  occ. eigenvalues --  -46.95748 -46.95032 -19.31290 -19.29682 -19.25557
 Alpha  occ. eigenvalues --  -19.25343 -19.24726 -19.24069 -19.23857 -19.22647
 Alpha  occ. eigenvalues --  -14.46911 -14.46729 -14.46681 -14.46631 -14.45220
 Alpha  occ. eigenvalues --  -14.43993 -14.43977 -14.43012 -10.44155 -10.42885
 Alpha  occ. eigenvalues --  -10.41100 -10.38980 -10.38615 -10.37344 -10.37288
 Alpha  occ. eigenvalues --  -10.36524 -10.35829 -10.35258 -10.35250 -10.35174
 Alpha  occ. eigenvalues --  -10.35142 -10.34875 -10.34843 -10.34697 -10.34572
 Alpha  occ. eigenvalues --  -10.34347 -10.34082 -10.33838 -10.33769 -10.33547
 Alpha  occ. eigenvalues --  -10.33386 -10.33284 -10.32628 -10.32493 -10.32489
 Alpha  occ. eigenvalues --  -10.32412 -10.32299 -10.32237 -10.32209 -10.32199
 Alpha  occ. eigenvalues --  -10.32147 -10.32116 -10.31948 -10.31946 -10.31944
 Alpha  occ. eigenvalues --  -10.31921 -10.31658 -10.31564 -10.31358 -10.31217
 Alpha  occ. eigenvalues --  -10.31177 -10.31104 -10.31055 -10.31035 -10.31027
 Alpha  occ. eigenvalues --  -10.30943 -10.30942 -10.30938 -10.30908 -10.30822
 Alpha  occ. eigenvalues --  -10.30783 -10.30778 -10.30766 -10.30733 -10.30488
 Alpha  occ. eigenvalues --  -10.30365 -10.30125 -10.30088 -10.29878 -10.29861
 Alpha  occ. eigenvalues --  -10.29630 -10.29500 -10.29426 -10.29204 -10.29081
 Alpha  occ. eigenvalues --  -10.26990  -3.21644  -3.21078  -1.95213  -1.94768
 Alpha  occ. eigenvalues --   -1.94644  -1.94613  -1.94216  -1.94046  -1.18172
 Alpha  occ. eigenvalues --   -1.17548  -1.14105  -1.11930  -1.11440  -1.11358
 Alpha  occ. eigenvalues --   -1.10467  -1.10026  -1.06784  -1.06606  -1.06281
 Alpha  occ. eigenvalues --   -1.05870  -1.05280  -1.04914  -1.04539  -1.04114
 Alpha  occ. eigenvalues --   -0.95059  -0.93464  -0.91030  -0.91014  -0.90847
 Alpha  occ. eigenvalues --   -0.90458  -0.90349  -0.89950  -0.89575  -0.89054
 Alpha  occ. eigenvalues --   -0.89001  -0.88699  -0.87714  -0.86937  -0.86505
 Alpha  occ. eigenvalues --   -0.86404  -0.86146  -0.85543  -0.85125  -0.84467
 Alpha  occ. eigenvalues --   -0.84446  -0.83988  -0.83011  -0.82830  -0.82615
 Alpha  occ. eigenvalues --   -0.82149  -0.79951  -0.79589  -0.79178  -0.79098
 Alpha  occ. eigenvalues --   -0.78639  -0.78342  -0.78222  -0.77259  -0.77087
 Alpha  occ. eigenvalues --   -0.77046  -0.74880  -0.74352  -0.74114  -0.73675
 Alpha  occ. eigenvalues --   -0.71660  -0.71097  -0.70955  -0.70600  -0.70106
 Alpha  occ. eigenvalues --   -0.69844  -0.69367  -0.68757  -0.67793  -0.67565
 Alpha  occ. eigenvalues --   -0.67545  -0.67393  -0.66867  -0.66697  -0.66476
 Alpha  occ. eigenvalues --   -0.66026  -0.64729  -0.63665  -0.62211  -0.62054
 Alpha  occ. eigenvalues --   -0.62031  -0.61422  -0.61108  -0.61033  -0.60882
 Alpha  occ. eigenvalues --   -0.60488  -0.60466  -0.59758  -0.59710  -0.59320
 Alpha  occ. eigenvalues --   -0.58461  -0.58221  -0.58067  -0.57403  -0.57253
 Alpha  occ. eigenvalues --   -0.56964  -0.56893  -0.56083  -0.55922  -0.55914
 Alpha  occ. eigenvalues --   -0.55660  -0.55482  -0.55268  -0.55108  -0.55106
 Alpha  occ. eigenvalues --   -0.54942  -0.54719  -0.54695  -0.54620  -0.54130
 Alpha  occ. eigenvalues --   -0.53944  -0.53731  -0.53494  -0.52970  -0.52957
 Alpha  occ. eigenvalues --   -0.52817  -0.52664  -0.52492  -0.52387  -0.52128
 Alpha  occ. eigenvalues --   -0.52094  -0.51958  -0.51739  -0.51739  -0.51583
 Alpha  occ. eigenvalues --   -0.51402  -0.51257  -0.51044  -0.50979  -0.50614
 Alpha  occ. eigenvalues --   -0.50607  -0.50395  -0.50264  -0.50123  -0.50021
 Alpha  occ. eigenvalues --   -0.49518  -0.49442  -0.49276  -0.49164  -0.49035
 Alpha  occ. eigenvalues --   -0.48521  -0.48499  -0.48312  -0.48212  -0.48114
 Alpha  occ. eigenvalues --   -0.48043  -0.48032  -0.47914  -0.47899  -0.47376
 Alpha  occ. eigenvalues --   -0.47286  -0.47123  -0.47106  -0.46958  -0.46793
 Alpha  occ. eigenvalues --   -0.46596  -0.46389  -0.46254  -0.46246  -0.46099
 Alpha  occ. eigenvalues --   -0.45845  -0.45798  -0.45532  -0.45501  -0.45307
 Alpha  occ. eigenvalues --   -0.45267  -0.45080  -0.45035  -0.44767  -0.44540
 Alpha  occ. eigenvalues --   -0.44451  -0.44442  -0.44383  -0.44092  -0.44083
 Alpha  occ. eigenvalues --   -0.43972  -0.43890  -0.43653  -0.43528  -0.43496
 Alpha  occ. eigenvalues --   -0.43003  -0.42763  -0.42643  -0.42607  -0.42329
 Alpha  occ. eigenvalues --   -0.42293  -0.42075  -0.41957  -0.41760  -0.41223
 Alpha  occ. eigenvalues --   -0.40899  -0.40878  -0.39999  -0.39944  -0.39473
 Alpha  occ. eigenvalues --   -0.39268  -0.39172  -0.38623  -0.38593  -0.38590
 Alpha  occ. eigenvalues --   -0.38311  -0.37270  -0.36834  -0.36720  -0.36380
 Alpha  occ. eigenvalues --   -0.36137  -0.35742  -0.35330  -0.34473  -0.34123
 Alpha  occ. eigenvalues --   -0.33554  -0.33199  -0.33061  -0.32950  -0.32328
 Alpha  occ. eigenvalues --   -0.31822  -0.31596  -0.31152  -0.26324  -0.26046
 Alpha  occ. eigenvalues --   -0.23345  -0.22805
 Alpha virt. eigenvalues --   -0.06732  -0.06659  -0.00335   0.00156   0.02186
 Alpha virt. eigenvalues --    0.02587   0.04101   0.04601   0.04937   0.05189
 Alpha virt. eigenvalues --    0.06361   0.07474   0.07626   0.08190   0.08498

 Mulliken charges:
               1
     1  Mg   0.956983
     2  C   -0.054902
     3  C   -0.098011
     4  C   -0.052888
     5  C   -0.094210
     6  N   -0.331840
     7  C   -0.023595
     8  C   -0.114989
     9  C   -0.115671
    10  C    0.039052
    11  C    0.060833
    12  C    0.025456
    13  C   -0.134570
    14  H    0.044832
    15  N   -0.518682
    16  C    0.210447
    17  C   -0.172949
    18  C   -0.106170
    19  C    0.151523
    20  C    0.083471
    21  C    0.062029
    22  O   -0.196873
    23  C   -0.021352
    24  N   -0.326796
    25  C    0.062330
    26  C   -0.102056
    27  C   -0.070031
    28  C    0.069650
    29  C    0.021082
    30  C   -0.022400
    31  C   -0.034774
    32  N   -0.429103
    33  C    0.127808
    34  C   -0.206783
    35  C   -0.016849
    36  C    0.192882
    37  C    0.097507
    38  C    0.099216
    39  O   -0.220859
    40  C   -0.022080
    41  C    0.288760
    42  O   -0.244366
    43  O   -0.362517
    44  C    0.139822
    45  H    0.001620
    46  H   -0.029276
    47  H   -0.001548
    48  H    0.017291
    49  H    0.023686
    50  H    0.042917
    51  H    0.038782
    52  H    0.055131
    53  H    0.032696
    54  H    0.055653
    55  H    0.047925
    56  H    0.058771
    57  H    0.056013
    58  H    0.011818
    59  H    0.051525
    60  H    0.070880
    61  H    0.042009
    62  H    0.069539
    63  H    0.033438
    64  H    0.024321
    65  H    0.046125
    66  H    0.041575
    67  H    0.029655
    68  H    0.043970
    69  H    0.016335
    70  H    0.044043
    71  H    0.026339
    72  H    0.041564
    73  H    0.036657
    74  H    0.058299
    75  H    0.066026
    76  H    0.061049
    77  H    0.042324
    78  H    0.050440
    79  H    0.054038
    80  Mg   0.966553
    81  C   -0.041442
    82  C   -0.128778
    83  C   -0.109113
    84  C   -0.042194
    85  N   -0.333061
    86  C   -0.011490
    87  C   -0.074697
    88  C   -0.075935
    89  C    0.063506
    90  C    0.034892
    91  C    0.028341
    92  C   -0.107190
    93  H    0.024757
    94  N   -0.466208
    95  C    0.186068
    96  C   -0.152995
    97  C   -0.065515
    98  C    0.142394
    99  C    0.072200
   100  C    0.052352
   101  O   -0.253984
   102  C    0.003774
   103  N   -0.330897
   104  C    0.128543
   105  C   -0.083441
   106  C   -0.091018
   107  C    0.027325
   108  C    0.020530
   109  C    0.009900
   110  C   -0.034592
   111  N   -0.438509
   112  C    0.046469
   113  C   -0.148278
   114  C    0.002714
   115  C    0.157753
   116  C    0.059532
   117  C    0.057996
   118  O   -0.195163
   119  C   -0.117782
   120  C    0.296957
   121  O   -0.238899
   122  O   -0.364128
   123  C    0.141268
   124  H   -0.003529
   125  H   -0.019470
   126  H   -0.016868
   127  H    0.023284
   128  H    0.032776
   129  H    0.025028
   130  H    0.044689
   131  H    0.053887
   132  H    0.020245
   133  H    0.052771
   134  H    0.048274
   135  H    0.048692
   136  H    0.019590
   137  H    0.064673
   138  H    0.059493
   139  H    0.061836
   140  H    0.091251
   141  H    0.055053
   142  H    0.038389
   143  H    0.031578
   144  H    0.030243
   145  H    0.041595
   146  H    0.029147
   147  H    0.042104
   148  H    0.025810
   149  H    0.032460
   150  H    0.043078
   151  H    0.051708
   152  H    0.058571
   153  H    0.038058
   154  H    0.040755
   155  H    0.054836
   156  H    0.058155
   157  H    0.060953
   158  H    0.042368
 Sum of Mulliken charges =  -0.00000

 Dipole moment (field-independent basis, Debye):
    X=              0.0015    Y=              4.1695    Z=              2.2483  Tot=              4.7370
 Quadrupole moment (field-independent basis, Debye-Ang):
   XX=           -211.1582   YY=           -526.0727   ZZ=           -508.6735
   XY=            -51.0776   XZ=            -46.3292   YZ=              1.4404

 Normal termination of Gaussian 16 at Mon Sep 20 17:13:11 2021.
