 Gaussian 16, Revision A.03,
 Gaussian 16:  ES64L-G16RevA.03 25-Dec-2016

 --------------------------------
 #p wB97XD/Def2SVP td=(nstates=5)
 --------------------------------

 --------------------------------
 TDDFT excited states in gaussian
 --------------------------------
 Symbolic Z-matrix:
 Charge =  0 Multiplicity = 1

                         Standard orientation:
 ---------------------------------------------------------------------
 Center     Atomic      Atomic             Coordinates (Angstroms)
 Number     Number       Type             X           Y           Z
 ---------------------------------------------------------------------
      1         12           0      -28.708122    0.255310    0.378626
      2          6           0      -26.476447   -1.754293   -1.455520
      3          6           0      -28.382537    2.656831   -2.114822
      4          6           0      -30.553322    2.239410    2.298562
      5          6           0      -28.246139   -1.910904    3.204326
      6          7           0      -27.558529    0.438386   -1.522363
      7          6           0      -26.807835   -0.586604   -2.115091
      8          6           0      -26.632244   -0.284214   -3.591745
      9          6           0      -26.985228    1.223261   -3.738814
     10          6           0      -27.694723    1.458330   -2.371261
     11          6           0      -25.802495    2.183068   -4.080354
     12          6           0      -27.431743   -1.230401   -4.553162
     13          6           0      -26.728602   -1.474611   -5.960528
     14          1           0      -25.415173   -0.739435   -6.240581
     15          7           0      -29.451263    2.069644    0.072462
     16          6           0      -29.274567    2.871716   -1.041814
     17          6           0      -30.077987    4.056366   -0.947755
     18          6           0      -30.623461    4.031720    0.375665
     19          6           0      -30.247977    2.747192    0.939057
     20          6           0      -30.118032    5.163211   -2.045248
     21          6           0      -31.424721    5.079166    1.077227
     22          8           0      -31.703518    4.984136    2.296332
     23          6           0      -31.963481    6.434265    0.531350
     24          7           0      -29.102839    0.336988    2.527938
     25          6           0      -29.989380    1.210048    3.042425
     26          6           0      -30.427232    0.765897    4.460761
     27          6           0      -29.682743   -0.538631    4.766881
     28          6           0      -28.980745   -0.750251    3.353546
     29          6           0      -30.322484    1.883415    5.453305
     30          6           0      -30.532492   -1.744341    5.222431
     31          6           0      -31.623420   -2.201040    4.222690
     32          7           0      -27.548885   -1.470885    0.876574
     33          6           0      -27.608654   -2.275157    1.963477
     34          6           0      -26.884160   -3.497848    1.620208
     35          6           0      -26.420048   -3.400259    0.278558
     36          6           0      -26.810401   -2.103161   -0.134442
     37          6           0      -26.767707   -4.740319    2.499186
     38          6           0      -25.708369   -4.061639   -0.768117
     39          8           0      -25.259962   -5.196230   -0.909545
     40          6           0      -25.656140   -2.932513   -1.990318
     41          6           0      -24.213747   -2.717417   -2.408499
     42          8           0      -23.435950   -2.008418   -1.800583
     43          8           0      -23.951687   -3.344678   -3.605302
     44          6           0      -22.564022   -3.586124   -3.986936
     45          1           0      -28.307422    3.278691   -3.009099
     46          1           0      -31.239944    2.889160    2.844697
     47          1           0      -28.264136   -2.585879    4.062198
     48          1           0      -25.586475   -0.423257   -3.865467
     49          1           0      -27.730322    1.297623   -4.530379
     50          1           0      -25.849400    2.906991   -3.267513
     51          1           0      -26.010841    2.740218   -4.994534
     52          1           0      -24.785586    1.793496   -4.127001
     53          1           0      -28.392167   -0.796928   -4.830335
     54          1           0      -27.631234   -2.165746   -4.031832
     55          1           0      -27.386423   -1.062801   -6.726051
     56          1           0      -26.587147   -2.549798   -6.067638
     57          1           0      -30.161731    6.127121   -1.536760
     58          1           0      -31.004928    5.097413   -2.674574
     59          1           0      -29.334186    5.243935   -2.798204
     60          1           0      -32.573888    6.274913   -0.357982
     61          1           0      -31.167429    7.154396    0.342294
     62          1           0      -32.776086    6.862442    1.117043
     63          1           0      -31.510123    0.660818    4.408243
     64          1           0      -28.858637   -0.239352    5.415438
     65          1           0      -31.286548    2.337986    5.682207
     66          1           0      -29.607649    2.627127    5.100797
     67          1           0      -29.893873    1.590616    6.412420
     68          1           0      -31.030470   -1.370590    6.117331
     69          1           0      -29.885962   -2.582572    5.483865
     70          1           0      -31.374733   -3.234656    3.982926
     71          1           0      -31.544538   -1.548787    3.352907
     72          1           0      -32.644829   -2.061496    4.577080
     73          1           0      -26.911836   -5.664372    1.940038
     74          1           0      -27.571948   -4.786776    3.232886
     75          1           0      -25.825679   -4.680467    3.044948
     76          1           0      -26.166457   -3.418674   -2.822169
     77          1           0      -22.004786   -2.695963   -3.697694
     78          1           0      -22.402842   -3.741408   -5.053767
     79          1           0      -22.279722   -4.507305   -3.478251
     80         12           0       28.749542    0.427711   -0.180465
     81          6           0       26.129629   -1.923777   -0.179688
     82          6           0       26.319647    2.851821   -0.740030
     83          6           0       31.061150    2.788620    0.236834
     84          6           0       30.773825   -1.993084    1.263635
     85          7           0       26.444629    0.409007   -0.260310
     86          6           0       25.569410   -0.654131   -0.368106
     87          6           0       24.195638   -0.312544   -0.905789
     88          6           0       24.265583    1.219927   -1.107959
     89          6           0       25.731335    1.553882   -0.676941
     90          6           0       23.934942    1.699987   -2.579277
     91          6           0       22.953729   -0.709028    0.011056
     92          6           0       23.149214   -0.693099    1.535896
     93          1           0       22.544070    0.491422    2.346013
     94          7           0       28.693851    2.481867   -0.251459
     95          6           0       27.630690    3.285447   -0.550921
     96          6           0       28.069428    4.685509   -0.636443
     97          6           0       29.469842    4.688957   -0.354413
     98          6           0       29.793969    3.252975   -0.092763
     99          6           0       27.140499    5.841272   -0.988683
    100          6           0       30.230960    6.064205   -0.267743
    101          8           0       29.579533    7.089331   -0.412012
    102          6           0       31.776282    6.101670    0.089496
    103          7           0       30.563452    0.414981    0.736022
    104          6           0       31.438294    1.495395    0.647712
    105          6           0       32.911863    1.090978    1.219963
    106          6           0       32.640146   -0.446375    1.665990
    107          6           0       31.244687   -0.676520    1.181986
    108          6           0       34.035093    1.253479    0.153894
    109          6           0       32.775259   -0.735471    3.222400
    110          6           0       33.672845   -1.891821    3.689515
    111          7           0       28.583275   -1.614883    0.328720
    112          6           0       29.460063   -2.490034    0.916943
    113          6           0       28.779629   -3.790842    1.089734
    114          6           0       27.481434   -3.607196    0.542570
    115          6           0       27.425078   -2.241971    0.145547
    116          6           0       29.327530   -5.038331    1.725663
    117          6           0       26.191295   -4.296946    0.353825
    118          8           0       25.836229   -5.475275    0.503257
    119          6           0       25.326676   -3.241600   -0.319585
    120          6           0       24.953807   -3.594751   -1.647913
    121          8           0       25.742699   -3.463691   -2.619396
    122          8           0       23.622674   -4.053011   -1.706490
    123          6           0       23.034356   -4.301085   -3.018784
    124          1           0       25.635891    3.630543   -1.083358
    125          1           0       31.879382    3.511155    0.229381
    126          1           0       31.491858   -2.710305    1.665614
    127          1           0       24.162665   -0.873275   -1.839148
    128          1           0       23.651541    1.645820   -0.315266
    129          1           0       22.984226    2.233052   -2.581439
    130          1           0       23.880370    0.794068   -3.183556
    131          1           0       24.699311    2.379414   -2.957859
    132          1           0       22.798192   -1.746907   -0.286142
    133          1           0       22.086984   -0.119991   -0.289632
    134          1           0       24.209057   -0.744485    1.787488
    135          1           0       22.752616   -1.625165    1.936296
    136          1           0       26.834062    6.455595   -0.142012
    137          1           0       26.336865    5.511571   -1.647263
    138          1           0       27.625197    6.527821   -1.682593
    139          1           0       32.264116    5.363773   -0.547845
    140          1           0       31.871440    5.848021    1.144958
    141          1           0       32.203608    7.104293    0.104961
    142          1           0       33.146780    1.831801    1.983645
    143          1           0       33.311635   -1.069745    1.075120
    144          1           0       34.177696    0.282059   -0.319048
    145          1           0       34.949358    1.682457    0.564176
    146          1           0       33.809812    1.984133   -0.622779
    147          1           0       31.760611   -0.851035    3.604847
    148          1           0       33.213925    0.198199    3.574420
    149          1           0       33.428465   -2.217348    4.701032
    150          1           0       34.664982   -1.442781    3.649260
    151          1           0       33.493816   -2.678909    2.956723
    152          1           0       30.083227   -4.669850    2.418857
    153          1           0       29.832074   -5.520700    0.888512
    154          1           0       28.580700   -5.723497    2.127856
    155          1           0       24.464365   -3.216535    0.346302
    156          1           0       23.463852   -5.104568   -3.617213
    157          1           0       23.065099   -3.390621   -3.618012
    158          1           0       21.961036   -4.403584   -2.858014
 ---------------------------------------------------------------------

 SCF Done:  E(RwB97XD) =  -4070.60953219     A.U. after   18 cycles

 Excitation energies and oscillator strengths:

 Excited State   1:      Singlet-A      1.6019 eV  773.96 nm  f=0.3998  <S**2>=0.000
     310 -> 316        0.17292
     311 -> 313        0.68565
     310 <- 316        0.11419
 This state for optimization and/or second-order correction.
 Total Energy, E(TD-HF/TD-DFT) =  -4070.55066179
 Copying the excited state density for this state as the 1-particle RhoCI density.

 Excited State   2:      Singlet-A      1.6636 eV  745.26 nm  f=0.3760  <S**2>=0.000
     309 -> 315       -0.18690
     312 -> 314        0.68288
     309 <- 315       -0.11707

 Excited State   3:      Singlet-A      2.1365 eV  580.33 nm  f=0.1503  <S**2>=0.000
     310 -> 313        0.65482
     311 -> 316       -0.24836

 Excited State   4:      Singlet-A      2.2612 eV  548.31 nm  f=0.0696  <S**2>=0.000
     309 -> 314        0.61505
     312 -> 315        0.33672

 Excited State   5:      Singlet-A      3.2948 eV  376.30 nm  f=0.0030  <S**2>=0.000
     306 -> 313        0.52481
     306 -> 316       -0.13536
     306 -> 317        0.34595
     306 -> 319       -0.20421

 The electronic state is 1-A.
 Alpha  occ. eigenvalues --  -46.95278 -46.95255 -19.31019 -19.29483 -19.25197
 Alpha  occ. eigenvalues --  -19.24643 -19.24401 -19.24254 -19.24182 -19.23423
 Alpha  occ. eigenvalues --  -14.47288 -14.47178 -14.46657 -14.45984 -14.44899
 Alpha  occ. eigenvalues --  -14.44560 -14.43956 -14.43891 -10.43887 -10.42957
 Alpha  occ. eigenvalues --  -10.40505 -10.39606 -10.39489 -10.39382 -10.35971
 Alpha  occ. eigenvalues --  -10.35840 -10.35642 -10.35418 -10.35126 -10.35004
 Alpha  occ. eigenvalues --  -10.34957 -10.34798 -10.34766 -10.34616 -10.34580
 Alpha  occ. eigenvalues --  -10.34550 -10.34342 -10.34101 -10.33895 -10.33833
 Alpha  occ. eigenvalues --  -10.33732 -10.33362 -10.33247 -10.33017 -10.32963
 Alpha  occ. eigenvalues --  -10.32557 -10.32514 -10.32354 -10.32346 -10.32325
 Alpha  occ. eigenvalues --  -10.32305 -10.32260 -10.32200 -10.32127 -10.32106
 Alpha  occ. eigenvalues --  -10.32037 -10.31883 -10.31819 -10.31802 -10.31625
 Alpha  occ. eigenvalues --  -10.31611 -10.31570 -10.31472 -10.31421 -10.31353
 Alpha  occ. eigenvalues --  -10.31250 -10.31022 -10.30893 -10.30753 -10.30676
 Alpha  occ. eigenvalues --  -10.30662 -10.30645 -10.30579 -10.30483 -10.30439
 Alpha  occ. eigenvalues --  -10.30206 -10.30126 -10.30119 -10.29858 -10.29696
 Alpha  occ. eigenvalues --  -10.29435 -10.29417 -10.29415 -10.29315 -10.29224
 Alpha  occ. eigenvalues --  -10.28741  -3.21345  -3.21267  -1.94890  -1.94827
 Alpha  occ. eigenvalues --   -1.94483  -1.94390  -1.94319  -1.94247  -1.17610
 Alpha  occ. eigenvalues --   -1.17138  -1.12642  -1.11677  -1.11289  -1.10638
 Alpha  occ. eigenvalues --   -1.09641  -1.09214  -1.06356  -1.06149  -1.05593
 Alpha  occ. eigenvalues --   -1.05479  -1.05231  -1.04604  -1.04126  -1.03899
 Alpha  occ. eigenvalues --   -0.95127  -0.94146  -0.91055  -0.91041  -0.90710
 Alpha  occ. eigenvalues --   -0.90410  -0.90110  -0.89951  -0.89277  -0.88781
 Alpha  occ. eigenvalues --   -0.88722  -0.88010  -0.87534  -0.87246  -0.86455
 Alpha  occ. eigenvalues --   -0.85781  -0.85700  -0.85223  -0.84683  -0.84086
 Alpha  occ. eigenvalues --   -0.83569  -0.82991  -0.82950  -0.82574  -0.82042
 Alpha  occ. eigenvalues --   -0.81963  -0.80669  -0.80091  -0.79153  -0.78852
 Alpha  occ. eigenvalues --   -0.78693  -0.78675  -0.78442  -0.77761  -0.76935
 Alpha  occ. eigenvalues --   -0.76857  -0.74508  -0.74317  -0.73724  -0.73039
 Alpha  occ. eigenvalues --   -0.71822  -0.71230  -0.71116  -0.70867  -0.70364
 Alpha  occ. eigenvalues --   -0.70324  -0.69519  -0.68821  -0.67689  -0.67207
 Alpha  occ. eigenvalues --   -0.67185  -0.66855  -0.66578  -0.66182  -0.66142
 Alpha  occ. eigenvalues --   -0.66056  -0.64430  -0.63629  -0.62934  -0.62237
 Alpha  occ. eigenvalues --   -0.61595  -0.61448  -0.61024  -0.60793  -0.60642
 Alpha  occ. eigenvalues --   -0.60044  -0.59716  -0.59391  -0.59197  -0.58915
 Alpha  occ. eigenvalues --   -0.58107  -0.57894  -0.57670  -0.57528  -0.56876
 Alpha  occ. eigenvalues --   -0.56783  -0.56735  -0.56360  -0.56146  -0.55850
 Alpha  occ. eigenvalues --   -0.55710  -0.55396  -0.54987  -0.54984  -0.54679
 Alpha  occ. eigenvalues --   -0.54495  -0.54488  -0.54297  -0.54273  -0.54051
 Alpha  occ. eigenvalues --   -0.53913  -0.53478  -0.53269  -0.53151  -0.52953
 Alpha  occ. eigenvalues --   -0.52879  -0.52651  -0.52605  -0.52232  -0.51993
 Alpha  occ. eigenvalues --   -0.51940  -0.51492  -0.51314  -0.51248  -0.51179
 Alpha  occ. eigenvalues --   -0.51158  -0.51111  -0.50930  -0.50900  -0.50666
 Alpha  occ. eigenvalues --   -0.50552  -0.50472  -0.50259  -0.50132  -0.50069
 Alpha  occ. eigenvalues --   -0.49823  -0.49668  -0.49350  -0.49265  -0.49187
 Alpha  occ. eigenvalues --   -0.48608  -0.48545  -0.48373  -0.48312  -0.48253
 Alpha  occ. eigenvalues --   -0.48163  -0.48076  -0.47779  -0.47675  -0.47384
 Alpha  occ. eigenvalues --   -0.47290  -0.47138  -0.46891  -0.46718  -0.46669
 Alpha  occ. eigenvalues --   -0.46566  -0.46460  -0.46411  -0.46144  -0.46115
 Alpha  occ. eigenvalues --   -0.45983  -0.45898  -0.45866  -0.45384  -0.45150
 Alpha  occ. eigenvalues --   -0.45110  -0.45009  -0.44961  -0.44877  -0.44643
 Alpha  occ. eigenvalues --   -0.44518  -0.44348  -0.44295  -0.44171  -0.44043
 Alpha  occ. eigenvalues --   -0.43862  -0.43788  -0.43565  -0.43543  -0.43504
 Alpha  occ. eigenvalues --   -0.42953  -0.42645  -0.42521  -0.42482  -0.42140
 Alpha  occ. eigenvalues --   -0.41984  -0.41758  -0.41593  -0.41511  -0.41149
 Alpha  occ. eigenvalues --   -0.40835  -0.40562  -0.39749  -0.39593  -0.39586
 Alpha  occ. eigenvalues --   -0.39456  -0.39150  -0.38980  -0.38897  -0.38634
 Alpha  occ. eigenvalues --   -0.38262  -0.37971  -0.36735  -0.36306  -0.36030
 Alpha  occ. eigenvalues --   -0.35700  -0.35468  -0.35248  -0.33677  -0.33532
 Alpha  occ. eigenvalues --   -0.33232  -0.33012  -0.32963  -0.32763  -0.32439
 Alpha  occ. eigenvalues --   -0.32243  -0.31759  -0.31643  -0.26064  -0.26034
 Alpha  occ. eigenvalues --   -0.23186  -0.22631
 Alpha virt. eigenvalues --   -0.07603  -0.06501   0.00119   0.00522   0.02009
 Alpha virt. eigenvalues --    0.02348   0.04084   0.04110   0.04678   0.04928
 Alpha virt. eigenvalues --    0.05586   0.07374   0.07497   0.07772   0.07814

 Mulliken charges:
               1
     1  Mg   0.971933
     2  C    0.006820
     3  C   -0.061609
     4  C   -0.062957
     5  C   -0.063037
     6  N   -0.337808
     7  C   -0.003208
     8  C   -0.035374
     9  C   -0.097873
    10  C    0.010352
    11  C    0.027398
    12  C   -0.006697
    13  C   -0.129116
    14  H    0.034087
    15  N   -0.495013
    16  C    0.189848
    17  C   -0.136878
    18  C   -0.054484
    19  C    0.137802
    20  C    0.058980
    21  C    0.036214
    22  O   -0.271621
    23  C   -0.007029
    24  N   -0.340730
    25  C    0.077641
    26  C   -0.129620
    27  C   -0.020116
    28  C    0.012655
    29  C    0.021351
    30  C   -0.019490
    31  C   -0.045909
    32  N   -0.428993
    33  C    0.150667
    34  C   -0.205173
    35  C    0.004356
    36  C    0.122943
    37  C    0.072275
    38  C    0.116723
    39  O   -0.207621
    40  C   -0.128492
    41  C    0.274767
    42  O   -0.237544
    43  O   -0.379794
    44  C    0.133601
    45  H   -0.002978
    46  H    0.023039
    47  H   -0.004370
    48  H    0.030758
    49  H    0.033134
    50  H    0.030649
    51  H    0.034877
    52  H    0.058469
    53  H    0.029800
    54  H    0.037234
    55  H    0.054514
    56  H    0.069157
    57  H    0.037187
    58  H    0.051148
    59  H    0.045641
    60  H    0.030979
    61  H    0.073524
    62  H    0.048609
    63  H    0.037216
    64  H    0.038771
    65  H    0.043486
    66  H    0.041855
    67  H    0.022296
    68  H    0.033280
    69  H    0.039374
    70  H    0.046927
    71  H    0.038542
    72  H    0.043012
    73  H    0.057622
    74  H    0.018515
    75  H    0.059405
    76  H    0.065567
    77  H    0.060233
    78  H    0.053713
    79  H    0.064585
    80  Mg   0.986794
    81  C   -0.108690
    82  C   -0.085696
    83  C   -0.110618
    84  C   -0.096013
    85  N   -0.341897
    86  C   -0.038640
    87  C   -0.062193
    88  C   -0.058572
    89  C    0.026552
    90  C    0.027370
    91  C   -0.015166
    92  C   -0.118704
    93  H    0.036888
    94  N   -0.448661
    95  C    0.153638
    96  C   -0.157632
    97  C   -0.113678
    98  C    0.206853
    99  C    0.095254
   100  C    0.069665
   101  O   -0.226557
   102  C   -0.026105
   103  N   -0.421934
   104  C    0.079348
   105  C   -0.103179
   106  C   -0.075562
   107  C    0.085757
   108  C    0.009854
   109  C   -0.024335
   110  C   -0.038129
   111  N   -0.406356
   112  C    0.119768
   113  C   -0.211635
   114  C   -0.096343
   115  C    0.263394
   116  C    0.092530
   117  C    0.145454
   118  O   -0.217845
   119  C   -0.059496
   120  C    0.315869
   121  O   -0.277639
   122  O   -0.382207
   123  C    0.152224
   124  H   -0.009093
   125  H   -0.035068
   126  H   -0.015877
   127  H    0.049469
   128  H    0.045671
   129  H    0.043708
   130  H    0.040415
   131  H    0.046377
   132  H    0.038355
   133  H    0.048327
   134  H    0.063095
   135  H    0.056415
   136  H    0.065414
   137  H    0.023028
   138  H    0.044120
   139  H    0.073628
   140  H    0.060923
   141  H    0.052767
   142  H    0.044433
   143  H    0.036115
   144  H    0.037582
   145  H    0.038506
   146  H    0.031775
   147  H    0.048525
   148  H    0.025116
   149  H    0.051623
   150  H    0.041614
   151  H    0.037714
   152  H    0.034747
   153  H    0.054930
   154  H    0.066677
   155  H    0.059858
   156  H    0.069374
   157  H    0.033782
   158  H    0.052231
 Sum of Mulliken charges =  -0.00000

 Dipole moment (field-independent basis, Debye):
    X=             -1.7322    Y=              3.7333    Z=             -3.9873  Tot=              5.7303
 Quadrupole moment (field-independent basis, Debye-Ang):
   XX=           -181.1486   YY=           -560.1676   ZZ=           -474.7769
   XY=             -2.5624   XZ=             92.2609   YZ=            -19.7975

 Normal termination of Gaussian 16 at Sun Sep 19 05:43:52 2021.
