 Gaussian 16, Revision A.03,
 Gaussian 16:  ES64L-G16RevA.03 25-Dec-2016

 --------------------------------
 #p wB97XD/Def2SVP td=(nstates=5)
 --------------------------------

 --------------------------------
 TDDFT excited states in gaussian
 --------------------------------
 Symbolic Z-matrix:
 Charge =  0 Multiplicity = 1

                         Standard orientation:
 ---------------------------------------------------------------------
 Center     Atomic      Atomic             Coordinates (Angstroms)
 Number     Number       Type             X           Y           Z
 ---------------------------------------------------------------------
      1         12           0       11.330245   -0.895010   -0.102240
      2          6           0       10.211050    2.405343   -0.528096
      3          6           0       12.685407    0.044156    2.868253
      4          6           0       11.918552   -4.079141    0.357762
      5          6           0        9.090634   -1.697762   -2.805227
      6          7           0       11.475733    1.005570    0.965002
      7          6           0       10.937568    2.215651    0.628970
      8          6           0       11.026236    3.137229    1.854604
      9          6           0       12.231099    2.562595    2.591348
     10          6           0       12.054095    1.088426    2.179722
     11          6           0       13.574872    3.140012    2.089849
     12          6           0        9.711365    3.075062    2.716649
     13          6           0        8.790349    4.389496    2.801425
     14          1           0        7.344000    4.323262    2.282043
     15          7           0       12.131810   -1.892479    1.427904
     16          6           0       12.659271   -1.327954    2.566505
     17          6           0       13.306910   -2.358894    3.315614
     18          6           0       13.232757   -3.590161    2.583997
     19          6           0       12.400179   -3.248016    1.394531
     20          6           0       14.009612   -2.109166    4.693929
     21          6           0       13.927954   -4.933522    3.011396
     22          8           0       14.652222   -4.956614    3.958498
     23          6           0       13.894612   -6.054719    2.080206
     24          7           0       10.353806   -2.674529   -0.892795
     25          6           0       11.104662   -3.793064   -0.754658
     26          6           0       10.936399   -4.773179   -1.903565
     27          6           0        9.777180   -4.185209   -2.693580
     28          6           0        9.712725   -2.737047   -2.095153
     29          6           0       12.236100   -4.923318   -2.777694
     30          6           0        8.353655   -4.917489   -2.671304
     31          6           0        7.822223   -5.664284   -3.865226
     32          7           0       10.106118    0.107200   -1.528073
     33          6           0        9.263786   -0.335583   -2.556023
     34          6           0        8.556044    0.763071   -3.177056
     35          6           0        8.925748    1.851666   -2.426018
     36          6           0        9.849353    1.442491   -1.408505
     37          6           0        7.604824    0.645735   -4.294341
     38          6           0        8.734774    3.285971   -2.274379
     39          8           0        8.099062    4.075886   -2.983351
     40          6           0        9.628402    3.713758   -1.129284
     41          6           0       10.650798    4.693334   -1.695131
     42          8           0       11.402995    4.362032   -2.608707
     43          8           0       10.503118    5.973548   -1.139082
     44          6           0       11.416007    6.958663   -1.654347
     45          1           0       13.240505    0.410591    3.733942
     46          1           0       12.405264   -5.055404    0.380049
     47          1           0        8.501266   -1.936082   -3.693324
     48          1           0       11.070905    4.158368    1.475120
     49          1           0       12.098579    2.754720    3.655338
     50          1           0       14.004302    3.409933    3.054014
     51          1           0       13.294291    3.995938    1.475395
     52          1           0       14.218043    2.468624    1.520802
     53          1           0       10.010435    2.873405    3.745163
     54          1           0        9.146194    2.201376    2.393033
     55          1           0        9.274614    5.119329    2.152191
     56          1           0        8.748039    4.852162    3.786731
     57          1           0       13.761962   -2.772501    5.522060
     58          1           0       13.737623   -1.092627    4.979991
     59          1           0       15.097107   -2.133729    4.622000
     60          1           0       12.891661   -6.386174    1.810392
     61          1           0       14.432847   -6.889350    2.529343
     62          1           0       14.545723   -5.855471    1.230161
     63          1           0       10.742074   -5.790328   -1.561714
     64          1           0       10.060176   -4.054023   -3.738008
     65          1           0       12.827708   -5.802662   -2.523601
     66          1           0       12.788843   -3.983890   -2.772519
     67          1           0       11.910392   -5.065136   -3.809181
     68          1           0        7.511309   -4.387010   -2.228598
     69          1           0        8.637032   -5.662541   -1.927392
     70          1           0        7.743810   -6.739276   -3.706022
     71          1           0        8.488101   -5.513780   -4.715309
     72          1           0        6.845788   -5.216697   -4.049111
     73          1           0        7.192314   -0.363347   -4.273649
     74          1           0        8.206056    0.741615   -5.198904
     75          1           0        6.863008    1.442739   -4.271944
     76          1           0        8.934151    4.239392   -0.475073
     77          1           0       12.430642    6.886863   -1.261697
     78          1           0       11.072471    7.971312   -1.444979
     79          1           0       11.523016    6.948737   -2.738698
     80         12           0      -11.241020   -0.561392    0.370157
     81          6           0       -8.679398    1.812239    0.424555
     82          6           0      -11.136666   -0.331306   -3.127070
     83          6           0      -14.037416   -2.386512    0.150863
     84          6           0      -11.868418    0.129982    3.682509
     85          7           0       -9.949442    0.549451   -1.238344
     86          6           0       -9.032615    1.488062   -0.882161
     87          6           0       -8.385199    2.145212   -2.165054
     88          6           0       -9.390151    1.609184   -3.305170
     89          6           0      -10.246336    0.585702   -2.540545
     90          6           0      -10.318833    2.808634   -3.709976
     91          6           0       -6.951322    1.522105   -2.337615
     92          6           0       -6.152108    1.909440   -3.611602
     93          1           0       -5.352168    1.030519   -4.526450
     94          7           0      -12.267094   -1.399118   -1.248731
     95          6           0      -12.075905   -1.241403   -2.631578
     96          6           0      -13.060575   -1.992737   -3.289487
     97          6           0      -13.786364   -2.739982   -2.371500
     98          6           0      -13.371064   -2.194572   -1.089694
     99          6           0      -13.081103   -2.060474   -4.781460
    100          6           0      -14.932250   -3.784682   -2.578220
    101          8           0      -15.493459   -4.397264   -1.676152
    102          6           0      -15.318525   -4.303265   -3.966096
    103          7           0      -12.780288   -0.943243    1.707235
    104          6           0      -13.741649   -1.845703    1.409591
    105          6           0      -14.579949   -2.280266    2.627696
    106          6           0      -13.976417   -1.368483    3.731854
    107          6           0      -12.743602   -0.770730    3.077900
    108          6           0      -16.126985   -2.259096    2.393496
    109          6           0      -13.695676   -2.017627    5.114817
    110          6           0      -12.520565   -2.896316    5.200867
    111          7           0      -10.415765    0.621971    1.829468
    112          6           0      -10.748994    0.803487    3.086290
    113          6           0       -9.791193    1.663132    3.789328
    114          6           0       -8.942321    2.069463    2.710626
    115          6           0       -9.374273    1.454063    1.552032
    116          6           0       -9.491474    1.733133    5.213527
    117          6           0       -7.767109    2.870377    2.415615
    118          8           0       -7.016653    3.471424    3.150476
    119          6           0       -7.621742    2.770287    0.892305
    120          6           0       -7.639366    4.150917    0.227877
    121          8           0       -8.636382    4.793419    0.023680
    122          8           0       -6.348446    4.553354   -0.018321
    123          6           0       -6.283126    5.881329   -0.670852
    124          1           0      -11.007651   -0.349768   -4.210471
    125          1           0      -14.822895   -3.145448    0.154285
    126          1           0      -12.190574    0.061182    4.722987
    127          1           0       -8.419173    3.234676   -2.139256
    128          1           0       -8.898551    1.197535   -4.187514
    129          1           0      -11.344847    2.775115   -3.344945
    130          1           0      -10.574168    2.775533   -4.769416
    131          1           0       -9.919009    3.787002   -3.444218
    132          1           0       -7.061950    0.439627   -2.279541
    133          1           0       -6.386146    1.777400   -1.440825
    134          1           0       -5.538560    2.749651   -3.285157
    135          1           0       -6.963314    2.250536   -4.253609
    136          1           0      -12.339415   -1.446325   -5.292868
    137          1           0      -14.113198   -1.922867   -5.106763
    138          1           0      -12.801893   -3.092998   -4.993102
    139          1           0      -15.779597   -3.549412   -4.604327
    140          1           0      -15.907435   -5.220608   -3.961365
    141          1           0      -14.393801   -4.648237   -4.429057
    142          1           0      -14.222268   -3.308219    2.679645
    143          1           0      -14.700632   -0.559640    3.828763
    144          1           0      -16.365951   -2.447783    1.347408
    145          1           0      -16.516226   -1.276053    2.659781
    146          1           0      -16.650184   -3.030837    2.958481
    147          1           0      -14.608749   -2.591777    5.268967
    148          1           0      -13.693140   -1.248618    5.887535
    149          1           0      -11.628098   -2.293001    5.366282
    150          1           0      -12.440510   -3.532329    4.319504
    151          1           0      -12.559512   -3.543012    6.077937
    152          1           0       -9.801793    0.765551    5.608682
    153          1           0      -10.035895    2.431718    5.849085
    154          1           0       -8.422025    1.924716    5.294494
    155          1           0       -6.676326    2.268616    0.683251
    156          1           0       -5.397093    6.399698   -0.304812
    157          1           0       -7.049751    6.598823   -0.377532
    158          1           0       -6.171339    5.780979   -1.749962
 ---------------------------------------------------------------------

 SCF Done:  E(RwB97XD) =  -4070.62835263     A.U. after   19 cycles

 Excitation energies and oscillator strengths:

 Excited State   1:      Singlet-A      1.6666 eV  743.95 nm  f=0.3709  <S**2>=0.000
     309 -> 315       -0.19741
     312 -> 314        0.68065
     309 <- 315       -0.12059
 This state for optimization and/or second-order correction.
 Total Energy, E(TD-HF/TD-DFT) =  -4070.56710747
 Copying the excited state density for this state as the 1-particle RhoCI density.

 Excited State   2:      Singlet-A      1.6936 eV  732.10 nm  f=0.3747  <S**2>=0.000
     310 -> 316        0.19047
     311 -> 313        0.68114
     310 <- 316        0.11524

 Excited State   3:      Singlet-A      2.2138 eV  560.05 nm  f=0.1131  <S**2>=0.000
     310 -> 313        0.64265
     311 -> 316       -0.27812

 Excited State   4:      Singlet-A      2.2260 eV  556.98 nm  f=0.0506  <S**2>=0.000
     309 -> 314        0.60370
     312 -> 315        0.35669

 Excited State   5:      Singlet-A      3.7415 eV  331.37 nm  f=0.0000  <S**2>=0.000
     312 -> 313        0.70703

 The electronic state is 1-A.
 Alpha  occ. eigenvalues --  -46.95018 -46.95012 -19.31268 -19.30945 -19.25537
 Alpha  occ. eigenvalues --  -19.25277 -19.24468 -19.24050 -19.23837 -19.23803
 Alpha  occ. eigenvalues --  -14.46818 -14.46710 -14.46655 -14.45580 -14.43971
 Alpha  occ. eigenvalues --  -14.43956 -14.43750 -14.43655 -10.44134 -10.43571
 Alpha  occ. eigenvalues --  -10.40171 -10.38961 -10.38594 -10.38440 -10.35473
 Alpha  occ. eigenvalues --  -10.35239 -10.35154 -10.35124 -10.35086 -10.34848
 Alpha  occ. eigenvalues --  -10.34676 -10.34648 -10.34548 -10.34527 -10.34425
 Alpha  occ. eigenvalues --  -10.33908 -10.33818 -10.33701 -10.33536 -10.33526
 Alpha  occ. eigenvalues --  -10.33224 -10.32708 -10.32606 -10.32605 -10.32596
 Alpha  occ. eigenvalues --  -10.32538 -10.32468 -10.32187 -10.32137 -10.31948
 Alpha  occ. eigenvalues --  -10.31926 -10.31925 -10.31912 -10.31889 -10.31688
 Alpha  occ. eigenvalues --  -10.31659 -10.31635 -10.31612 -10.31533 -10.31496
 Alpha  occ. eigenvalues --  -10.31338 -10.31168 -10.31116 -10.31006 -10.30981
 Alpha  occ. eigenvalues --  -10.30923 -10.30919 -10.30884 -10.30850 -10.30724
 Alpha  occ. eigenvalues --  -10.30358 -10.30231 -10.30118 -10.30071 -10.30060
 Alpha  occ. eigenvalues --  -10.29942 -10.29846 -10.29845 -10.29662 -10.29503
 Alpha  occ. eigenvalues --  -10.29402 -10.29290 -10.29184 -10.29068 -10.28906
 Alpha  occ. eigenvalues --  -10.28266  -3.21057  -3.21023  -1.94622  -1.94598
 Alpha  occ. eigenvalues --   -1.94196  -1.94161  -1.94025  -1.93979  -1.18924
 Alpha  occ. eigenvalues --   -1.18151  -1.14086  -1.12625  -1.12460  -1.11338
 Alpha  occ. eigenvalues --   -1.10900  -1.10447  -1.06925  -1.06759  -1.06261
 Alpha  occ. eigenvalues --   -1.05762  -1.05323  -1.04893  -1.04468  -1.04093
 Alpha  occ. eigenvalues --   -0.95754  -0.95036  -0.91254  -0.91003  -0.90814
 Alpha  occ. eigenvalues --   -0.90481  -0.90438  -0.90044  -0.89557  -0.89424
 Alpha  occ. eigenvalues --   -0.89102  -0.89033  -0.88076  -0.86917  -0.86484
 Alpha  occ. eigenvalues --   -0.86133  -0.85940  -0.85476  -0.84438  -0.84425
 Alpha  occ. eigenvalues --   -0.84255  -0.83433  -0.82989  -0.82817  -0.82806
 Alpha  occ. eigenvalues --   -0.82327  -0.80470  -0.79935  -0.79477  -0.79158
 Alpha  occ. eigenvalues --   -0.78466  -0.78326  -0.78188  -0.78006  -0.77023
 Alpha  occ. eigenvalues --   -0.76767  -0.74860  -0.74415  -0.74092  -0.73723
 Alpha  occ. eigenvalues --   -0.71922  -0.71087  -0.70946  -0.70576  -0.70270
 Alpha  occ. eigenvalues --   -0.70066  -0.68990  -0.68734  -0.67776  -0.67542
 Alpha  occ. eigenvalues --   -0.67293  -0.66844  -0.66736  -0.66454  -0.66370
 Alpha  occ. eigenvalues --   -0.65936  -0.64709  -0.64424  -0.62188  -0.62069
 Alpha  occ. eigenvalues --   -0.62033  -0.61412  -0.61290  -0.61090  -0.60860
 Alpha  occ. eigenvalues --   -0.60507  -0.60465  -0.60201  -0.59691  -0.59309
 Alpha  occ. eigenvalues --   -0.58439  -0.58201  -0.58047  -0.57544  -0.57430
 Alpha  occ. eigenvalues --   -0.57232  -0.57196  -0.56874  -0.56495  -0.55905
 Alpha  occ. eigenvalues --   -0.55886  -0.55468  -0.55194  -0.55091  -0.55017
 Alpha  occ. eigenvalues --   -0.54913  -0.54702  -0.54601  -0.54564  -0.54479
 Alpha  occ. eigenvalues --   -0.54107  -0.53988  -0.53713  -0.53016  -0.52932
 Alpha  occ. eigenvalues --   -0.52864  -0.52794  -0.52465  -0.52373  -0.52242
 Alpha  occ. eigenvalues --   -0.52074  -0.51824  -0.51711  -0.51578  -0.51565
 Alpha  occ. eigenvalues --   -0.51334  -0.51237  -0.51125  -0.51019  -0.50865
 Alpha  occ. eigenvalues --   -0.50690  -0.50585  -0.50428  -0.50250  -0.50002
 Alpha  occ. eigenvalues --   -0.49804  -0.49420  -0.49382  -0.49024  -0.49013
 Alpha  occ. eigenvalues --   -0.48572  -0.48503  -0.48297  -0.48189  -0.48023
 Alpha  occ. eigenvalues --   -0.48016  -0.47874  -0.47864  -0.47597  -0.47354
 Alpha  occ. eigenvalues --   -0.47266  -0.47235  -0.46953  -0.46861  -0.46596
 Alpha  occ. eigenvalues --   -0.46372  -0.46309  -0.46228  -0.46084  -0.46074
 Alpha  occ. eigenvalues --   -0.45940  -0.45778  -0.45727  -0.45581  -0.45505
 Alpha  occ. eigenvalues --   -0.45246  -0.45223  -0.45137  -0.45004  -0.44786
 Alpha  occ. eigenvalues --   -0.44517  -0.44461  -0.44385  -0.44363  -0.44270
 Alpha  occ. eigenvalues --   -0.44073  -0.43869  -0.43771  -0.43633  -0.43589
 Alpha  occ. eigenvalues --   -0.43508  -0.42973  -0.42738  -0.42593  -0.42577
 Alpha  occ. eigenvalues --   -0.42275  -0.42106  -0.41926  -0.41474  -0.40886
 Alpha  occ. eigenvalues --   -0.40699  -0.40341  -0.39920  -0.39764  -0.39629
 Alpha  occ. eigenvalues --   -0.39435  -0.39251  -0.39148  -0.38773  -0.38603
 Alpha  occ. eigenvalues --   -0.38555  -0.38231  -0.36845  -0.36814  -0.36699
 Alpha  occ. eigenvalues --   -0.36218  -0.35720  -0.35367  -0.33584  -0.33533
 Alpha  occ. eigenvalues --   -0.33180  -0.33072  -0.32930  -0.32727  -0.32308
 Alpha  occ. eigenvalues --   -0.32223  -0.31800  -0.31291  -0.26302  -0.25692
 Alpha  occ. eigenvalues --   -0.22852  -0.22783
 Alpha virt. eigenvalues --   -0.06689  -0.06638  -0.00313   0.00634   0.02524
 Alpha virt. eigenvalues --    0.02609   0.04390   0.04620   0.05207   0.05423
 Alpha virt. eigenvalues --    0.06383   0.07412   0.07503   0.08124   0.08553

 Mulliken charges:
               1
     1  Mg   0.957084
     2  C   -0.054724
     3  C   -0.098013
     4  C   -0.052918
     5  C   -0.094321
     6  N   -0.331897
     7  C   -0.023838
     8  C   -0.114767
     9  C   -0.115863
    10  C    0.039322
    11  C    0.060832
    12  C    0.025313
    13  C   -0.134685
    14  H    0.045299
    15  N   -0.518624
    16  C    0.210454
    17  C   -0.172826
    18  C   -0.106215
    19  C    0.151681
    20  C    0.083397
    21  C    0.062114
    22  O   -0.196864
    23  C   -0.021503
    24  N   -0.326752
    25  C    0.062271
    26  C   -0.102168
    27  C   -0.069922
    28  C    0.069802
    29  C    0.021133
    30  C   -0.022410
    31  C   -0.034756
    32  N   -0.429101
    33  C    0.127780
    34  C   -0.206760
    35  C   -0.016802
    36  C    0.192847
    37  C    0.097443
    38  C    0.099242
    39  O   -0.221001
    40  C   -0.022071
    41  C    0.288749
    42  O   -0.244474
    43  O   -0.362437
    44  C    0.139859
    45  H    0.001682
    46  H   -0.029335
    47  H   -0.001802
    48  H    0.017261
    49  H    0.023816
    50  H    0.042955
    51  H    0.038759
    52  H    0.055036
    53  H    0.032817
    54  H    0.055732
    55  H    0.047759
    56  H    0.058974
    57  H    0.056096
    58  H    0.011914
    59  H    0.051510
    60  H    0.070928
    61  H    0.041986
    62  H    0.069511
    63  H    0.033394
    64  H    0.024204
    65  H    0.046082
    66  H    0.041578
    67  H    0.029528
    68  H    0.044060
    69  H    0.016376
    70  H    0.043967
    71  H    0.026244
    72  H    0.041447
    73  H    0.036571
    74  H    0.058122
    75  H    0.065964
    76  H    0.061245
    77  H    0.042327
    78  H    0.050473
    79  H    0.053910
    80  Mg   0.973460
    81  C   -0.006609
    82  C   -0.074189
    83  C   -0.111627
    84  C   -0.060551
    85  N   -0.282032
    86  C   -0.051614
    87  C   -0.080970
    88  C   -0.121258
    89  C    0.037966
    90  C    0.009326
    91  C   -0.013323
    92  C   -0.096437
    93  H    0.058530
    94  N   -0.474675
    95  C    0.176338
    96  C   -0.164547
    97  C   -0.081414
    98  C    0.151343
    99  C    0.071195
   100  C    0.085468
   101  O   -0.233891
   102  C   -0.021563
   103  N   -0.406367
   104  C    0.075768
   105  C   -0.112133
   106  C   -0.035675
   107  C   -0.010096
   108  C    0.035643
   109  C   -0.020867
   110  C   -0.015355
   111  N   -0.411527
   112  C    0.152398
   113  C   -0.157225
   114  C   -0.070550
   115  C    0.151196
   116  C    0.070546
   117  C    0.116412
   118  O   -0.187438
   119  C   -0.074667
   120  C    0.263785
   121  O   -0.227729
   122  O   -0.360523
   123  C    0.124678
   124  H   -0.012652
   125  H    0.022356
   126  H   -0.019520
   127  H    0.047564
   128  H    0.048692
   129  H    0.042446
   130  H    0.025821
   131  H    0.050671
   132  H    0.035267
   133  H    0.032306
   134  H    0.051556
   135  H    0.036169
   136  H    0.044503
   137  H    0.048627
   138  H    0.050091
   139  H    0.058369
   140  H    0.054669
   141  H    0.041217
   142  H    0.040966
   143  H    0.042815
   144  H    0.049019
   145  H    0.031759
   146  H    0.039995
   147  H    0.022713
   148  H    0.034911
   149  H    0.032071
   150  H    0.032760
   151  H    0.035350
   152  H    0.029494
   153  H    0.041832
   154  H    0.064071
   155  H    0.079343
   156  H    0.050348
   157  H    0.068975
   158  H    0.056226
 Sum of Mulliken charges =  -0.00000

 Dipole moment (field-independent basis, Debye):
    X=              0.4574    Y=             -3.6791    Z=             -4.2017  Tot=              5.6035
 Quadrupole moment (field-independent basis, Debye-Ang):
   XX=           -487.8873   YY=           -494.6433   ZZ=           -490.2054
   XY=             18.2248   XZ=             10.0551   YZ=             25.9947

 Normal termination of Gaussian 16 at Mon Sep 20 15:38:34 2021.
