 Gaussian 16, Revision A.03,
 Gaussian 16:  ES64L-G16RevA.03 25-Dec-2016

 --------------------------------
 #p wB97XD/Def2SVP td=(nstates=5)
 --------------------------------

 --------------------------------
 TDDFT excited states in gaussian
 --------------------------------
 Symbolic Z-matrix:
 Charge =  0 Multiplicity = 1

                         Standard orientation:
 ---------------------------------------------------------------------
 Center     Atomic      Atomic             Coordinates (Angstroms)
 Number     Number       Type             X           Y           Z
 ---------------------------------------------------------------------
      1         12           0      -25.537220    0.488660    0.485354
      2          6           0      -25.720175   -1.964234   -1.858860
      3          6           0      -25.050763   -1.729585    3.082626
      4          6           0      -25.588568    3.111591    2.685573
      5          6           0      -26.477318    2.870272   -2.071016
      6          7           0      -25.613464   -1.600311    0.602131
      7          6           0      -25.440348   -2.445427   -0.544907
      8          6           0      -25.020447   -3.802408   -0.142380
      9          6           0      -25.232623   -3.740366    1.436651
     10          6           0      -25.312677   -2.269496    1.779757
     11          6           0      -26.555538   -4.514671    1.929132
     12          6           0      -23.630280   -4.246512   -0.692635
     13          6           0      -23.577624   -5.633077   -1.248633
     14          1           0      -24.389768   -6.731122   -0.455157
     15          7           0      -25.273017    0.671970    2.589912
     16          6           0      -25.104869   -0.390928    3.426773
     17          6           0      -24.949940    0.122628    4.744534
     18          6           0      -25.010149    1.569605    4.682472
     19          6           0      -25.233130    1.892884    3.233462
     20          6           0      -24.846768   -0.799019    5.979418
     21          6           0      -24.856164    2.645550    5.711538
     22          8           0      -25.028887    3.862763    5.582617
     23          6           0      -24.362207    2.153747    7.124536
     24          7           0      -26.083781    2.724278    0.360287
     25          6           0      -25.918374    3.544652    1.367826
     26          6           0      -25.979152    5.010157    0.942103
     27          6           0      -26.264167    4.910934   -0.583780
     28          6           0      -26.297966    3.398485   -0.794409
     29          6           0      -27.098079    5.866225    1.726976
     30          6           0      -25.072721    5.612145   -1.373703
     31          6           0      -23.644730    5.012799   -1.361899
     32          7           0      -26.166363    0.458975   -1.523252
     33          6           0      -26.447399    1.489685   -2.400105
     34          6           0      -26.568120    0.875720   -3.738112
     35          6           0      -26.292521   -0.455310   -3.643543
     36          6           0      -26.051176   -0.657664   -2.236255
     37          6           0      -27.074857    1.591740   -4.942404
     38          6           0      -26.161761   -1.729027   -4.350688
     39          8           0      -26.309013   -2.013515   -5.527470
     40          6           0      -25.791278   -2.748003   -3.185448
     41          6           0      -26.888365   -3.733677   -3.104772
     42          8           0      -28.101138   -3.517330   -2.936412
     43          8           0      -26.258202   -4.950390   -3.270175
     44          6           0      -27.121340   -6.117019   -3.043868
     45          1           0      -24.842685   -2.393876    3.923803
     46          1           0      -25.474531    3.910124    3.422529
     47          1           0      -26.684592    3.584162   -2.870141
     48          1           0      -25.759497   -4.459651   -0.602322
     49          1           0      -24.350189   -4.170937    1.908981
     50          1           0      -26.980826   -5.176491    1.174661
     51          1           0      -27.324145   -3.750633    2.044867
     52          1           0      -26.250014   -4.955744    2.877018
     53          1           0      -22.886776   -4.192595    0.102649
     54          1           0      -23.448698   -3.524428   -1.488578
     55          1           0      -22.574325   -6.057227   -1.242132
     56          1           0      -23.842681   -5.843318   -2.284893
     57          1           0      -23.883167   -1.285706    6.129665
     58          1           0      -25.672493   -1.492075    5.819179
     59          1           0      -24.925753   -0.257708    6.921959
     60          1           0      -25.180490    1.634192    7.623172
     61          1           0      -23.878785    2.994352    7.621982
     62          1           0      -23.506463    1.479926    7.077771
     63          1           0      -24.995914    5.454586    1.094609
     64          1           0      -27.191748    5.396266   -0.887476
     65          1           0      -26.550992    6.498554    2.427149
     66          1           0      -27.752986    5.200990    2.290632
     67          1           0      -27.733768    6.558203    1.176031
     68          1           0      -24.933654    6.670536   -1.153917
     69          1           0      -25.414013    5.496026   -2.402876
     70          1           0      -23.497358    4.738193   -2.406488
     71          1           0      -23.545551    4.175115   -0.672711
     72          1           0      -22.871521    5.718913   -1.059251
     73          1           0      -26.527650    1.109079   -5.751573
     74          1           0      -26.891901    2.665823   -4.906075
     75          1           0      -28.089032    1.238456   -5.124157
     76          1           0      -24.917340   -3.216879   -3.636876
     77          1           0      -26.469733   -6.940862   -3.336497
     78          1           0      -27.923230   -6.039911   -3.778126
     79          1           0      -27.599106   -6.171160   -2.065433
     80         12           0       25.244908    0.682063   -0.352986
     81          6           0       26.650761   -2.149851    1.327855
     82          6           0       23.996090   -1.425987   -2.759329
     83          6           0       24.287192    3.311466   -2.244240
     84          6           0       27.373674    2.698832    1.607205
     85          7           0       25.321583   -1.521657   -0.643701
     86          6           0       25.877551   -2.511985    0.181358
     87          6           0       25.542101   -3.868907   -0.382491
     88          6           0       25.179207   -3.529449   -1.889524
     89          6           0       24.854724   -2.010103   -1.786856
     90          6           0       26.446811   -3.822329   -2.768876
     91          6           0       24.474933   -4.664760    0.448839
     92          6           0       24.876650   -6.045280    0.597419
     93          1           0       24.063724   -6.873827    1.714283
     94          7           0       24.118375    0.817306   -2.160819
     95          6           0       23.675325   -0.157030   -2.964357
     96          6           0       22.875540    0.414395   -4.003889
     97          6           0       22.949488    1.787685   -3.901511
     98          6           0       23.798386    2.071395   -2.653785
     99          6           0       22.261542   -0.449765   -5.150769
    100          6           0       22.246472    2.864841   -4.752926
    101          8           0       22.467551    4.027219   -4.524974
    102          6           0       21.224873    2.480051   -5.796942
    103          7           0       25.993815    2.684803   -0.468029
    104          6           0       25.303438    3.590829   -1.265588
    105          6           0       25.656987    4.995816   -0.900295
    106          6           0       26.637433    4.809105    0.358215
    107          6           0       26.632937    3.313352    0.569150
    108          6           0       26.207115    5.778623   -2.044340
    109          6           0       26.279452    5.629359    1.716181
    110          6           0       27.264584    6.609967    2.217445
    111          7           0       26.688880    0.409028    1.199374
    112          6           0       27.449243    1.344496    1.864190
    113          6           0       28.256204    0.612714    2.934773
    114          6           0       27.889395   -0.744590    2.837762
    115          6           0       26.972690   -0.823559    1.731425
    116          6           0       29.267753    1.285143    3.872931
    117          6           0       28.229638   -2.039762    3.343958
    118          8           0       29.011014   -2.371215    4.263957
    119          6           0       27.580385   -3.025454    2.287946
    120          6           0       26.900548   -4.144551    3.132783
    121          8           0       25.671383   -4.136062    3.328554
    122          8           0       27.818976   -5.077477    3.484787
    123          6           0       27.188057   -6.029309    4.462569
    124          1           0       23.411333   -2.090416   -3.399472
    125          1           0       23.974533    4.179883   -2.828952
    126          1           0       27.988066    3.244920    2.325888
    127          1           0       26.485526   -4.413037   -0.420696
    128          1           0       24.351532   -4.137701   -2.252599
    129          1           0       27.236962   -3.080439   -2.655973
    130          1           0       26.136471   -3.920919   -3.808234
    131          1           0       26.852496   -4.793573   -2.484719
    132          1           0       23.588265   -4.732885   -0.181912
    133          1           0       24.228600   -4.163127    1.384974
    134          1           0       25.884745   -6.119689    1.005582
    135          1           0       24.763457   -6.524180   -0.375490
    136          1           0       21.202287   -0.197472   -5.102318
    137          1           0       22.353941   -1.527109   -5.014138
    138          1           0       22.744852   -0.206208   -6.096822
    139          1           0       20.897511    3.358054   -6.353870
    140          1           0       20.481858    2.090158   -5.101299
    141          1           0       21.672303    1.728016   -6.446762
    142          1           0       24.699328    5.401932   -0.574090
    143          1           0       27.621841    5.147219    0.035569
    144          1           0       25.425732    6.501084   -2.276693
    145          1           0       26.308893    5.188420   -2.954929
    146          1           0       27.165542    6.265829   -1.863575
    147          1           0       26.252122    4.831561    2.458338
    148          1           0       25.273048    6.030224    1.603129
    149          1           0       27.647475    6.319360    3.195386
    150          1           0       26.558188    7.425534    2.368404
    151          1           0       27.999894    6.904585    1.467456
    152          1           0       30.235454    1.179448    3.383817
    153          1           0       29.303057    0.815008    4.855650
    154          1           0       28.965530    2.319716    4.035649
    155          1           0       28.443023   -3.390769    1.732396
    156          1           0       27.044493   -5.628395    5.465809
    157          1           0       27.704929   -6.982410    4.569746
    158          1           0       26.232963   -6.310100    4.018208
 ---------------------------------------------------------------------

 SCF Done:  E(RwB97XD) =  -4070.57426152     A.U. after   19 cycles

 Excitation energies and oscillator strengths:

 Excited State   1:      Singlet-A      1.6461 eV  753.21 nm  f=0.3754  <S**2>=0.000
     309 -> 316        0.19182
     311 -> 313        0.68167
     309 <- 316        0.11821
 This state for optimization and/or second-order correction.
 Total Energy, E(TD-HF/TD-DFT) =  -4070.51376925
 Copying the excited state density for this state as the 1-particle RhoCI density.

 Excited State   2:      Singlet-A      1.6768 eV  739.40 nm  f=0.3567  <S**2>=0.000
     310 -> 315       -0.19189
     312 -> 314        0.68017
     310 <- 315       -0.11548

 Excited State   3:      Singlet-A      2.2139 eV  560.03 nm  f=0.0443  <S**2>=0.000
     309 -> 313        0.60811
     311 -> 316       -0.34950

 Excited State   4:      Singlet-A      2.2164 eV  559.40 nm  f=0.0063  <S**2>=0.000
     310 -> 314        0.55057
     312 -> 315        0.43360

 Excited State   5:      Singlet-A      3.3630 eV  368.67 nm  f=0.3687  <S**2>=0.000
     305 -> 313        0.18429
     307 -> 313        0.37661
     309 -> 313        0.24792
     311 -> 316        0.50138

 The electronic state is 1-A.
 Alpha  occ. eigenvalues --  -46.95775 -46.95621 -19.31371 -19.30891 -19.25227
 Alpha  occ. eigenvalues --  -19.24709 -19.24612 -19.24603 -19.24546 -19.23782
 Alpha  occ. eigenvalues --  -14.46925 -14.46885 -14.46812 -14.46490 -14.44140
 Alpha  occ. eigenvalues --  -14.44093 -14.43989 -14.43732 -10.43575 -10.43395
 Alpha  occ. eigenvalues --  -10.39761 -10.39676 -10.39449 -10.38903 -10.36093
 Alpha  occ. eigenvalues --  -10.35841 -10.35600 -10.35452 -10.35407 -10.35361
 Alpha  occ. eigenvalues --  -10.35285 -10.34948 -10.34918 -10.34455 -10.34447
 Alpha  occ. eigenvalues --  -10.34169 -10.33993 -10.33589 -10.33475 -10.33129
 Alpha  occ. eigenvalues --  -10.33080 -10.33061 -10.33014 -10.32979 -10.32807
 Alpha  occ. eigenvalues --  -10.32781 -10.32608 -10.32477 -10.32419 -10.32234
 Alpha  occ. eigenvalues --  -10.32199 -10.32184 -10.32056 -10.32052 -10.32035
 Alpha  occ. eigenvalues --  -10.31976 -10.31973 -10.31832 -10.31679 -10.31560
 Alpha  occ. eigenvalues --  -10.31519 -10.31452 -10.31440 -10.31429 -10.31424
 Alpha  occ. eigenvalues --  -10.31401 -10.31046 -10.30846 -10.30509 -10.30492
 Alpha  occ. eigenvalues --  -10.30463 -10.30389 -10.30369 -10.30359 -10.30127
 Alpha  occ. eigenvalues --  -10.29794 -10.29786 -10.29780 -10.29745 -10.29446
 Alpha  occ. eigenvalues --  -10.29332 -10.29224 -10.29019 -10.28928 -10.28817
 Alpha  occ. eigenvalues --  -10.28764  -3.21578  -3.21479  -1.95157  -1.95069
 Alpha  occ. eigenvalues --   -1.94682  -1.94590  -1.94543  -1.94447  -1.18217
 Alpha  occ. eigenvalues --   -1.18150  -1.13995  -1.12447  -1.11891  -1.10053
 Alpha  occ. eigenvalues --   -1.09676  -1.09308  -1.07156  -1.06137  -1.05806
 Alpha  occ. eigenvalues --   -1.05073  -1.04979  -1.04691  -1.03757  -1.03431
 Alpha  occ. eigenvalues --   -0.94357  -0.93170  -0.91060  -0.90861  -0.90691
 Alpha  occ. eigenvalues --   -0.90604  -0.90046  -0.89927  -0.89502  -0.89227
 Alpha  occ. eigenvalues --   -0.89164  -0.88871  -0.88255  -0.87383  -0.86605
 Alpha  occ. eigenvalues --   -0.86287  -0.85670  -0.85303  -0.84560  -0.84470
 Alpha  occ. eigenvalues --   -0.84319  -0.83498  -0.83206  -0.82635  -0.82383
 Alpha  occ. eigenvalues --   -0.81955  -0.80216  -0.80074  -0.79470  -0.79308
 Alpha  occ. eigenvalues --   -0.79159  -0.78447  -0.77753  -0.77388  -0.76941
 Alpha  occ. eigenvalues --   -0.76881  -0.74469  -0.74195  -0.74156  -0.73417
 Alpha  occ. eigenvalues --   -0.71817  -0.71246  -0.70806  -0.70348  -0.69785
 Alpha  occ. eigenvalues --   -0.69473  -0.69416  -0.68321  -0.67282  -0.67018
 Alpha  occ. eigenvalues --   -0.66974  -0.66895  -0.66700  -0.66433  -0.66395
 Alpha  occ. eigenvalues --   -0.66290  -0.64534  -0.64042  -0.62350  -0.61961
 Alpha  occ. eigenvalues --   -0.61410  -0.61074  -0.60935  -0.60795  -0.60438
 Alpha  occ. eigenvalues --   -0.60217  -0.59959  -0.59511  -0.59388  -0.59034
 Alpha  occ. eigenvalues --   -0.57999  -0.57932  -0.57501  -0.57453  -0.57040
 Alpha  occ. eigenvalues --   -0.56970  -0.56931  -0.56393  -0.56258  -0.55963
 Alpha  occ. eigenvalues --   -0.55909  -0.55485  -0.55480  -0.55177  -0.55147
 Alpha  occ. eigenvalues --   -0.54876  -0.54620  -0.54552  -0.54397  -0.54333
 Alpha  occ. eigenvalues --   -0.54225  -0.54111  -0.53934  -0.53856  -0.53479
 Alpha  occ. eigenvalues --   -0.53253  -0.53013  -0.52865  -0.52488  -0.52307
 Alpha  occ. eigenvalues --   -0.52174  -0.52081  -0.51851  -0.51597  -0.51474
 Alpha  occ. eigenvalues --   -0.51252  -0.51048  -0.50918  -0.50878  -0.50559
 Alpha  occ. eigenvalues --   -0.50518  -0.50493  -0.50423  -0.50160  -0.50109
 Alpha  occ. eigenvalues --   -0.49956  -0.49782  -0.49644  -0.49360  -0.49336
 Alpha  occ. eigenvalues --   -0.49201  -0.48829  -0.48729  -0.48531  -0.48467
 Alpha  occ. eigenvalues --   -0.48152  -0.48148  -0.48002  -0.47798  -0.47761
 Alpha  occ. eigenvalues --   -0.47537  -0.47292  -0.47142  -0.46728  -0.46526
 Alpha  occ. eigenvalues --   -0.46514  -0.46453  -0.46292  -0.46023  -0.45880
 Alpha  occ. eigenvalues --   -0.45743  -0.45444  -0.45395  -0.45201  -0.45194
 Alpha  occ. eigenvalues --   -0.44998  -0.44967  -0.44901  -0.44776  -0.44756
 Alpha  occ. eigenvalues --   -0.44327  -0.44277  -0.44091  -0.44037  -0.43960
 Alpha  occ. eigenvalues --   -0.43897  -0.43836  -0.43635  -0.43468  -0.43397
 Alpha  occ. eigenvalues --   -0.43029  -0.42717  -0.42693  -0.42431  -0.42119
 Alpha  occ. eigenvalues --   -0.41713  -0.41709  -0.41428  -0.40764  -0.40452
 Alpha  occ. eigenvalues --   -0.39873  -0.39778  -0.39550  -0.39229  -0.39174
 Alpha  occ. eigenvalues --   -0.39125  -0.38984  -0.38740  -0.38379  -0.38297
 Alpha  occ. eigenvalues --   -0.38080  -0.36781  -0.36651  -0.36227  -0.36047
 Alpha  occ. eigenvalues --   -0.35829  -0.35741  -0.35200  -0.33945  -0.33449
 Alpha  occ. eigenvalues --   -0.33390  -0.33151  -0.32992  -0.32640  -0.32549
 Alpha  occ. eigenvalues --   -0.32242  -0.32113  -0.31469  -0.26375  -0.26210
 Alpha  occ. eigenvalues --   -0.22787  -0.22021
 Alpha virt. eigenvalues --   -0.06858  -0.05899  -0.00614  -0.00490   0.01780
 Alpha virt. eigenvalues --    0.02073   0.04201   0.04460   0.05031   0.05061
 Alpha virt. eigenvalues --    0.06913   0.07261   0.07420   0.07766   0.07780

 Mulliken charges:
               1
     1  Mg   0.932591
     2  C   -0.005025
     3  C   -0.105873
     4  C   -0.037063
     5  C   -0.077768
     6  N   -0.442489
     7  C   -0.001104
     8  C   -0.039699
     9  C   -0.136041
    10  C    0.130725
    11  C    0.033371
    12  C    0.070022
    13  C   -0.138356
    14  H    0.000491
    15  N   -0.460790
    16  C    0.169012
    17  C   -0.150446
    18  C   -0.078093
    19  C    0.134020
    20  C    0.056641
    21  C    0.061879
    22  O   -0.237545
    23  C   -0.054816
    24  N   -0.260540
    25  C    0.018026
    26  C   -0.075255
    27  C   -0.047660
    28  C    0.027285
    29  C   -0.001708
    30  C   -0.063190
    31  C   -0.056318
    32  N   -0.406615
    33  C    0.141252
    34  C   -0.240998
    35  C   -0.006253
    36  C    0.119928
    37  C    0.082703
    38  C    0.139197
    39  O   -0.194726
    40  C   -0.109423
    41  C    0.275626
    42  O   -0.259060
    43  O   -0.369952
    44  C    0.139898
    45  H    0.001488
    46  H    0.024218
    47  H    0.003064
    48  H    0.030669
    49  H    0.027175
    50  H    0.043610
    51  H    0.045664
    52  H    0.050294
    53  H    0.039580
    54  H    0.041727
    55  H    0.043882
    56  H    0.061524
    57  H    0.055362
    58  H    0.062225
    59  H    0.016802
    60  H    0.079313
    61  H    0.051774
    62  H    0.041982
    63  H    0.050148
    64  H    0.039085
    65  H    0.042702
    66  H    0.048650
    67  H    0.040738
    68  H    0.041663
    69  H    0.020573
    70  H    0.044558
    71  H    0.039792
    72  H    0.038685
    73  H    0.047114
    74  H    0.040291
    75  H    0.066253
    76  H    0.068436
    77  H    0.059483
    78  H    0.056230
    79  H    0.059383
    80  Mg   0.942928
    81  C    0.041716
    82  C   -0.129175
    83  C   -0.076079
    84  C   -0.077221
    85  N   -0.336117
    86  C   -0.017750
    87  C   -0.079249
    88  C   -0.155447
    89  C    0.135874
    90  C    0.022061
    91  C    0.093417
    92  C   -0.136491
    93  H    0.009032
    94  N   -0.446420
    95  C    0.165913
    96  C   -0.153329
    97  C   -0.107880
    98  C    0.164907
    99  C    0.056797
   100  C    0.032544
   101  O   -0.217408
   102  C    0.006153
   103  N   -0.392435
   104  C    0.060526
   105  C   -0.103415
   106  C   -0.058526
   107  C    0.088751
   108  C    0.029671
   109  C   -0.034568
   110  C   -0.028615
   111  N   -0.416697
   112  C    0.095788
   113  C   -0.195794
   114  C   -0.011730
   115  C    0.105099
   116  C    0.075070
   117  C    0.122633
   118  O   -0.234906
   119  C   -0.139176
   120  C    0.281300
   121  O   -0.275165
   122  O   -0.340446
   123  C    0.131714
   124  H   -0.010069
   125  H    0.029184
   126  H   -0.008248
   127  H    0.017203
   128  H    0.025371
   129  H    0.050743
   130  H    0.035131
   131  H    0.035641
   132  H    0.016160
   133  H    0.073587
   134  H    0.051849
   135  H    0.043260
   136  H    0.051658
   137  H    0.037576
   138  H    0.072629
   139  H    0.062098
   140  H    0.066244
   141  H    0.055591
   142  H    0.043032
   143  H    0.031508
   144  H    0.039718
   145  H    0.045874
   146  H    0.038578
   147  H    0.026809
   148  H    0.028178
   149  H    0.044939
   150  H    0.030312
   151  H    0.041862
   152  H    0.063116
   153  H    0.057600
   154  H    0.033410
   155  H    0.090034
   156  H    0.070055
   157  H    0.052434
   158  H    0.059076
 Sum of Mulliken charges =  -0.00000

 Dipole moment (field-independent basis, Debye):
    X=              0.9856    Y=             -1.1078    Z=             -1.1398  Tot=              1.8702
 Quadrupole moment (field-independent basis, Debye-Ang):
   XX=           -800.8022   YY=           -468.8423   ZZ=           -522.7528
   XY=             42.7464   XZ=           -180.8101   YZ=             -8.4854

 Normal termination of Gaussian 16 at Sat Sep 18 10:56:23 2021.
