 Gaussian 16, Revision A.03,
 Gaussian 16:  ES64L-G16RevA.03 25-Dec-2016

 --------------------------------
 #p wB97XD/Def2SVP td=(nstates=5)
 --------------------------------

 --------------------------------
 TDDFT excited states in gaussian
 --------------------------------
 Symbolic Z-matrix:
 Charge =  0 Multiplicity = 1

                         Standard orientation:
 ---------------------------------------------------------------------
 Center     Atomic      Atomic             Coordinates (Angstroms)
 Number     Number       Type             X           Y           Z
 ---------------------------------------------------------------------
      1         12           0       23.557771    0.479655   -0.410706
      2          6           0       22.940667   -2.639478    0.949347
      3          6           0       20.162442    1.321337    0.186061
      4          6           0       24.207381    3.751274   -1.195999
      5          6           0       26.945122   -0.181691   -0.542937
      6          7           0       21.766738   -0.620854    0.349166
      7          6           0       21.796122   -1.864156    0.945069
      8          6           0       20.454492   -2.256704    1.670035
      9          6           0       19.459515   -1.154364    1.070844
     10          6           0       20.476854   -0.053451    0.433902
     11          6           0       18.351429   -1.594832    0.040052
     12          6           0       20.503348   -2.226407    3.157181
     13          6           0       20.250149   -3.482881    3.967950
     14          1           0       19.657462   -3.272534    5.370531
     15          7           0       22.317508    2.280436   -0.584007
     16          6           0       20.934061    2.341255   -0.331506
     17          6           0       20.446184    3.645989   -0.647557
     18          6           0       21.671529    4.444263   -0.914031
     19          6           0       22.837691    3.507781   -0.898388
     20          6           0       18.998145    4.098015   -0.431727
     21          6           0       21.597880    5.958742   -1.175579
     22          8           0       20.594553    6.666156   -1.170678
     23          6           0       22.877219    6.716062   -1.120205
     24          7           0       25.420699    1.728044   -0.657391
     25          6           0       25.356092    2.973293   -1.148126
     26          6           0       26.770888    3.544961   -1.068802
     27          6           0       27.738754    2.277231   -0.944265
     28          6           0       26.638159    1.146580   -0.720168
     29          6           0       27.108283    4.303583   -2.401103
     30          6           0       28.857843    2.247136    0.176123
     31          6           0       30.331409    2.255501   -0.202227
     32          7           0       24.752311   -1.144513    0.028449
     33          6           0       26.135766   -1.295927   -0.107938
     34          6           0       26.535077   -2.583160    0.373003
     35          6           0       25.317202   -3.183740    0.818705
     36          6           0       24.262425   -2.235882    0.519255
     37          6           0       27.909500   -3.171527    0.432297
     38          6           0       24.706782   -4.330485    1.353090
     39          8           0       25.235007   -5.372107    1.687159
     40          6           0       23.172904   -4.010985    1.539220
     41          6           0       22.392363   -5.157935    1.049400
     42          8           0       21.841892   -5.963475    1.791501
     43          8           0       22.406657   -5.188809   -0.337085
     44          6           0       21.674870   -6.346826   -0.897887
     45          1           0       19.135982    1.680057    0.282444
     46          1           0       24.310380    4.789452   -1.519786
     47          1           0       28.022921   -0.356227   -0.552434
     48          1           0       20.141317   -3.246395    1.339386
     49          1           0       19.007088   -0.651469    1.926295
     50          1           0       18.299005   -2.682997    0.073979
     51          1           0       18.522854   -1.258819   -0.982683
     52          1           0       17.421358   -1.123567    0.355625
     53          1           0       19.709783   -1.548570    3.475245
     54          1           0       21.484659   -1.889667    3.489723
     55          1           0       21.214244   -3.955372    4.153759
     56          1           0       19.551358   -4.170495    3.492072
     57          1           0       18.262265    3.442540    0.033497
     58          1           0       18.711714    4.417490   -1.433418
     59          1           0       19.112871    5.063027    0.060890
     60          1           0       23.466925    6.845835   -2.026663
     61          1           0       23.519014    6.382232   -0.304738
     62          1           0       22.603508    7.744636   -0.882288
     63          1           0       26.908579    4.219412   -0.223357
     64          1           0       28.167877    2.036051   -1.916151
     65          1           0       27.496748    5.280964   -2.114917
     66          1           0       26.277545    4.422515   -3.097826
     67          1           0       27.858539    3.795205   -3.007155
     68          1           0       28.631020    1.345838    0.745182
     69          1           0       28.711599    3.166933    0.744113
     70          1           0       30.843078    1.805807    0.649069
     71          1           0       30.669063    3.289102   -0.281235
     72          1           0       30.673384    1.704112   -1.077447
     73          1           0       27.788283   -4.168179    0.857477
     74          1           0       28.522158   -2.498658    1.031528
     75          1           0       28.401022   -3.302727   -0.531871
     76          1           0       23.050847   -3.974253    2.622268
     77          1           0       22.350151   -7.193872   -1.018297
     78          1           0       21.201612   -5.985093   -1.810701
     79          1           0       20.840257   -6.644688   -0.263858
     80         12           0      -23.629277    0.578778    0.365500
     81          6           0      -22.899831   -2.247621   -1.577216
     82          6           0      -21.896759    2.477195   -1.925483
     83          6           0      -24.302224    3.219408    2.227191
     84          6           0      -25.219876   -1.539142    2.673552
     85          7           0      -22.622575    0.117177   -1.553069
     86          6           0      -22.405198   -1.108433   -2.182864
     87          6           0      -21.893482   -0.964195   -3.669809
     88          6           0      -21.473646    0.492445   -3.629276
     89          6           0      -22.037904    1.096211   -2.277305
     90          6           0      -19.882652    0.620789   -3.569926
     91          6           0      -23.209233   -1.145250   -4.549603
     92          6           0      -23.079051   -2.012031   -5.878453
     93          1           0      -21.704925   -1.829613   -6.470540
     94          7           0      -23.046934    2.489924    0.245730
     95          6           0      -22.355406    3.086342   -0.721317
     96          6           0      -22.203867    4.500562   -0.502925
     97          6           0      -23.038107    4.791059    0.594726
     98          6           0      -23.472260    3.444826    1.127191
     99          6           0      -21.404948    5.434675   -1.335910
    100          6           0      -23.527719    6.119671    1.132998
    101          8           0      -24.455881    6.214472    1.944127
    102          6           0      -22.795970    7.411451    0.758243
    103          7           0      -24.596529    0.778873    2.243407
    104          6           0      -24.782998    2.052514    2.726650
    105          6           0      -25.699333    1.976530    3.946046
    106          6           0      -26.114288    0.427967    4.041312
    107          6           0      -25.331986   -0.170209    2.901783
    108          6           0      -24.986911    2.619017    5.188337
    109          6           0      -27.601386    0.111004    4.019366
    110          6           0      -28.068375   -0.795550    5.200999
    111          7           0      -23.967571   -1.467497    0.533394
    112          6           0      -24.628532   -2.207678    1.563393
    113          6           0      -24.589480   -3.597017    1.275823
    114          6           0      -23.916775   -3.638288    0.042943
    115          6           0      -23.529472   -2.330536   -0.315976
    116          6           0      -25.151494   -4.764582    2.021055
    117          6           0      -23.449999   -4.495253   -0.999504
    118          8           0      -23.471561   -5.694478   -1.148298
    119          6           0      -22.874861   -3.595415   -2.129672
    120          6           0      -21.552547   -4.130189   -2.544955
    121          8           0      -20.501218   -4.105494   -1.911290
    122          8           0      -21.700339   -4.605217   -3.785478
    123          6           0      -20.511683   -5.109109   -4.440879
    124          1           0      -21.499946    3.208991   -2.632029
    125          1           0      -24.481555    4.130649    2.803303
    126          1           0      -25.756327   -2.226482    3.331100
    127          1           0      -21.209995   -1.800674   -3.812264
    128          1           0      -21.902416    1.031378   -4.473486
    129          1           0      -19.387756   -0.350190   -3.542225
    130          1           0      -19.618491    1.179630   -2.672348
    131          1           0      -19.631415    1.189112   -4.465533
    132          1           0      -23.630730   -0.201184   -4.893559
    133          1           0      -23.959685   -1.573379   -3.884538
    134          1           0      -23.698708   -1.592800   -6.671237
    135          1           0      -23.501655   -3.008768   -5.749259
    136          1           0      -22.118837    6.088617   -1.838582
    137          1           0      -20.844941    4.903752   -2.104464
    138          1           0      -20.708721    6.042128   -0.758426
    139          1           0      -23.145162    8.056550    1.564148
    140          1           0      -23.036470    7.784161   -0.238122
    141          1           0      -21.712274    7.423685    0.873117
    142          1           0      -26.626497    2.545288    3.876055
    143          1           0      -25.701993    0.020419    4.964451
    144          1           0      -25.734358    3.260675    5.655056
    145          1           0      -24.069386    3.154920    4.945116
    146          1           0      -24.866735    1.893561    5.993796
    147          1           0      -27.949188   -0.343764    3.092362
    148          1           0      -28.075071    1.066407    4.249426
    149          1           0      -27.256809   -0.950551    5.912126
    150          1           0      -28.254769   -1.818372    4.874221
    151          1           0      -28.919797   -0.358768    5.723328
    152          1           0      -26.214420   -4.663628    1.800011
    153          1           0      -24.842991   -4.646944    3.059615
    154          1           0      -24.829425   -5.718765    1.606409
    155          1           0      -23.546878   -3.791988   -2.966113
    156          1           0      -20.030899   -5.860230   -3.813545
    157          1           0      -19.708926   -4.393330   -4.621103
    158          1           0      -20.850431   -5.561275   -5.373199
 ---------------------------------------------------------------------

 SCF Done:  E(RwB97XD) =  -4070.61823678     A.U. after   19 cycles

 Excitation energies and oscillator strengths:

 Excited State   1:      Singlet-A      1.6652 eV  744.54 nm  f=0.3697  <S**2>=0.000
     309 -> 315       -0.17860
     311 -> 313        0.68412
     309 <- 315       -0.11346
 This state for optimization and/or second-order correction.
 Total Energy, E(TD-HF/TD-DFT) =  -4070.55704025
 Copying the excited state density for this state as the 1-particle RhoCI density.

 Excited State   2:      Singlet-A      1.6810 eV  737.56 nm  f=0.3912  <S**2>=0.000
     310 -> 316       -0.16568
     312 -> 314        0.68539
     310 <- 316       -0.10523

 Excited State   3:      Singlet-A      2.1184 eV  585.28 nm  f=0.1555  <S**2>=0.000
     309 -> 313        0.64907
     311 -> 315        0.25656

 Excited State   4:      Singlet-A      2.2342 eV  554.94 nm  f=0.1200  <S**2>=0.000
     310 -> 314        0.63519
     312 -> 316        0.28430

 Excited State   5:      Singlet-A      3.0632 eV  404.75 nm  f=0.0076  <S**2>=0.000
     306 -> 313        0.68065

 The electronic state is 1-A.
 Alpha  occ. eigenvalues --  -46.96837 -46.94112 -19.30442 -19.30348 -19.25011
 Alpha  occ. eigenvalues --  -19.24778 -19.24212 -19.23720 -19.23304 -19.22375
 Alpha  occ. eigenvalues --  -14.48169 -14.46848 -14.46571 -14.46221 -14.44853
 Alpha  occ. eigenvalues --  -14.44718 -14.44432 -14.43026 -10.42983 -10.42134
 Alpha  occ. eigenvalues --  -10.40272 -10.39320 -10.38159 -10.37289 -10.37093
 Alpha  occ. eigenvalues --  -10.36241 -10.35999 -10.35769 -10.35698 -10.35242
 Alpha  occ. eigenvalues --  -10.35144 -10.35083 -10.34801 -10.34742 -10.34741
 Alpha  occ. eigenvalues --  -10.34566 -10.34456 -10.34113 -10.34100 -10.34051
 Alpha  occ. eigenvalues --  -10.33541 -10.33289 -10.33040 -10.32963 -10.32862
 Alpha  occ. eigenvalues --  -10.32786 -10.32760 -10.32747 -10.32588 -10.32502
 Alpha  occ. eigenvalues --  -10.32392 -10.32354 -10.32340 -10.32319 -10.32230
 Alpha  occ. eigenvalues --  -10.32164 -10.31928 -10.31820 -10.31630 -10.31603
 Alpha  occ. eigenvalues --  -10.31554 -10.31423 -10.31339 -10.31121 -10.31099
 Alpha  occ. eigenvalues --  -10.31093 -10.30974 -10.30880 -10.30858 -10.30683
 Alpha  occ. eigenvalues --  -10.30591 -10.30549 -10.30176 -10.30157 -10.30132
 Alpha  occ. eigenvalues --  -10.30081 -10.29949 -10.29907 -10.29895 -10.29720
 Alpha  occ. eigenvalues --  -10.29612 -10.29584 -10.29351 -10.29232 -10.28909
 Alpha  occ. eigenvalues --  -10.27539  -3.22532  -3.20230  -1.96142  -1.95623
 Alpha  occ. eigenvalues --   -1.95494  -1.93837  -1.93340  -1.93235  -1.19260
 Alpha  occ. eigenvalues --   -1.17699  -1.12626  -1.12351  -1.11965  -1.11530
 Alpha  occ. eigenvalues --   -1.09687  -1.09242  -1.07079  -1.06813  -1.06075
 Alpha  occ. eigenvalues --   -1.05896  -1.04912  -1.04653  -1.04352  -1.03825
 Alpha  occ. eigenvalues --   -0.94590  -0.94554  -0.91611  -0.91486  -0.91268
 Alpha  occ. eigenvalues --   -0.90411  -0.90286  -0.90060  -0.89890  -0.89666
 Alpha  occ. eigenvalues --   -0.89096  -0.88935  -0.88580  -0.87853  -0.86458
 Alpha  occ. eigenvalues --   -0.85873  -0.85739  -0.85417  -0.84837  -0.84255
 Alpha  occ. eigenvalues --   -0.84195  -0.83767  -0.83207  -0.82844  -0.82741
 Alpha  occ. eigenvalues --   -0.82312  -0.80910  -0.79800  -0.79331  -0.79154
 Alpha  occ. eigenvalues --   -0.78954  -0.78669  -0.78160  -0.77499  -0.77475
 Alpha  occ. eigenvalues --   -0.76908  -0.75512  -0.75081  -0.74302  -0.73384
 Alpha  occ. eigenvalues --   -0.71355  -0.71168  -0.70986  -0.70785  -0.70005
 Alpha  occ. eigenvalues --   -0.69606  -0.69327  -0.69111  -0.67557  -0.67469
 Alpha  occ. eigenvalues --   -0.67367  -0.67300  -0.67160  -0.66991  -0.66796
 Alpha  occ. eigenvalues --   -0.66482  -0.64993  -0.64424  -0.62825  -0.62318
 Alpha  occ. eigenvalues --   -0.61744  -0.61534  -0.61469  -0.61145  -0.61085
 Alpha  occ. eigenvalues --   -0.60599  -0.59812  -0.59702  -0.59274  -0.58917
 Alpha  occ. eigenvalues --   -0.58661  -0.58569  -0.57944  -0.57569  -0.57419
 Alpha  occ. eigenvalues --   -0.57299  -0.56705  -0.56354  -0.55784  -0.55746
 Alpha  occ. eigenvalues --   -0.55508  -0.55493  -0.55189  -0.55148  -0.54816
 Alpha  occ. eigenvalues --   -0.54708  -0.54549  -0.54474  -0.54410  -0.54057
 Alpha  occ. eigenvalues --   -0.54052  -0.53859  -0.53671  -0.53277  -0.53213
 Alpha  occ. eigenvalues --   -0.53019  -0.52851  -0.52686  -0.52366  -0.52335
 Alpha  occ. eigenvalues --   -0.52215  -0.52168  -0.51946  -0.51725  -0.51541
 Alpha  occ. eigenvalues --   -0.51459  -0.51197  -0.51193  -0.50855  -0.50608
 Alpha  occ. eigenvalues --   -0.50569  -0.50486  -0.50438  -0.50234  -0.49845
 Alpha  occ. eigenvalues --   -0.49802  -0.49802  -0.49556  -0.49454  -0.49158
 Alpha  occ. eigenvalues --   -0.49095  -0.48976  -0.48643  -0.48624  -0.48528
 Alpha  occ. eigenvalues --   -0.48454  -0.48307  -0.48101  -0.48001  -0.47937
 Alpha  occ. eigenvalues --   -0.47809  -0.47663  -0.47221  -0.47206  -0.47107
 Alpha  occ. eigenvalues --   -0.46928  -0.46664  -0.46619  -0.46511  -0.46475
 Alpha  occ. eigenvalues --   -0.46382  -0.46227  -0.46082  -0.45672  -0.45659
 Alpha  occ. eigenvalues --   -0.45593  -0.45580  -0.44987  -0.44979  -0.44895
 Alpha  occ. eigenvalues --   -0.44757  -0.44536  -0.44352  -0.44269  -0.44167
 Alpha  occ. eigenvalues --   -0.43854  -0.43603  -0.43540  -0.43443  -0.43254
 Alpha  occ. eigenvalues --   -0.43013  -0.42695  -0.42349  -0.42297  -0.41973
 Alpha  occ. eigenvalues --   -0.41901  -0.41639  -0.41618  -0.41384  -0.40719
 Alpha  occ. eigenvalues --   -0.40273  -0.40186  -0.39951  -0.39609  -0.39422
 Alpha  occ. eigenvalues --   -0.39362  -0.39211  -0.38882  -0.38799  -0.38445
 Alpha  occ. eigenvalues --   -0.38318  -0.37849  -0.36532  -0.36341  -0.36219
 Alpha  occ. eigenvalues --   -0.35870  -0.35487  -0.34959  -0.34307  -0.34013
 Alpha  occ. eigenvalues --   -0.33572  -0.33224  -0.33114  -0.32486  -0.32309
 Alpha  occ. eigenvalues --   -0.31855  -0.31672  -0.31300  -0.26557  -0.26047
 Alpha  occ. eigenvalues --   -0.23989  -0.22872
 Alpha virt. eigenvalues --   -0.08104  -0.06921  -0.00432   0.00237   0.02049
 Alpha virt. eigenvalues --    0.02541   0.04314   0.04969   0.05459   0.06460
 Alpha virt. eigenvalues --    0.07045   0.07417   0.08120   0.08440   0.08457

 Mulliken charges:
               1
     1  Mg   0.930440
     2  C    0.060694
     3  C   -0.053584
     4  C   -0.067776
     5  C   -0.064543
     6  N   -0.367815
     7  C   -0.017605
     8  C   -0.066694
     9  C   -0.122832
    10  C    0.087849
    11  C    0.030144
    12  C    0.037152
    13  C   -0.149323
    14  H    0.025303
    15  N   -0.454693
    16  C    0.135347
    17  C   -0.149614
    18  C   -0.136719
    19  C    0.177433
    20  C    0.084236
    21  C    0.092225
    22  O   -0.239825
    23  C   -0.062594
    24  N   -0.335599
    25  C    0.120534
    26  C   -0.138829
    27  C   -0.048775
    28  C    0.022523
    29  C    0.006345
    30  C   -0.011652
    31  C   -0.052421
    32  N   -0.425557
    33  C    0.118213
    34  C   -0.169502
    35  C   -0.018273
    36  C    0.077113
    37  C    0.078443
    38  C    0.069302
    39  O   -0.202340
    40  C   -0.060343
    41  C    0.246563
    42  O   -0.245752
    43  O   -0.384169
    44  C    0.134988
    45  H   -0.012762
    46  H   -0.019736
    47  H   -0.002611
    48  H    0.034894
    49  H    0.040607
    50  H    0.043307
    51  H    0.048380
    52  H    0.043014
    53  H    0.039675
    54  H    0.043295
    55  H    0.068862
    56  H    0.059001
    57  H    0.056942
    58  H    0.057797
    59  H    0.063733
    60  H    0.068463
    61  H    0.055841
    62  H    0.048614
    63  H    0.055220
    64  H    0.030162
    65  H    0.036207
    66  H    0.039789
    67  H    0.031082
    68  H    0.041420
    69  H    0.028829
    70  H    0.037002
    71  H    0.037553
    72  H    0.038390
    73  H    0.063010
    74  H    0.045530
    75  H    0.046938
    76  H    0.066587
    77  H    0.069725
    78  H    0.052466
    79  H    0.054755
    80  Mg   0.983779
    81  C    0.006712
    82  C   -0.113508
    83  C   -0.075841
    84  C   -0.074251
    85  N   -0.350969
    86  C   -0.049304
    87  C   -0.050123
    88  C   -0.097984
    89  C    0.098267
    90  C    0.023327
    91  C    0.001725
    92  C   -0.114904
    93  H    0.031918
    94  N   -0.466485
    95  C    0.154040
    96  C   -0.174251
    97  C   -0.070194
    98  C    0.137911
    99  C    0.077761
   100  C    0.062703
   101  O   -0.243524
   102  C   -0.045377
   103  N   -0.389915
   104  C    0.116239
   105  C   -0.106926
   106  C   -0.048743
   107  C    0.073207
   108  C    0.009954
   109  C    0.001444
   110  C   -0.071392
   111  N   -0.414248
   112  C    0.082249
   113  C   -0.193355
   114  C   -0.037944
   115  C    0.139190
   116  C    0.088170
   117  C    0.083160
   118  O   -0.205364
   119  C   -0.074163
   120  C    0.226058
   121  O   -0.256825
   122  O   -0.333901
   123  C    0.142518
   124  H   -0.000092
   125  H    0.028384
   126  H   -0.008034
   127  H    0.049744
   128  H    0.040041
   129  H    0.051986
   130  H    0.043569
   131  H    0.040166
   132  H    0.030976
   133  H    0.043333
   134  H    0.042770
   135  H    0.062635
   136  H    0.053202
   137  H    0.041046
   138  H    0.058492
   139  H    0.058579
   140  H    0.065446
   141  H    0.052841
   142  H    0.043227
   143  H    0.032379
   144  H    0.027650
   145  H    0.060862
   146  H    0.025935
   147  H    0.049339
   148  H    0.028163
   149  H    0.020868
   150  H    0.037413
   151  H    0.045765
   152  H    0.054237
   153  H    0.052876
   154  H    0.061487
   155  H    0.067082
   156  H    0.054667
   157  H    0.045131
   158  H    0.056992
 Sum of Mulliken charges =  -0.00000

 Dipole moment (field-independent basis, Debye):
    X=              0.3659    Y=              8.4549    Z=             -4.9746  Tot=              9.8166
 Quadrupole moment (field-independent basis, Debye-Ang):
   XX=           -427.4051   YY=           -570.9834   ZZ=           -484.9835
   XY=              0.2365   XZ=            -36.3141   YZ=             12.6605

 Normal termination of Gaussian 16 at Mon Sep 20 07:23:04 2021.
