 Gaussian 16, Revision A.03,
 Gaussian 16:  ES64L-G16RevA.03 25-Dec-2016

 --------------------------------
 #p wB97XD/Def2SVP td=(nstates=5)
 --------------------------------

 --------------------------------
 TDDFT excited states in gaussian
 --------------------------------
 Symbolic Z-matrix:
 Charge =  0 Multiplicity = 1

                         Standard orientation:
 ---------------------------------------------------------------------
 Center     Atomic      Atomic             Coordinates (Angstroms)
 Number     Number       Type             X           Y           Z
 ---------------------------------------------------------------------
      1         12           0      -29.286889    0.470932    0.130684
      2          6           0      -27.332316   -2.134734   -1.249371
      3          6           0      -28.460846    2.282937   -2.478430
      4          6           0      -30.207137    3.069691    1.955958
      5          6           0      -29.384552   -1.502075    3.084677
      6          7           0      -28.136937   -0.049849   -1.750239
      7          6           0      -27.531948   -1.111530   -2.141538
      8          6           0      -27.147360   -1.008047   -3.631798
      9          6           0      -27.080654    0.584568   -3.878089
     10          6           0      -27.885146    1.013045   -2.581024
     11          6           0      -25.639914    1.228533   -3.954005
     12          6           0      -28.299522   -1.650369   -4.567122
     13          6           0      -27.927865   -2.353841   -5.912532
     14          1           0      -26.633300   -1.829336   -6.636306
     15          7           0      -29.526757    2.390463   -0.282593
     16          6           0      -29.158319    2.941972   -1.500476
     17          6           0      -29.499671    4.407970   -1.476402
     18          6           0      -30.058464    4.620094   -0.147260
     19          6           0      -29.976691    3.384450    0.636284
     20          6           0      -29.193327    5.306680   -2.659571
     21          6           0      -30.647682    5.902547    0.397611
     22          8           0      -31.073240    6.047045    1.552090
     23          6           0      -30.767249    7.064987   -0.502345
     24          7           0      -29.850705    0.729032    2.277226
     25          6           0      -30.136510    1.935623    2.732023
     26          6           0      -30.803421    1.831334    4.175216
     27          6           0      -30.479600    0.278543    4.523159
     28          6           0      -29.900384   -0.210444    3.198369
     29          6           0      -30.265254    2.884082    5.199759
     30          6           0      -31.659406   -0.627704    5.005678
     31          6           0      -31.625733   -1.088833    6.440133
     32          7           0      -28.717956   -1.535551    0.780206
     33          6           0      -28.846586   -2.141347    2.014246
     34          6           0      -28.191209   -3.382172    2.011856
     35          6           0      -27.548286   -3.397690    0.759579
     36          6           0      -27.844409   -2.266131    0.037089
     37          6           0      -28.117253   -4.359121    3.074544
     38          6           0      -26.762358   -4.250499   -0.044914
     39          8           0      -26.323781   -5.429336    0.045486
     40          6           0      -26.361363   -3.337539   -1.289394
     41          6           0      -26.421984   -4.124804   -2.546726
     42          8           0      -27.406809   -4.649341   -3.062580
     43          8           0      -25.119867   -4.074028   -3.137064
     44          6           0      -24.928966   -4.798037   -4.400293
     45          1           0      -28.276801    2.797274   -3.424417
     46          1           0      -30.567592    3.927181    2.526877
     47          1           0      -29.488084   -2.132726    3.970875
     48          1           0      -26.103376   -1.309854   -3.712015
     49          1           0      -27.492481    0.792825   -4.864979
     50          1           0      -24.867987    0.541863   -3.607234
     51          1           0      -25.551900    2.094507   -3.298158
     52          1           0      -25.482847    1.476368   -5.003713
     53          1           0      -29.079406   -0.919029   -4.779881
     54          1           0      -28.854702   -2.370920   -3.966226
     55          1           0      -28.713118   -2.300315   -6.667281
     56          1           0      -27.599627   -3.361482   -5.654531
     57          1           0      -30.026393    5.968247   -2.899830
     58          1           0      -28.924145    4.754217   -3.559835
     59          1           0      -28.249922    5.822949   -2.483659
     60          1           0      -29.794984    7.355111   -0.901629
     61          1           0      -31.207651    7.904578    0.035543
     62          1           0      -31.432301    6.934113   -1.355975
     63          1           0      -31.890218    1.907222    4.142312
     64          1           0      -29.610880    0.176555    5.175230
     65          1           0      -29.440819    3.449591    4.765097
     66          1           0      -30.062472    2.242989    6.057890
     67          1           0      -31.118936    3.487825    5.504959
     68          1           0      -31.649792   -1.525889    4.387810
     69          1           0      -32.606044   -0.122436    4.813111
     70          1           0      -30.808660   -0.509548    6.868111
     71          1           0      -31.332960   -2.139413    6.443372
     72          1           0      -32.535529   -0.855946    6.992043
     73          1           0      -29.140790   -4.548236    3.397028
     74          1           0      -27.712415   -4.004613    4.022497
     75          1           0      -27.674712   -5.280336    2.695114
     76          1           0      -25.347443   -2.970735   -1.126474
     77          1           0      -23.884078   -4.764964   -4.709969
     78          1           0      -25.423305   -4.239710   -5.195495
     79          1           0      -25.196592   -5.844323   -4.256596
     80         12           0       28.975126    0.595952   -0.560048
     81          6           0       27.339440   -2.264623    0.806456
     82          6           0       26.423477    2.361946    0.615683
     83          6           0       30.842372    3.394436   -0.881575
     84          6           0       31.866022   -1.477505   -0.769072
     85          7           0       27.113174    0.106547    0.432556
     86          6           0       26.577973   -1.136910    0.833043
     87          6           0       25.170813   -1.013750    1.497936
     88          6           0       24.902784    0.511400    1.356234
     89          6           0       26.184144    1.038536    0.676377
     90          6           0       23.583837    0.678011    0.583358
     91          6           0       25.017791   -1.514141    2.998947
     92          6           0       24.119041   -2.723348    3.230436
     93          1           0       22.953561   -2.561375    4.227577
     94          7           0       28.680565    2.572626   -0.291369
     95          6           0       27.507034    3.116155    0.230803
     96          6           0       27.545202    4.521411    0.172095
     97          6           0       28.749389    4.893916   -0.396216
     98          6           0       29.496993    3.661605   -0.544097
     99          6           0       26.443446    5.557074    0.608469
    100          6           0       29.107430    6.329782   -0.700172
    101          8           0       28.351552    7.248839   -0.590001
    102          6           0       30.565748    6.557970   -1.336508
    103          7           0       31.066581    0.936474   -0.721233
    104          6           0       31.568942    2.198991   -0.881694
    105          6           0       33.147228    2.071402   -0.875516
    106          6           0       33.488062    0.574849   -0.970302
    107          6           0       32.053785   -0.054298   -0.792481
    108          6           0       33.858640    2.971573   -1.845347
    109          6           0       34.362911    0.177276    0.212079
    110          6           0       35.220449   -1.050289    0.054937
    111          7           0       29.464864   -1.517247   -0.321847
    112          6           0       30.656174   -2.186631   -0.469907
    113          6           0       30.469266   -3.574937   -0.251323
    114          6           0       29.137993   -3.737310    0.199857
    115          6           0       28.626889   -2.409432    0.243349
    116          6           0       31.490262   -4.639666   -0.303038
    117          6           0       28.075301   -4.624739    0.691347
    118          8           0       28.085687   -5.858869    0.793021
    119          6           0       26.842761   -3.724639    1.087978
    120          6           0       25.766392   -3.965248    0.164289
    121          8           0       25.797157   -3.503910   -1.001128
    122          8           0       24.871375   -4.755995    0.788389
    123          6           0       23.559575   -5.004613    0.130067
    124          1           0       25.582757    2.970826    0.955690
    125          1           0       31.397699    4.320739   -1.043629
    126          1           0       32.685371   -2.180071   -0.932991
    127          1           0       24.436593   -1.561873    0.907608
    128          1           0       24.822952    1.029981    2.311159
    129          1           0       23.490380    1.737587    0.347073
    130          1           0       22.680670    0.369748    1.109841
    131          1           0       23.578105    0.119393   -0.353272
    132          1           0       24.477347   -0.703654    3.488004
    133          1           0       26.000657   -1.648884    3.450652
    134          1           0       24.760260   -3.545826    3.549251
    135          1           0       23.641816   -2.998945    2.289347
    136          1           0       26.943383    6.245922    1.289695
    137          1           0       25.613222    5.076207    1.125533
    138          1           0       25.920226    6.064939   -0.201684
    139          1           0       30.608535    7.615086   -1.597052
    140          1           0       30.568874    5.875763   -2.186950
    141          1           0       31.216739    6.248382   -0.518965
    142          1           0       33.419349    2.434800    0.116067
    143          1           0       33.980486    0.238765   -1.882755
    144          1           0       34.786270    2.484947   -2.145438
    145          1           0       34.042055    3.902010   -1.307627
    146          1           0       33.254330    3.286366   -2.695321
    147          1           0       33.800718    0.054166    1.138214
    148          1           0       35.032202    0.981716    0.517010
    149          1           0       35.262363   -1.410317   -0.972873
    150          1           0       34.796475   -1.833558    0.683626
    151          1           0       36.198243   -0.898986    0.512138
    152          1           0       32.294686   -4.393545   -0.996892
    153          1           0       30.961094   -5.533333   -0.634744
    154          1           0       31.900755   -4.694750    0.705469
    155          1           0       26.548935   -3.788230    2.135712
    156          1           0       23.370666   -6.025204    0.466125
    157          1           0       23.577180   -4.887919   -0.953126
    158          1           0       22.755006   -4.458131    0.623286
 ---------------------------------------------------------------------

 SCF Done:  E(RwB97XD) =  -4070.57781162     A.U. after   19 cycles

 Excitation energies and oscillator strengths:

 Excited State   1:      Singlet-A      1.6723 eV  741.39 nm  f=0.3853  <S**2>=0.000
     309 -> 316        0.17579
     312 -> 313        0.68537
     309 <- 316        0.11223
 This state for optimization and/or second-order correction.
 Total Energy, E(TD-HF/TD-DFT) =  -4070.51635531
 Copying the excited state density for this state as the 1-particle RhoCI density.

 Excited State   2:      Singlet-A      1.7434 eV  711.15 nm  f=0.3648  <S**2>=0.000
     310 -> 315       -0.21778
     311 -> 314        0.67306
     310 <- 315       -0.11925

 Excited State   3:      Singlet-A      2.1695 eV  571.48 nm  f=0.0787  <S**2>=0.000
     310 -> 314        0.62752
     311 -> 315        0.30973

 Excited State   4:      Singlet-A      2.2043 eV  562.47 nm  f=0.1140  <S**2>=0.000
     309 -> 313        0.63531
     312 -> 316       -0.29123

 Excited State   5:      Singlet-A      3.2883 eV  377.05 nm  f=0.0022  <S**2>=0.000
     302 -> 313        0.11881
     308 -> 313        0.66485

 The electronic state is 1-A.
 Alpha  occ. eigenvalues --  -46.95743 -46.94874 -19.31706 -19.29197 -19.25165
 Alpha  occ. eigenvalues --  -19.24706 -19.24591 -19.24046 -19.23776 -19.23548
 Alpha  occ. eigenvalues --  -14.47186 -14.46787 -14.46729 -14.46307 -14.44626
 Alpha  occ. eigenvalues --  -14.44175 -14.43199 -14.43049 -10.43333 -10.43176
 Alpha  occ. eigenvalues --  -10.39487 -10.39408 -10.39103 -10.38542 -10.36582
 Alpha  occ. eigenvalues --  -10.35715 -10.35596 -10.35517 -10.35107 -10.35041
 Alpha  occ. eigenvalues --  -10.34848 -10.34818 -10.34715 -10.34649 -10.34612
 Alpha  occ. eigenvalues --  -10.34523 -10.34454 -10.34298 -10.33704 -10.33329
 Alpha  occ. eigenvalues --  -10.33011 -10.32771 -10.32737 -10.32643 -10.32575
 Alpha  occ. eigenvalues --  -10.32527 -10.32420 -10.32419 -10.32400 -10.32377
 Alpha  occ. eigenvalues --  -10.32205 -10.31981 -10.31977 -10.31975 -10.31899
 Alpha  occ. eigenvalues --  -10.31808 -10.31672 -10.31671 -10.31650 -10.31593
 Alpha  occ. eigenvalues --  -10.31480 -10.31341 -10.31287 -10.31140 -10.31067
 Alpha  occ. eigenvalues --  -10.31023 -10.30994 -10.30971 -10.30421 -10.30331
 Alpha  occ. eigenvalues --  -10.30280 -10.30253 -10.30249 -10.30182 -10.30082
 Alpha  occ. eigenvalues --  -10.30061 -10.29811 -10.29703 -10.29699 -10.29683
 Alpha  occ. eigenvalues --  -10.29660 -10.29269 -10.29233 -10.28977 -10.28859
 Alpha  occ. eigenvalues --  -10.28687  -3.21655  -3.20915  -1.95246  -1.94787
 Alpha  occ. eigenvalues --   -1.94602  -1.94480  -1.94018  -1.93906  -1.18808
 Alpha  occ. eigenvalues --   -1.16126  -1.14235  -1.11648  -1.10879  -1.09558
 Alpha  occ. eigenvalues --   -1.09525  -1.08949  -1.07808  -1.07231  -1.06157
 Alpha  occ. eigenvalues --   -1.05570  -1.05245  -1.04851  -1.03765  -1.03527
 Alpha  occ. eigenvalues --   -0.94970  -0.94166  -0.91519  -0.91441  -0.91216
 Alpha  occ. eigenvalues --   -0.90686  -0.90535  -0.89817  -0.89500  -0.89291
 Alpha  occ. eigenvalues --   -0.89284  -0.88872  -0.88636  -0.88425  -0.86722
 Alpha  occ. eigenvalues --   -0.86233  -0.86130  -0.85887  -0.85190  -0.84663
 Alpha  occ. eigenvalues --   -0.83970  -0.83838  -0.83465  -0.83109  -0.82648
 Alpha  occ. eigenvalues --   -0.82266  -0.80956  -0.79668  -0.79653  -0.79338
 Alpha  occ. eigenvalues --   -0.78907  -0.78616  -0.78170  -0.77844  -0.77187
 Alpha  occ. eigenvalues --   -0.77103  -0.75240  -0.74732  -0.74264  -0.73712
 Alpha  occ. eigenvalues --   -0.71248  -0.70959  -0.70522  -0.70520  -0.69908
 Alpha  occ. eigenvalues --   -0.69719  -0.69242  -0.69223  -0.67906  -0.67658
 Alpha  occ. eigenvalues --   -0.67597  -0.67571  -0.67500  -0.67008  -0.66613
 Alpha  occ. eigenvalues --   -0.66566  -0.64218  -0.63276  -0.62562  -0.62189
 Alpha  occ. eigenvalues --   -0.62140  -0.61614  -0.61391  -0.61315  -0.60462
 Alpha  occ. eigenvalues --   -0.60369  -0.60197  -0.59740  -0.59313  -0.59148
 Alpha  occ. eigenvalues --   -0.58982  -0.58382  -0.57995  -0.57773  -0.57426
 Alpha  occ. eigenvalues --   -0.56969  -0.56625  -0.56326  -0.56204  -0.55773
 Alpha  occ. eigenvalues --   -0.55757  -0.55488  -0.55132  -0.55103  -0.54901
 Alpha  occ. eigenvalues --   -0.54826  -0.54572  -0.54432  -0.54418  -0.54361
 Alpha  occ. eigenvalues --   -0.54202  -0.53633  -0.53474  -0.53396  -0.53147
 Alpha  occ. eigenvalues --   -0.53100  -0.52861  -0.52524  -0.52455  -0.52282
 Alpha  occ. eigenvalues --   -0.52273  -0.52082  -0.51935  -0.51851  -0.51753
 Alpha  occ. eigenvalues --   -0.51513  -0.51174  -0.51125  -0.50887  -0.50756
 Alpha  occ. eigenvalues --   -0.50634  -0.50388  -0.50327  -0.50166  -0.49973
 Alpha  occ. eigenvalues --   -0.49973  -0.49745  -0.49580  -0.49462  -0.49418
 Alpha  occ. eigenvalues --   -0.49262  -0.49021  -0.48895  -0.48743  -0.48369
 Alpha  occ. eigenvalues --   -0.48263  -0.48242  -0.48071  -0.48033  -0.47578
 Alpha  occ. eigenvalues --   -0.47540  -0.47309  -0.47245  -0.47055  -0.46887
 Alpha  occ. eigenvalues --   -0.46886  -0.46685  -0.46244  -0.46206  -0.46071
 Alpha  occ. eigenvalues --   -0.45917  -0.45868  -0.45747  -0.45514  -0.45440
 Alpha  occ. eigenvalues --   -0.45257  -0.45252  -0.44992  -0.44935  -0.44717
 Alpha  occ. eigenvalues --   -0.44570  -0.44518  -0.44229  -0.43905  -0.43835
 Alpha  occ. eigenvalues --   -0.43634  -0.43591  -0.43582  -0.43555  -0.43130
 Alpha  occ. eigenvalues --   -0.42965  -0.42674  -0.42550  -0.42510  -0.42253
 Alpha  occ. eigenvalues --   -0.42109  -0.42001  -0.41993  -0.41093  -0.40969
 Alpha  occ. eigenvalues --   -0.40438  -0.40392  -0.40126  -0.39926  -0.39579
 Alpha  occ. eigenvalues --   -0.39425  -0.39249  -0.38774  -0.38412  -0.38113
 Alpha  occ. eigenvalues --   -0.37936  -0.37628  -0.36599  -0.36235  -0.36146
 Alpha  occ. eigenvalues --   -0.35911  -0.35653  -0.35198  -0.34031  -0.34025
 Alpha  occ. eigenvalues --   -0.33243  -0.32987  -0.32737  -0.32665  -0.32635
 Alpha  occ. eigenvalues --   -0.32326  -0.31484  -0.31065  -0.26213  -0.26107
 Alpha  occ. eigenvalues --   -0.23509  -0.23068
 Alpha virt. eigenvalues --   -0.07096  -0.06982  -0.00751   0.00224   0.01801
 Alpha virt. eigenvalues --    0.02652   0.04340   0.04786   0.05417   0.05444
 Alpha virt. eigenvalues --    0.06725   0.06757   0.07223   0.07845   0.08098

 Mulliken charges:
               1
     1  Mg   0.950533
     2  C   -0.001354
     3  C   -0.092624
     4  C   -0.057226
     5  C   -0.097686
     6  N   -0.289198
     7  C   -0.079929
     8  C   -0.022174
     9  C   -0.152116
    10  C    0.044786
    11  C    0.020219
    12  C    0.019246
    13  C   -0.121906
    14  H   -0.003174
    15  N   -0.573375
    16  C    0.230588
    17  C   -0.157378
    18  C   -0.064118
    19  C    0.176449
    20  C    0.067665
    21  C    0.057111
    22  O   -0.243266
    23  C   -0.029500
    24  N   -0.281760
    25  C    0.040594
    26  C   -0.118718
    27  C   -0.082487
    28  C    0.022872
    29  C    0.039333
    30  C   -0.018064
    31  C   -0.035005
    32  N   -0.421074
    33  C    0.154750
    34  C   -0.152122
    35  C   -0.029660
    36  C    0.146289
    37  C    0.092543
    38  C    0.133365
    39  O   -0.250648
    40  C   -0.095462
    41  C    0.288816
    42  O   -0.246523
    43  O   -0.409251
    44  C    0.146575
    45  H   -0.006512
    46  H    0.019250
    47  H   -0.015402
    48  H    0.025010
    49  H    0.044111
    50  H    0.036943
    51  H    0.039606
    52  H    0.044108
    53  H    0.028284
    54  H    0.057691
    55  H    0.065774
    56  H    0.078808
    57  H    0.055764
    58  H    0.031546
    59  H    0.060653
    60  H    0.053893
    61  H    0.050868
    62  H    0.060059
    63  H    0.047722
    64  H    0.033926
    65  H    0.061751
    66  H    0.028992
    67  H    0.039262
    68  H    0.034195
    69  H    0.025069
    70  H    0.022689
    71  H    0.040436
    72  H    0.046566
    73  H    0.029880
    74  H    0.045548
    75  H    0.071959
    76  H    0.082466
    77  H    0.044120
    78  H    0.042334
    79  H    0.066700
    80  Mg   0.984583
    81  C   -0.043593
    82  C   -0.132115
    83  C   -0.102632
    84  C   -0.063374
    85  N   -0.377684
    86  C    0.011477
    87  C   -0.047454
    88  C   -0.123597
    89  C    0.121296
    90  C    0.014125
    91  C    0.012215
    92  C   -0.135604
    93  H    0.033934
    94  N   -0.504890
    95  C    0.212712
    96  C   -0.172177
    97  C   -0.054853
    98  C    0.150165
    99  C    0.105843
   100  C    0.008220
   101  O   -0.195287
   102  C   -0.027871
   103  N   -0.393596
   104  C    0.110755
   105  C   -0.081198
   106  C   -0.082576
   107  C    0.107971
   108  C    0.029371
   109  C   -0.045305
   110  C   -0.025563
   111  N   -0.385759
   112  C    0.093573
   113  C   -0.223050
   114  C    0.000577
   115  C    0.116572
   116  C    0.079585
   117  C    0.128935
   118  O   -0.222372
   119  C   -0.072449
   120  C    0.292610
   121  O   -0.279979
   122  O   -0.349514
   123  C    0.124668
   124  H   -0.016762
   125  H   -0.040291
   126  H   -0.012878
   127  H    0.028375
   128  H    0.045438
   129  H    0.027673
   130  H    0.042802
   131  H    0.043027
   132  H    0.041049
   133  H    0.048483
   134  H    0.069472
   135  H    0.032951
   136  H    0.061798
   137  H    0.011489
   138  H    0.062655
   139  H    0.058146
   140  H    0.066204
   141  H    0.068523
   142  H    0.046808
   143  H    0.038423
   144  H    0.041331
   145  H    0.031642
   146  H    0.038543
   147  H    0.030402
   148  H    0.021521
   149  H    0.036075
   150  H    0.030063
   151  H    0.032957
   152  H    0.030650
   153  H    0.066820
   154  H    0.060814
   155  H    0.055758
   156  H    0.061770
   157  H    0.085147
   158  H    0.056430
 Sum of Mulliken charges =  -0.00000

 Dipole moment (field-independent basis, Debye):
    X=             -0.6416    Y=              6.0684    Z=             -1.0324  Tot=              6.1890
 Quadrupole moment (field-independent basis, Debye-Ang):
   XX=           -417.8539   YY=           -584.6583   ZZ=           -478.6009
   XY=            -47.9913   XZ=             45.8620   YZ=            -20.3174

 Normal termination of Gaussian 16 at Sun Sep 19 00:24:47 2021.
