 Gaussian 16, Revision A.03,
 Gaussian 16:  ES64L-G16RevA.03 25-Dec-2016

 --------------------------------
 #p wB97XD/Def2SVP td=(nstates=5)
 --------------------------------

 --------------------------------
 TDDFT excited states in gaussian
 --------------------------------
 Symbolic Z-matrix:
 Charge =  0 Multiplicity = 1

                         Standard orientation:
 ---------------------------------------------------------------------
 Center     Atomic      Atomic             Coordinates (Angstroms)
 Number     Number       Type             X           Y           Z
 ---------------------------------------------------------------------
      1         12           0       24.196836    0.521176   -0.337827
      2          6           0       23.018880   -1.918281    1.971620
      3          6           0       22.759385    2.950249    1.625824
      4          6           0       25.313548    2.634080   -2.619816
      5          6           0       25.203391   -2.137087   -2.537784
      6          7           0       22.923000    0.524649    1.609526
      7          6           0       22.700698   -0.608975    2.369651
      8          6           0       21.964887   -0.125382    3.666103
      9          6           0       21.835625    1.485308    3.539769
     10          6           0       22.526765    1.659865    2.183619
     11          6           0       20.411534    2.064899    3.668308
     12          6           0       22.527808   -0.648067    5.052000
     13          6           0       21.555370   -1.412628    5.902329
     14          1           0       20.064633   -1.203605    5.859742
     15          7           0       24.160533    2.619995   -0.416098
     16          6           0       23.513016    3.411117    0.479805
     17          6           0       23.871216    4.764376    0.140785
     18          6           0       24.508991    4.708513   -1.117286
     19          6           0       24.690955    3.269952   -1.497774
     20          6           0       23.386378    5.931408    1.017387
     21          6           0       24.837544    5.861503   -2.016644
     22          8           0       25.298949    5.684118   -3.168985
     23          6           0       24.557972    7.244575   -1.557960
     24          7           0       25.080219    0.215251   -2.353813
     25          6           0       25.505164    1.235002   -3.014998
     26          6           0       26.302250    0.936403   -4.394368
     27          6           0       26.235905   -0.597952   -4.355558
     28          6           0       25.499904   -0.873729   -3.067292
     29          6           0       25.547300    1.613416   -5.596383
     30          6           0       27.601211   -1.368390   -4.423708
     31          6           0       28.490432   -1.313893   -3.158781
     32          7           0       24.018692   -1.515739   -0.353315
     33          6           0       24.458663   -2.433658   -1.335897
     34          6           0       24.231490   -3.789429   -0.817241
     35          6           0       23.678334   -3.631820    0.476219
     36          6           0       23.606048   -2.221292    0.734871
     37          6           0       24.587263   -5.112576   -1.559072
     38          6           0       23.238856   -4.354612    1.549049
     39          8           0       23.111859   -5.547956    1.733417
     40          6           0       22.830612   -3.316591    2.631420
     41          6           0       21.474665   -3.595852    3.044393
     42          8           0       20.462869   -3.141746    2.498288
     43          8           0       21.472748   -4.629439    3.988609
     44          6           0       20.121598   -5.129932    4.343552
     45          1           0       22.150485    3.772154    2.009141
     46          1           0       25.526215    3.334130   -3.430569
     47          1           0       25.493907   -2.981870   -3.165717
     48          1           0       21.043733   -0.692158    3.536986
     49          1           0       22.365391    1.945183    4.372828
     50          1           0       20.370862    2.815123    4.459035
     51          1           0       19.603179    1.351302    3.826917
     52          1           0       20.235637    2.536594    2.701525
     53          1           0       22.924688    0.185639    5.631576
     54          1           0       23.319805   -1.350314    4.791710
     55          1           0       21.680414   -1.039281    6.919355
     56          1           0       21.777642   -2.473144    5.789406
     57          1           0       23.060350    5.597227    2.002607
     58          1           0       22.565347    6.446658    0.520517
     59          1           0       24.256306    6.581262    1.106744
     60          1           0       25.111837    7.387040   -0.630019
     61          1           0       23.501679    7.379903   -1.322365
     62          1           0       24.795563    7.964315   -2.340268
     63          1           0       27.334689    1.282425   -4.339154
     64          1           0       25.519233   -0.949534   -5.098119
     65          1           0       24.487535    1.649270   -5.344120
     66          1           0       25.654130    0.968451   -6.469283
     67          1           0       25.851271    2.618068   -5.891410
     68          1           0       28.124979   -1.110018   -5.343498
     69          1           0       27.373086   -2.414671   -4.624645
     70          1           0       28.439521   -0.404179   -2.561445
     71          1           0       29.511168   -1.560907   -3.452831
     72          1           0       28.165402   -2.159494   -2.552831
     73          1           0       25.151418   -5.811783   -0.941783
     74          1           0       25.115215   -4.951729   -2.498340
     75          1           0       23.687278   -5.722057   -1.644483
     76          1           0       23.536328   -3.546632    3.428957
     77          1           0       19.678291   -5.664616    3.503884
     78          1           0       19.402123   -4.350319    4.591228
     79          1           0       20.230750   -5.657692    5.291156
     80         12           0      -23.955638    0.598666    0.568541
     81          6           0      -23.202463   -2.513142   -1.004694
     82          6           0      -20.948192    1.592714   -0.420967
     83          6           0      -24.907811    3.798802    1.091990
     84          6           0      -27.341387   -0.513486    0.564529
     85          7           0      -22.289557   -0.355777   -0.433885
     86          6           0      -22.137200   -1.669623   -0.927454
     87          6           0      -20.733383   -1.928704   -1.559535
     88          6           0      -20.025632   -0.570788   -1.289062
     89          6           0      -21.114946    0.267166   -0.586786
     90          6           0      -18.748356   -0.868326   -0.486096
     91          6           0      -20.679776   -2.339407   -3.094231
     92          6           0      -20.177160   -3.743100   -3.411315
     93          1           0      -18.979216   -3.867653   -4.374791
     94          7           0      -23.071236    2.408040    0.467570
     95          6           0      -21.769435    2.608509    0.008891
     96          6           0      -21.386306    3.951180    0.182371
     97          6           0      -22.444170    4.627111    0.761894
     98          6           0      -23.532296    3.671020    0.797127
     99          6           0      -20.008518    4.634692   -0.151389
    100          6           0      -22.366197    6.077407    1.177653
    101          8           0      -21.365660    6.730507    1.154364
    102          6           0      -23.712217    6.687967    1.809421
    103          7           0      -25.853051    1.542526    0.726888
    104          6           0      -25.959120    2.882324    0.983312
    105          6           0      -27.501463    3.238590    0.943822
    106          6           0      -28.279151    1.912355    0.910309
    107          6           0      -27.094089    0.894075    0.702144
    108          6           0      -27.946782    4.237319    1.973977
    109          6           0      -29.186663    1.886472   -0.313293
    110          6           0      -30.378502    0.967435   -0.270032
    111          7           0      -25.047474   -1.243943    0.150352
    112          6           0      -26.389552   -1.530955    0.225620
    113          6           0      -26.619656   -2.890643   -0.103631
    114          6           0      -25.382118   -3.413959   -0.547317
    115          6           0      -24.494750   -2.303286   -0.474092
    116          6           0      -27.914345   -3.597718   -0.154408
    117          6           0      -24.616630   -4.542163   -1.094668
    118          8           0      -24.993016   -5.704348   -1.297598
    119          6           0      -23.156412   -4.029955   -1.398076
    120          6           0      -22.238385   -4.652332   -0.481812
    121          8           0      -22.174233   -4.290859    0.717019
    122          8           0      -21.598574   -5.628157   -1.155789
    123          6           0      -20.448314   -6.309667   -0.501218
    124          1           0      -19.951015    1.942405   -0.697563
    125          1           0      -25.165337    4.834972    1.321594
    126          1           0      -28.339516   -0.945637    0.658258
    127          1           0      -20.220891   -2.715233   -1.005703
    128          1           0      -19.757031   -0.031411   -2.196864
    129          1           0      -18.350382    0.092900   -0.162173
    130          1           0      -17.959733   -1.395313   -1.023012
    131          1           0      -18.946715   -1.470263    0.401423
    132          1           0      -19.902532   -1.696325   -3.507126
    133          1           0      -21.639563   -2.136939   -3.569662
    134          1           0      -21.022865   -4.307323   -3.805916
    135          1           0      -19.841359   -4.218915   -2.489261
    136          1           0      -20.251965    5.490870   -0.780841
    137          1           0      -19.341586    3.965024   -0.694165
    138          1           0      -19.388675    4.899225    0.705262
    139          1           0      -23.445774    7.686242    2.155344
    140          1           0      -23.952786    5.977636    2.600763
    141          1           0      -24.394043    6.651034    0.959857
    142          1           0      -27.613475    3.739587   -0.018363
    143          1           0      -28.884585    1.674268    1.784820
    144          1           0      -28.988560    4.033037    2.219588
    145          1           0      -27.821577    5.216794    1.511973
    146          1           0      -27.309138    4.290909    2.855611
    147          1           0      -28.652025    1.668090   -1.238180
    148          1           0      -29.571357    2.875842   -0.560712
    149          1           0      -30.566188    0.561882    0.723985
    150          1           0      -30.185226    0.141437   -0.954785
    151          1           0      -31.247388    1.440618   -0.727351
    152          1           0      -28.633968   -3.172023    0.545615
    153          1           0      -27.691019   -4.631512    0.110328
    154          1           0      -28.283191   -3.451346   -1.169866
    155          1           0      -22.855000   -4.101656   -2.443128
    156          1           0      -20.561609   -7.311810   -0.917274
    157          1           0      -20.471885   -6.273617    0.587533
    158          1           0      -19.498407   -5.997010   -0.936143
 ---------------------------------------------------------------------

 SCF Done:  E(RwB97XD) =  -4070.61065970     A.U. after   19 cycles

 Excitation energies and oscillator strengths:

 Excited State   1:      Singlet-A      1.6723 eV  741.38 nm  f=0.3831  <S**2>=0.000
     309 -> 316        0.17580
     312 -> 313        0.68535
     309 <- 316        0.11223
 This state for optimization and/or second-order correction.
 Total Energy, E(TD-HF/TD-DFT) =  -4070.54920244
 Copying the excited state density for this state as the 1-particle RhoCI density.

 Excited State   2:      Singlet-A      1.7178 eV  721.75 nm  f=0.3762  <S**2>=0.000
     310 -> 315       -0.19146
     311 -> 314        0.67996
     310 <- 315       -0.11530

 Excited State   3:      Singlet-A      2.1591 eV  574.24 nm  f=0.1065  <S**2>=0.000
     310 -> 314        0.63947
     311 -> 315        0.28260

 Excited State   4:      Singlet-A      2.2043 eV  562.48 nm  f=0.1140  <S**2>=0.000
     309 -> 313        0.63531
     312 -> 316       -0.29121

 Excited State   5:      Singlet-A      3.2882 eV  377.06 nm  f=0.0022  <S**2>=0.000
     302 -> 313       -0.11861
     308 -> 313        0.66487

 The electronic state is 1-A.
 Alpha  occ. eigenvalues --  -46.96158 -46.94869 -19.31699 -19.29445 -19.24701
 Alpha  occ. eigenvalues --  -19.24584 -19.24179 -19.23886 -19.23769 -19.22503
 Alpha  occ. eigenvalues --  -14.47273 -14.47179 -14.46781 -14.46464 -14.44387
 Alpha  occ. eigenvalues --  -14.44244 -14.44172 -14.43040 -10.43326 -10.42409
 Alpha  occ. eigenvalues --  -10.39482 -10.39402 -10.39098 -10.37211 -10.36574
 Alpha  occ. eigenvalues --  -10.35996 -10.35819 -10.35709 -10.35596 -10.35511
 Alpha  occ. eigenvalues --  -10.35112 -10.35102 -10.35062 -10.34605 -10.34516
 Alpha  occ. eigenvalues --  -10.34500 -10.34158 -10.33806 -10.33699 -10.33612
 Alpha  occ. eigenvalues --  -10.33003 -10.32893 -10.32722 -10.32636 -10.32447
 Alpha  occ. eigenvalues --  -10.32413 -10.32412 -10.32197 -10.32190 -10.32134
 Alpha  occ. eigenvalues --  -10.32116 -10.32073 -10.31977 -10.31970 -10.31968
 Alpha  occ. eigenvalues --  -10.31914 -10.31803 -10.31685 -10.31645 -10.31477
 Alpha  occ. eigenvalues --  -10.31441 -10.31335 -10.31281 -10.31197 -10.31162
 Alpha  occ. eigenvalues --  -10.31158 -10.31133 -10.31059 -10.30988 -10.30965
 Alpha  occ. eigenvalues --  -10.30518 -10.30323 -10.30275 -10.30273 -10.30245
 Alpha  occ. eigenvalues --  -10.30223 -10.30055 -10.29882 -10.29806 -10.29695
 Alpha  occ. eigenvalues --  -10.29682 -10.29655 -10.29264 -10.28972 -10.28853
 Alpha  occ. eigenvalues --  -10.27837  -3.21962  -3.20908  -1.95562  -1.95115
 Alpha  occ. eigenvalues --   -1.94884  -1.94474  -1.94012  -1.93900  -1.18801
 Alpha  occ. eigenvalues --   -1.16454  -1.14230  -1.11408  -1.10873  -1.10741
 Alpha  occ. eigenvalues --   -1.09551  -1.08455  -1.08134  -1.06151  -1.05780
 Alpha  occ. eigenvalues --   -1.05238  -1.05078  -1.04844  -1.03759  -1.03680
 Alpha  occ. eigenvalues --   -0.94223  -0.94160  -0.91603  -0.91514  -0.91208
 Alpha  occ. eigenvalues --   -0.90680  -0.90279  -0.89674  -0.89285  -0.89238
 Alpha  occ. eigenvalues --   -0.88710  -0.88631  -0.88419  -0.87411  -0.86716
 Alpha  occ. eigenvalues --   -0.86227  -0.86123  -0.85230  -0.85183  -0.84444
 Alpha  occ. eigenvalues --   -0.84199  -0.83832  -0.83103  -0.82601  -0.82260
 Alpha  occ. eigenvalues --   -0.82034  -0.80337  -0.79648  -0.79472  -0.79332
 Alpha  occ. eigenvalues --   -0.78610  -0.78348  -0.78163  -0.77621  -0.77097
 Alpha  occ. eigenvalues --   -0.76947  -0.74726  -0.74500  -0.73706  -0.73543
 Alpha  occ. eigenvalues --   -0.72359  -0.71241  -0.71028  -0.70515  -0.69814
 Alpha  occ. eigenvalues --   -0.69712  -0.69236  -0.68939  -0.67651  -0.67494
 Alpha  occ. eigenvalues --   -0.67252  -0.67002  -0.66893  -0.66591  -0.66559
 Alpha  occ. eigenvalues --   -0.66216  -0.64211  -0.63387  -0.62276  -0.62184
 Alpha  occ. eigenvalues --   -0.61608  -0.61490  -0.61384  -0.60611  -0.60455
 Alpha  occ. eigenvalues --   -0.60191  -0.60099  -0.59877  -0.59520  -0.59142
 Alpha  occ. eigenvalues --   -0.58376  -0.58220  -0.57992  -0.57988  -0.57206
 Alpha  occ. eigenvalues --   -0.56962  -0.56912  -0.56618  -0.56198  -0.55766
 Alpha  occ. eigenvalues --   -0.55484  -0.55225  -0.55097  -0.54939  -0.54820
 Alpha  occ. eigenvalues --   -0.54797  -0.54495  -0.54426  -0.54356  -0.53977
 Alpha  occ. eigenvalues --   -0.53627  -0.53468  -0.53389  -0.53230  -0.53140
 Alpha  occ. eigenvalues --   -0.52720  -0.52454  -0.52450  -0.52267  -0.52076
 Alpha  occ. eigenvalues --   -0.51930  -0.51747  -0.51746  -0.51477  -0.51192
 Alpha  occ. eigenvalues --   -0.51168  -0.51134  -0.50955  -0.50880  -0.50788
 Alpha  occ. eigenvalues --   -0.50520  -0.50382  -0.50161  -0.49969  -0.49966
 Alpha  occ. eigenvalues --   -0.49882  -0.49456  -0.49429  -0.49413  -0.49232
 Alpha  occ. eigenvalues --   -0.48889  -0.48651  -0.48545  -0.48444  -0.48363
 Alpha  occ. eigenvalues --   -0.48235  -0.48098  -0.48026  -0.47735  -0.47572
 Alpha  occ. eigenvalues --   -0.47428  -0.47239  -0.47049  -0.46879  -0.46836
 Alpha  occ. eigenvalues --   -0.46679  -0.46492  -0.46237  -0.46121  -0.46066
 Alpha  occ. eigenvalues --   -0.45742  -0.45733  -0.45662  -0.45434  -0.45401
 Alpha  occ. eigenvalues --   -0.45245  -0.45137  -0.44986  -0.44711  -0.44675
 Alpha  occ. eigenvalues --   -0.44511  -0.44381  -0.44268  -0.44223  -0.43829
 Alpha  occ. eigenvalues --   -0.43787  -0.43740  -0.43575  -0.43553  -0.43549
 Alpha  occ. eigenvalues --   -0.43383  -0.43187  -0.43026  -0.42504  -0.42493
 Alpha  occ. eigenvalues --   -0.42104  -0.41996  -0.41992  -0.41687  -0.41086
 Alpha  occ. eigenvalues --   -0.41014  -0.40385  -0.40121  -0.39572  -0.39242
 Alpha  occ. eigenvalues --   -0.38889  -0.38767  -0.38653  -0.38438  -0.38034
 Alpha  occ. eigenvalues --   -0.37930  -0.37459  -0.36229  -0.36140  -0.35912
 Alpha  occ. eigenvalues --   -0.35554  -0.35314  -0.35192  -0.34019  -0.33542
 Alpha  occ. eigenvalues --   -0.33195  -0.32981  -0.32731  -0.32659  -0.32520
 Alpha  occ. eigenvalues --   -0.31938  -0.31660  -0.31058  -0.26206  -0.25742
 Alpha  occ. eigenvalues --   -0.23070  -0.23062
 Alpha virt. eigenvalues --   -0.07090  -0.06889   0.00127   0.00230   0.02196
 Alpha virt. eigenvalues --    0.02659   0.04429   0.04792   0.05450   0.05689
 Alpha virt. eigenvalues --    0.06763   0.07225   0.07230   0.08105   0.08111

 Mulliken charges:
               1
     1  Mg   0.949111
     2  C    0.012434
     3  C   -0.090556
     4  C   -0.048194
     5  C   -0.087817
     6  N   -0.314579
     7  C   -0.012953
     8  C   -0.056245
     9  C   -0.105030
    10  C    0.077726
    11  C    0.018405
    12  C    0.000289
    13  C   -0.139698
    14  H    0.031616
    15  N   -0.486322
    16  C    0.140169
    17  C   -0.180440
    18  C   -0.072183
    19  C    0.161172
    20  C    0.073106
    21  C    0.036404
    22  O   -0.261881
    23  C    0.006641
    24  N   -0.271996
    25  C    0.015665
    26  C   -0.109992
    27  C    0.029225
    28  C   -0.040079
    29  C   -0.003659
    30  C   -0.032804
    31  C   -0.036099
    32  N   -0.476706
    33  C    0.148501
    34  C   -0.175971
    35  C    0.006753
    36  C    0.138877
    37  C    0.087127
    38  C    0.031566
    39  O   -0.201453
    40  C   -0.063025
    41  C    0.266960
    42  O   -0.263271
    43  O   -0.379043
    44  C    0.150051
    45  H    0.007833
    46  H    0.029035
    47  H   -0.009072
    48  H    0.057296
    49  H    0.044923
    50  H    0.035069
    51  H    0.051798
    52  H    0.033480
    53  H    0.031607
    54  H    0.036266
    55  H    0.048477
    56  H    0.062261
    57  H    0.047840
    58  H    0.064133
    59  H    0.046261
    60  H    0.050901
    61  H    0.050333
    62  H    0.058525
    63  H    0.052396
    64  H    0.036466
    65  H    0.045565
    66  H    0.037064
    67  H    0.064070
    68  H    0.030897
    69  H    0.025080
    70  H    0.049791
    71  H    0.041219
    72  H    0.038632
    73  H    0.043750
    74  H    0.031535
    75  H    0.051145
    76  H    0.073547
    77  H    0.064639
    78  H    0.041697
    79  H    0.053740
    80  Mg   0.984583
    81  C   -0.043451
    82  C   -0.132087
    83  C   -0.102602
    84  C   -0.063434
    85  N   -0.377780
    86  C    0.011511
    87  C   -0.047409
    88  C   -0.123588
    89  C    0.121308
    90  C    0.014129
    91  C    0.012250
    92  C   -0.135696
    93  H    0.033965
    94  N   -0.504947
    95  C    0.212587
    96  C   -0.172217
    97  C   -0.054769
    98  C    0.150095
    99  C    0.105880
   100  C    0.008200
   101  O   -0.195265
   102  C   -0.027906
   103  N   -0.393404
   104  C    0.110633
   105  C   -0.081196
   106  C   -0.082606
   107  C    0.108096
   108  C    0.029368
   109  C   -0.045284
   110  C   -0.025504
   111  N   -0.385722
   112  C    0.093474
   113  C   -0.223059
   114  C    0.000649
   115  C    0.116513
   116  C    0.079573
   117  C    0.128979
   118  O   -0.222370
   119  C   -0.072516
   120  C    0.292556
   121  O   -0.279976
   122  O   -0.349485
   123  C    0.124670
   124  H   -0.016738
   125  H   -0.040298
   126  H   -0.012859
   127  H    0.028340
   128  H    0.045432
   129  H    0.027670
   130  H    0.042821
   131  H    0.043028
   132  H    0.041064
   133  H    0.048455
   134  H    0.069477
   135  H    0.032993
   136  H    0.061783
   137  H    0.011496
   138  H    0.062647
   139  H    0.058142
   140  H    0.066219
   141  H    0.068519
   142  H    0.046800
   143  H    0.038411
   144  H    0.041323
   145  H    0.031639
   146  H    0.038543
   147  H    0.030400
   148  H    0.021510
   149  H    0.036053
   150  H    0.030036
   151  H    0.032947
   152  H    0.030651
   153  H    0.066820
   154  H    0.060813
   155  H    0.055754
   156  H    0.061765
   157  H    0.085146
   158  H    0.056454
 Sum of Mulliken charges =  -0.00000

 Dipole moment (field-independent basis, Debye):
    X=              2.0757    Y=              6.0662    Z=              0.6011  Tot=              6.4396
 Quadrupole moment (field-independent basis, Debye-Ang):
   XX=           -423.6521   YY=           -546.0831   ZZ=           -487.7944
   XY=             11.8956   XZ=             13.8786   YZ=             22.0516

 Normal termination of Gaussian 16 at Sun Sep 19 05:12:09 2021.
