 Gaussian 16, Revision A.03,
 Gaussian 16:  ES64L-G16RevA.03 25-Dec-2016

 --------------------------------
 #p wB97XD/Def2SVP td=(nstates=5)
 --------------------------------

 --------------------------------
 TDDFT excited states in gaussian
 --------------------------------
 Symbolic Z-matrix:
 Charge =  0 Multiplicity = 1

                         Standard orientation:
 ---------------------------------------------------------------------
 Center     Atomic      Atomic             Coordinates (Angstroms)
 Number     Number       Type             X           Y           Z
 ---------------------------------------------------------------------
      1         12           0       -8.682261    0.436835    0.562956
      2          6           0       -7.856011   -2.052061   -1.785692
      3          6           0       -6.605315   -1.242570    2.789995
      4          6           0       -9.025722    2.949924    2.721192
      5          6           0       -9.902695    2.351522   -2.061527
      6          7           0       -7.258456   -1.369114    0.387811
      7          6           0       -7.156699   -2.325556   -0.603529
      8          6           0       -6.508040   -3.628304   -0.185053
      9          6           0       -6.127489   -3.375448    1.293283
     10          6           0       -6.659554   -1.925503    1.538835
     11          6           0       -6.726923   -4.428808    2.310961
     12          6           0       -5.237735   -4.093692   -1.027598
     13          6           0       -4.333625   -3.005470   -1.629231
     14          1           0       -2.965900   -2.718062   -0.941990
     15          7           0       -7.941596    0.784899    2.449212
     16          6           0       -7.163720   -0.037750    3.213337
     17          6           0       -6.990817    0.539229    4.553926
     18          6           0       -7.701947    1.778180    4.556335
     19          6           0       -8.260970    1.881935    3.173480
     20          6           0       -6.205817   -0.139325    5.670219
     21          6           0       -7.630083    2.700816    5.829794
     22          8           0       -6.931957    2.333398    6.764500
     23          6           0       -8.371554    4.103338    5.843870
     24          7           0       -9.239462    2.376376    0.321939
     25          6           0       -9.466363    3.215781    1.410221
     26          6           0      -10.179086    4.602377    0.928759
     27          6           0      -10.267704    4.344751   -0.671866
     28          6           0       -9.778466    2.937668   -0.795542
     29          6           0      -11.558906    4.836452    1.611299
     30          6           0       -9.415251    5.341994   -1.568009
     31          6           0      -10.103127    6.067115   -2.735071
     32          7           0       -8.981448    0.191435   -1.512946
     33          6           0       -9.471577    1.034505   -2.477135
     34          6           0       -9.393863    0.348256   -3.784029
     35          6           0       -8.858098   -0.936204   -3.498472
     36          6           0       -8.588354   -0.934371   -2.101377
     37          6           0       -9.776556    0.891816   -5.132702
     38          6           0       -8.406736   -2.179017   -4.152326
     39          8           0       -8.509369   -2.606274   -5.311540
     40          6           0       -7.915648   -3.027061   -2.988514
     41          6           0       -8.697074   -4.200791   -2.788674
     42          8           0       -9.809581   -4.169564   -2.201596
     43          8           0       -8.047085   -5.345955   -3.290133
     44          6           0       -8.640506   -6.651496   -3.019605
     45          1           0       -6.110332   -1.808852    3.581273
     46          1           0       -9.292960    3.720303    3.446943
     47          1           0      -10.357829    2.992874   -2.818550
     48          1           0       -7.319108   -4.344895   -0.308886
     49          1           0       -5.043640   -3.265789    1.299555
     50          1           0       -5.920872   -5.040565    2.716004
     51          1           0       -7.429504   -5.032717    1.736076
     52          1           0       -7.224535   -3.936357    3.147072
     53          1           0       -5.717387   -4.613736   -1.857777
     54          1           0       -4.665760   -4.813042   -0.441076
     55          1           0       -4.865970   -2.055810   -1.692157
     56          1           0       -4.150739   -3.258200   -2.672801
     57          1           0       -5.214774    0.277231    5.850392
     58          1           0       -6.251417   -1.224518    5.577837
     59          1           0       -6.732512   -0.051667    6.620326
     60          1           0       -9.384082    3.927152    5.479972
     61          1           0       -7.816848    4.770125    5.184256
     62          1           0       -8.269066    4.649667    6.781484
     63          1           0       -9.546056    5.406430    1.302907
     64          1           0      -11.325333    4.360970   -0.936009
     65          1           0      -12.324243    4.449299    0.938962
     66          1           0      -11.714950    5.874316    1.905786
     67          1           0      -11.667830    4.342649    2.576764
     68          1           0       -8.547315    4.780704   -1.915532
     69          1           0       -9.119277    6.089009   -0.831495
     70          1           0       -9.385616    6.433503   -3.469778
     71          1           0      -10.604572    6.891833   -2.229120
     72          1           0      -10.768347    5.314757   -3.159314
     73          1           0       -9.662631    1.969996   -5.023511
     74          1           0      -10.840441    0.659653   -5.180806
     75          1           0       -9.276481    0.425988   -5.982348
     76          1           0       -6.903924   -3.268761   -3.313490
     77          1           0       -9.613358   -6.862017   -3.463913
     78          1           0       -8.729251   -6.803649   -1.943530
     79          1           0       -7.878891   -7.390748   -3.268237
     80         12           0        8.656939    0.663114   -0.084608
     81          6           0        7.439488   -2.520791    0.811368
     82          6           0        5.362172    1.607597   -0.528560
     83          6           0        9.693443    3.756787   -1.089316
     84          6           0       11.808772   -0.483991    0.054570
     85          7           0        6.605787   -0.348658    0.156121
     86          6           0        6.330559   -1.612480    0.664260
     87          6           0        4.851119   -1.752606    0.961559
     88          6           0        4.202946   -0.551887    0.180985
     89          6           0        5.447365    0.274035   -0.055681
     90          6           0        3.380234   -0.937918   -1.110286
     91          6           0        4.520737   -1.639706    2.457306
     92          6           0        3.391680   -2.550055    2.952145
     93          1           0        1.939261   -2.247960    2.489230
     94          7           0        7.681803    2.457260   -0.632140
     95          6           0        6.340571    2.564484   -0.773899
     96          6           0        6.040467    3.859531   -1.292252
     97          6           0        7.256078    4.624659   -1.354733
     98          6           0        8.258250    3.611239   -1.075974
     99          6           0        4.637098    4.280978   -1.629186
    100          6           0        7.531711    6.070386   -1.768401
    101          8           0        8.650091    6.602622   -1.593757
    102          6           0        6.498056    6.929812   -2.487435
    103          7           0       10.469863    1.526095   -0.370235
    104          6           0       10.692760    2.809354   -0.860300
    105          6           0       12.161234    3.008508   -1.051990
    106          6           0       12.923902    1.699746   -0.635168
    107          6           0       11.703691    0.850038   -0.244950
    108          6           0       12.562702    3.603855   -2.435064
    109          6           0       13.924209    1.853918    0.530924
    110          6           0       15.380196    2.057406    0.069243
    111          7           0        9.498362   -1.088196    0.283993
    112          6           0       10.838480   -1.459438    0.383902
    113          6           0       11.013609   -2.891551    0.829062
    114          6           0        9.674955   -3.296320    0.956749
    115          6           0        8.810742   -2.188836    0.679160
    116          6           0       12.324837   -3.623187    1.050830
    117          6           0        8.872078   -4.457674    1.308907
    118          8           0        9.200311   -5.607608    1.603803
    119          6           0        7.376587   -3.925581    1.337010
    120          6           0        6.580690   -4.909502    0.457106
    121          8           0        6.949217   -5.402343   -0.589066
    122          8           0        5.424618   -5.280421    1.141173
    123          6           0        4.595182   -6.223883    0.391266
    124          1           0        4.310436    1.895847   -0.581803
    125          1           0       10.135068    4.708918   -1.390009
    126          1           0       12.846670   -0.807775   -0.043870
    127          1           0        4.398016   -2.670892    0.588804
    128          1           0        3.478204    0.025702    0.754843
    129          1           0        3.246688   -2.006574   -1.280782
    130          1           0        3.785422   -0.603273   -2.064940
    131          1           0        2.358373   -0.564813   -1.041582
    132          1           0        4.256413   -0.617970    2.728893
    133          1           0        5.376908   -1.934538    3.064387
    134          1           0        3.392042   -2.645007    4.037913
    135          1           0        3.566950   -3.587165    2.666922
    136          1           0        4.292453    3.439542   -2.230460
    137          1           0        4.508467    5.169245   -2.247511
    138          1           0        3.971245    4.381439   -0.772374
    139          1           0        6.075683    6.397487   -3.339846
    140          1           0        7.091050    7.796539   -2.779035
    141          1           0        5.668365    7.181539   -1.826880
    142          1           0       12.438894    3.868407   -0.441658
    143          1           0       13.421380    1.173344   -1.450753
    144          1           0       11.654406    3.698319   -3.030587
    145          1           0       13.233029    2.905983   -2.936086
    146          1           0       12.991069    4.575703   -2.187610
    147          1           0       13.760628    1.016946    1.209400
    148          1           0       13.742696    2.779545    1.077592
    149          1           0       15.392790    2.469231   -0.940077
    150          1           0       15.989759    1.159610   -0.034886
    151          1           0       15.839043    2.797577    0.725434
    152          1           0       12.764034   -3.224729    1.965569
    153          1           0       13.074455   -3.494382    0.270323
    154          1           0       12.057735   -4.672724    1.173212
    155          1           0        6.911126   -3.877052    2.321255
    156          1           0        3.852317   -5.762701   -0.260250
    157          1           0        4.131699   -6.832596    1.167511
    158          1           0        5.071504   -6.913722   -0.305379
 ---------------------------------------------------------------------

 SCF Done:  E(RwB97XD) =  -4070.63185409     A.U. after   18 cycles

 Excitation energies and oscillator strengths:

 Excited State   1:      Singlet-A      1.6480 eV  752.34 nm  f=0.3616  <S**2>=0.000
     310 -> 316       -0.19164
     311 -> 313        0.68119
     310 <- 316       -0.11849
 This state for optimization and/or second-order correction.
 Total Energy, E(TD-HF/TD-DFT) =  -4070.57129183
 Copying the excited state density for this state as the 1-particle RhoCI density.

 Excited State   2:      Singlet-A      1.6637 eV  745.22 nm  f=0.3724  <S**2>=0.000
     309 -> 315       -0.18689
     312 -> 314        0.68263
     309 <- 315       -0.11708

 Excited State   3:      Singlet-A      2.1800 eV  568.74 nm  f=0.0996  <S**2>=0.000
     310 -> 313        0.63410
     311 -> 316        0.30006

 Excited State   4:      Singlet-A      2.2612 eV  548.31 nm  f=0.0693  <S**2>=0.000
     309 -> 314        0.61490
     312 -> 315        0.33691

 Excited State   5:      Singlet-A      3.4838 eV  355.89 nm  f=0.0000  <S**2>=0.000
     312 -> 313        0.70691

 The electronic state is 1-A.
 Alpha  occ. eigenvalues --  -46.95494 -46.93952 -19.31202 -19.30978 -19.25383
 Alpha  occ. eigenvalues --  -19.25324 -19.24837 -19.24456 -19.24231 -19.24105
 Alpha  occ. eigenvalues --  -14.47506 -14.47250 -14.46864 -14.45839 -14.44768
 Alpha  occ. eigenvalues --  -14.44456 -14.44101 -14.44062 -10.44074 -10.43523
 Alpha  occ. eigenvalues --  -10.40698 -10.39823 -10.39584 -10.39067 -10.36175
 Alpha  occ. eigenvalues --  -10.36004 -10.35636 -10.35414 -10.35237 -10.35211
 Alpha  occ. eigenvalues --  -10.34865 -10.34822 -10.34798 -10.34798 -10.34761
 Alpha  occ. eigenvalues --  -10.34310 -10.34276 -10.34242 -10.34107 -10.33618
 Alpha  occ. eigenvalues --  -10.33555 -10.33300 -10.33156 -10.33073 -10.32883
 Alpha  occ. eigenvalues --  -10.32852 -10.32798 -10.32763 -10.32744 -10.32648
 Alpha  occ. eigenvalues --  -10.32591 -10.32564 -10.32541 -10.32470 -10.32400
 Alpha  occ. eigenvalues --  -10.32333 -10.32096 -10.32010 -10.31864 -10.31817
 Alpha  occ. eigenvalues --  -10.31650 -10.31625 -10.31464 -10.31275 -10.31205
 Alpha  occ. eigenvalues --  -10.31193 -10.31122 -10.30966 -10.30958 -10.30882
 Alpha  occ. eigenvalues --  -10.30869 -10.30685 -10.30613 -10.30414 -10.30278
 Alpha  occ. eigenvalues --  -10.30227 -10.30217 -10.30046 -10.29997 -10.29937
 Alpha  occ. eigenvalues --  -10.29889 -10.29683 -10.29618 -10.29494 -10.29431
 Alpha  occ. eigenvalues --  -10.29344  -3.21560  -3.20147  -1.95105  -1.94698
 Alpha  occ. eigenvalues --   -1.94535  -1.93741  -1.93251  -1.93165  -1.18452
 Alpha  occ. eigenvalues --   -1.17321  -1.12835  -1.11489  -1.11422  -1.11128
 Alpha  occ. eigenvalues --   -1.10366  -1.09398  -1.06686  -1.06359  -1.05802
 Alpha  occ. eigenvalues --   -1.05707  -1.05039  -1.04814  -1.04115  -1.03410
 Alpha  occ. eigenvalues --   -0.95335  -0.94508  -0.91259  -0.91258  -0.90952
 Alpha  occ. eigenvalues --   -0.90880  -0.90175  -0.90153  -0.89362  -0.88949
 Alpha  occ. eigenvalues --   -0.88930  -0.88214  -0.88048  -0.87739  -0.86666
 Alpha  occ. eigenvalues --   -0.86287  -0.85980  -0.85406  -0.84903  -0.84186
 Alpha  occ. eigenvalues --   -0.83777  -0.83631  -0.83145  -0.82892  -0.82258
 Alpha  occ. eigenvalues --   -0.82017  -0.80392  -0.80282  -0.79362  -0.79352
 Alpha  occ. eigenvalues --   -0.79164  -0.78916  -0.78632  -0.78057  -0.77061
 Alpha  occ. eigenvalues --   -0.76968  -0.74638  -0.74525  -0.73934  -0.73596
 Alpha  occ. eigenvalues --   -0.71470  -0.71316  -0.71078  -0.70707  -0.70571
 Alpha  occ. eigenvalues --   -0.70133  -0.69294  -0.69034  -0.67885  -0.67688
 Alpha  occ. eigenvalues --   -0.67412  -0.67397  -0.66789  -0.66451  -0.66400
 Alpha  occ. eigenvalues --   -0.66137  -0.64625  -0.64535  -0.62438  -0.62325
 Alpha  occ. eigenvalues --   -0.62113  -0.61794  -0.61228  -0.60906  -0.60847
 Alpha  occ. eigenvalues --   -0.60442  -0.59934  -0.59680  -0.59463  -0.59402
 Alpha  occ. eigenvalues --   -0.58316  -0.57996  -0.57726  -0.57427  -0.57102
 Alpha  occ. eigenvalues --   -0.57059  -0.56555  -0.56530  -0.56347  -0.55904
 Alpha  occ. eigenvalues --   -0.55720  -0.55399  -0.55178  -0.55052  -0.54789
 Alpha  occ. eigenvalues --   -0.54685  -0.54495  -0.54479  -0.54254  -0.54080
 Alpha  occ. eigenvalues --   -0.53745  -0.53720  -0.53662  -0.53352  -0.53137
 Alpha  occ. eigenvalues --   -0.53078  -0.52855  -0.52434  -0.52367  -0.52154
 Alpha  occ. eigenvalues --   -0.52141  -0.51962  -0.51692  -0.51518  -0.51451
 Alpha  occ. eigenvalues --   -0.51387  -0.51239  -0.51100  -0.50980  -0.50814
 Alpha  occ. eigenvalues --   -0.50669  -0.50473  -0.50370  -0.50274  -0.50159
 Alpha  occ. eigenvalues --   -0.49969  -0.49545  -0.49462  -0.49392  -0.49294
 Alpha  occ. eigenvalues --   -0.48758  -0.48734  -0.48576  -0.48561  -0.48426
 Alpha  occ. eigenvalues --   -0.48358  -0.48293  -0.48186  -0.47891  -0.47797
 Alpha  occ. eigenvalues --   -0.47512  -0.47422  -0.47099  -0.46931  -0.46803
 Alpha  occ. eigenvalues --   -0.46773  -0.46661  -0.46553  -0.46427  -0.46327
 Alpha  occ. eigenvalues --   -0.46262  -0.46228  -0.46069  -0.45494  -0.45380
 Alpha  occ. eigenvalues --   -0.45341  -0.45204  -0.45123  -0.45084  -0.44923
 Alpha  occ. eigenvalues --   -0.44840  -0.44607  -0.44549  -0.44369  -0.44271
 Alpha  occ. eigenvalues --   -0.44242  -0.43822  -0.43749  -0.43696  -0.43485
 Alpha  occ. eigenvalues --   -0.43161  -0.43084  -0.42942  -0.42693  -0.42367
 Alpha  occ. eigenvalues --   -0.42348  -0.42129  -0.41956  -0.41797  -0.41568
 Alpha  occ. eigenvalues --   -0.41109  -0.40570  -0.40204  -0.39851  -0.39830
 Alpha  occ. eigenvalues --   -0.39677  -0.39359  -0.39282  -0.39197  -0.38854
 Alpha  occ. eigenvalues --   -0.38835  -0.38688  -0.37115  -0.36945  -0.36938
 Alpha  occ. eigenvalues --   -0.36492  -0.35680  -0.35062  -0.33738  -0.33470
 Alpha  occ. eigenvalues --   -0.33430  -0.33214  -0.33121  -0.32912  -0.32650
 Alpha  occ. eigenvalues --   -0.32645  -0.32169  -0.31965  -0.26275  -0.25838
 Alpha  occ. eigenvalues --   -0.22852  -0.22843
 Alpha virt. eigenvalues --   -0.06880  -0.06711  -0.00092   0.00173   0.02077
 Alpha virt. eigenvalues --    0.02143   0.03881   0.03907   0.04738   0.05392
 Alpha virt. eigenvalues --    0.06816   0.07130   0.07271   0.07443   0.07474

 Mulliken charges:
               1
     1  Mg   0.987068
     2  C   -0.108845
     3  C   -0.086090
     4  C   -0.110487
     5  C   -0.095896
     6  N   -0.341935
     7  C   -0.038975
     8  C   -0.062337
     9  C   -0.058494
    10  C    0.026234
    11  C    0.027431
    12  C   -0.015114
    13  C   -0.117563
    14  H    0.033654
    15  N   -0.448614
    16  C    0.153445
    17  C   -0.157893
    18  C   -0.113512
    19  C    0.206513
    20  C    0.095235
    21  C    0.069623
    22  O   -0.226396
    23  C   -0.026057
    24  N   -0.422058
    25  C    0.079352
    26  C   -0.103177
    27  C   -0.075572
    28  C    0.085579
    29  C    0.009761
    30  C   -0.024411
    31  C   -0.038059
    32  N   -0.406533
    33  C    0.119595
    34  C   -0.211689
    35  C   -0.096225
    36  C    0.263393
    37  C    0.092553
    38  C    0.145256
    39  O   -0.217473
    40  C   -0.059414
    41  C    0.315940
    42  O   -0.277334
    43  O   -0.382360
    44  C    0.152082
    45  H   -0.009170
    46  H   -0.034820
    47  H   -0.015572
    48  H    0.049975
    49  H    0.044836
    50  H    0.043727
    51  H    0.040775
    52  H    0.046731
    53  H    0.038886
    54  H    0.048313
    55  H    0.063142
    56  H    0.056571
    57  H    0.064992
    58  H    0.023304
    59  H    0.044548
    60  H    0.073881
    61  H    0.060648
    62  H    0.053105
    63  H    0.044357
    64  H    0.036478
    65  H    0.037828
    66  H    0.038770
    67  H    0.031980
    68  H    0.047989
    69  H    0.025086
    70  H    0.051475
    71  H    0.041918
    72  H    0.037931
    73  H    0.034669
    74  H    0.055354
    75  H    0.066737
    76  H    0.059395
    77  H    0.069754
    78  H    0.033858
    79  H    0.052347
    80  Mg   1.001660
    81  C   -0.064840
    82  C   -0.110707
    83  C   -0.083554
    84  C   -0.100746
    85  N   -0.307815
    86  C    0.022401
    87  C   -0.031737
    88  C   -0.097912
    89  C    0.019088
    90  C    0.007738
    91  C    0.023205
    92  C   -0.123142
    93  H    0.016652
    94  N   -0.428053
    95  C    0.224120
    96  C   -0.180322
    97  C   -0.042846
    98  C    0.127721
    99  C    0.061751
   100  C    0.049269
   101  O   -0.257644
   102  C   -0.023884
   103  N   -0.456761
   104  C    0.109066
   105  C   -0.100375
   106  C   -0.055374
   107  C    0.059320
   108  C    0.015914
   109  C    0.000284
   110  C   -0.055615
   111  N   -0.483521
   112  C    0.140380
   113  C   -0.167353
   114  C   -0.071793
   115  C    0.182686
   116  C    0.080931
   117  C    0.161293
   118  O   -0.208792
   119  C   -0.105877
   120  C    0.266242
   121  O   -0.223723
   122  O   -0.369663
   123  C    0.126525
   124  H   -0.008530
   125  H    0.016336
   126  H   -0.010546
   127  H    0.030377
   128  H    0.040306
   129  H    0.034091
   130  H    0.042083
   131  H    0.035001
   132  H    0.041042
   133  H    0.036877
   134  H    0.048483
   135  H    0.049903
   136  H    0.046445
   137  H    0.026903
   138  H    0.058983
   139  H    0.061542
   140  H    0.063636
   141  H    0.063676
   142  H    0.042724
   143  H    0.042904
   144  H    0.043728
   145  H    0.034104
   146  H    0.043531
   147  H    0.037004
   148  H    0.027989
   149  H    0.024569
   150  H    0.041140
   151  H    0.040855
   152  H    0.050471
   153  H    0.047714
   154  H    0.066066
   155  H    0.072783
   156  H    0.043192
   157  H    0.055145
   158  H    0.065279
 Sum of Mulliken charges =  -0.00000

 Dipole moment (field-independent basis, Debye):
    X=             -4.1334    Y=              4.2253    Z=              1.6530  Tot=              6.1377
 Quadrupole moment (field-independent basis, Debye-Ang):
   XX=           -502.9102   YY=           -502.1173   ZZ=           -546.3780
   XY=             -3.7836   XZ=            -25.4054   YZ=            -15.1736

 Normal termination of Gaussian 16 at Sun Sep 19 17:10:55 2021.
