 Gaussian 16, Revision A.03,
 Gaussian 16:  ES64L-G16RevA.03 25-Dec-2016

 --------------------------------
 #p wB97XD/Def2SVP td=(nstates=5)
 --------------------------------

 --------------------------------
 TDDFT excited states in gaussian
 --------------------------------
 Symbolic Z-matrix:
 Charge =  0 Multiplicity = 1

                         Standard orientation:
 ---------------------------------------------------------------------
 Center     Atomic      Atomic             Coordinates (Angstroms)
 Number     Number       Type             X           Y           Z
 ---------------------------------------------------------------------
      1         12           0       -0.708213    0.186847    0.189168
      2          6           0        2.732600    0.095258    0.308901
      3          6           0       -0.703454   -3.385325    0.277750
      4          6           0       -3.954609    0.174406   -0.283514
      5          6           0       -0.649670    3.664740   -0.064560
      6          7           0        0.885763   -1.382424    0.290282
      7          6           0        2.205050   -1.183384    0.364046
      8          6           0        2.915087   -2.563654    0.552132
      9          6           0        1.752801   -3.647936    0.395052
     10          6           0        0.521264   -2.732300    0.255945
     11          6           0        1.775996   -4.506920   -0.854647
     12          6           0        3.746455   -2.691429    1.837494
     13          6           0        5.151896   -3.187334    1.541681
     14          1           0        5.957845   -3.960303    2.595760
     15          7           0       -2.124744   -1.396912    0.102391
     16          6           0       -1.963116   -2.748625    0.203861
     17          6           0       -3.177495   -3.433092    0.162654
     18          6           0       -4.176382   -2.439222   -0.126798
     19          6           0       -3.436622   -1.130172   -0.100339
     20          6           0       -3.314608   -4.939406    0.330257
     21          6           0       -5.651146   -2.628853   -0.442172
     22          8           0       -6.305429   -1.642942   -0.833634
     23          6           0       -6.292080   -3.956150   -0.413363
     24          7           0       -2.045987    1.693378   -0.087856
     25          6           0       -3.403097    1.474954   -0.207541
     26          6           0       -4.259947    2.777850   -0.420307
     27          6           0       -3.162432    3.866785   -0.056488
     28          6           0       -1.863700    3.040460   -0.088147
     29          6           0       -4.957710    3.090915   -1.802532
     30          6           0       -3.408129    4.802800    1.212708
     31          6           0       -3.138236    4.166454    2.550591
     32          7           0        0.674266    1.606116   -0.006814
     33          6           0        0.608167    2.982949   -0.104778
     34          6           0        1.881477    3.576670   -0.151197
     35          6           0        2.722140    2.475214    0.046508
     36          6           0        1.957153    1.275895    0.136599
     37          6           0        2.066310    5.032669   -0.220860
     38          6           0        4.102836    2.178601    0.058763
     39          8           0        5.041542    2.952104   -0.141107
     40          6           0        4.219758    0.578636    0.262282
     41          6           0        4.977076    0.014022   -0.840849
     42          8           0        4.591451   -0.153324   -1.975259
     43          8           0        6.233336   -0.206837   -0.473635
     44          6           0        7.177835   -0.648339   -1.454863
     45          1           0       -0.689199   -4.476560    0.253168
     46          1           0       -5.022401    0.328786   -0.450244
     47          1           0       -0.676512    4.753246   -0.148122
     48          1           0        3.533684   -2.581275   -0.344591
     49          1           0        1.901261   -4.346119    1.219584
     50          1           0        2.656750   -4.369963   -1.482751
     51          1           0        0.934340   -4.255398   -1.499420
     52          1           0        1.573769   -5.545874   -0.592553
     53          1           0        3.306959   -3.323625    2.609230
     54          1           0        3.788230   -1.705646    2.300134
     55          1           0        5.757737   -2.291953    1.397933
     56          1           0        5.068470   -3.803599    0.646692
     57          1           0       -2.391989   -5.389778    0.696516
     58          1           0       -3.437764   -5.390747   -0.654481
     59          1           0       -4.209228   -5.191505    0.898420
     60          1           0       -7.202798   -3.960073   -1.013323
     61          1           0       -6.599442   -4.135372    0.617399
     62          1           0       -5.607877   -4.715937   -0.790335
     63          1           0       -4.995915    2.923197    0.371111
     64          1           0       -3.156054    4.623129   -0.840357
     65          1           0       -4.740492    2.263577   -2.476975
     66          1           0       -4.413725    3.897701   -2.295339
     67          1           0       -6.024916    3.314525   -1.805177
     68          1           0       -4.474754    5.025968    1.215934
     69          1           0       -2.916012    5.772713    1.151592
     70          1           0       -2.798135    4.961385    3.213387
     71          1           0       -2.469826    3.311272    2.642374
     72          1           0       -4.090534    3.762587    2.894312
     73          1           0        1.318692    5.677913    0.239775
     74          1           0        2.360945    5.432258   -1.190481
     75          1           0        2.992555    5.146077    0.341871
     76          1           0        4.749423    0.402247    1.198268
     77          1           0        7.212578   -1.735233   -1.537698
     78          1           0        8.162678   -0.340324   -1.104187
     79          1           0        6.919111   -0.235417   -2.429998
 ---------------------------------------------------------------------

 SCF Done:  E(RwB97XD) =  -2035.31875438     A.U. after   20 cycles

 Excitation energies and oscillator strengths:

 Excited State   1:      Singlet-A      1.6476 eV  752.52 nm  f=0.4148  <S**2>=0.000
     155 ->158         0.17819
     156 ->157         0.68443
     155 <-158         0.11442
 This state for optimization and/or second-order correction.
 Total Energy, E(TD-HF/TD-DFT) =  -2035.25820653
 Copying the excited state density for this state as the 1-particle RhoCI density.

 Excited State   2:      Singlet-A      2.1651 eV  572.66 nm  f=0.1560  <S**2>=0.000
     155 ->157         0.65109
     156 ->158        -0.25702

 Excited State   3:      Singlet-A      3.3544 eV  369.61 nm  f=0.0031  <S**2>=0.000
     153 ->159        -0.10691
     154 ->157         0.67501

 Excited State   4:      Singlet-A      3.4381 eV  360.62 nm  f=0.0029  <S**2>=0.000
     152 ->157         0.36116
     152 ->159        -0.20919
     152 ->160         0.15877
     153 ->157         0.48743
     154 ->159        -0.11898
     156 ->158         0.10124

 Excited State   5:      Singlet-A      3.5280 eV  351.43 nm  f=0.0120  <S**2>=0.000
     152 ->157         0.48837
     152 ->159        -0.11722
     153 ->157        -0.39524
     156 ->158        -0.22747

 The electronic state is 1-A.
 Alpha  occ. eigenvalues --  -46.94043 -19.30017 -19.23656 -19.23541 -19.23302
 Alpha  occ. eigenvalues --  -14.46903 -14.46792 -14.44327 -14.43567 -10.42096
 Alpha  occ. eigenvalues --  -10.38850 -10.38531 -10.35567 -10.35247 -10.35165
 Alpha  occ. eigenvalues --  -10.34930 -10.34810 -10.34145 -10.33420 -10.33056
 Alpha  occ. eigenvalues --  -10.32984 -10.32618 -10.32488 -10.32442 -10.32410
 Alpha  occ. eigenvalues --  -10.32309 -10.32023 -10.31744 -10.31651 -10.31640
 Alpha  occ. eigenvalues --  -10.31628 -10.31393 -10.31239 -10.30724 -10.30527
 Alpha  occ. eigenvalues --  -10.30300 -10.30265 -10.30177 -10.30028 -10.29627
 Alpha  occ. eigenvalues --  -10.29429 -10.28771 -10.28672  -3.20234  -1.93829
 Alpha  occ. eigenvalues --   -1.93382  -1.93213  -1.20099  -1.11088  -1.10731
 Alpha  occ. eigenvalues --   -1.09961  -1.06611  -1.05759  -1.05336  -1.04587
 Alpha  occ. eigenvalues --   -0.94050  -0.91282  -0.90652  -0.90212  -0.89585
 Alpha  occ. eigenvalues --   -0.89450  -0.88733  -0.86525  -0.85756  -0.84838
 Alpha  occ. eigenvalues --   -0.84330  -0.83150  -0.82571  -0.80318  -0.79256
 Alpha  occ. eigenvalues --   -0.78836  -0.77886  -0.77219  -0.75442  -0.73427
 Alpha  occ. eigenvalues --   -0.71563  -0.70834  -0.69751  -0.69092  -0.67343
 Alpha  occ. eigenvalues --   -0.66922  -0.66574  -0.66355  -0.64303  -0.62425
 Alpha  occ. eigenvalues --   -0.61991  -0.60997  -0.60499  -0.60307  -0.59670
 Alpha  occ. eigenvalues --   -0.58508  -0.58099  -0.57100  -0.56591  -0.56298
 Alpha  occ. eigenvalues --   -0.55457  -0.55135  -0.54705  -0.54454  -0.54240
 Alpha  occ. eigenvalues --   -0.54021  -0.53676  -0.53285  -0.52276  -0.52220
 Alpha  occ. eigenvalues --   -0.51933  -0.51607  -0.51422  -0.51161  -0.51080
 Alpha  occ. eigenvalues --   -0.50872  -0.50330  -0.50068  -0.49714  -0.49291
 Alpha  occ. eigenvalues --   -0.48813  -0.48457  -0.48314  -0.47951  -0.47443
 Alpha  occ. eigenvalues --   -0.47351  -0.47060  -0.46864  -0.46519  -0.46299
 Alpha  occ. eigenvalues --   -0.45842  -0.45565  -0.45440  -0.45204  -0.44614
 Alpha  occ. eigenvalues --   -0.44489  -0.43925  -0.43526  -0.43426  -0.43336
 Alpha  occ. eigenvalues --   -0.43014  -0.42911  -0.42384  -0.41113  -0.40864
 Alpha  occ. eigenvalues --   -0.40107  -0.39663  -0.39172  -0.38633  -0.38336
 Alpha  occ. eigenvalues --   -0.38116  -0.36232  -0.35799  -0.35386  -0.33675
 Alpha  occ. eigenvalues --   -0.32721  -0.32556  -0.32224  -0.31947  -0.26049
 Alpha  occ. eigenvalues --   -0.23292
 Alpha virt. eigenvalues --   -0.07468   0.00494   0.02531   0.04579   0.06212
 Alpha virt. eigenvalues --    0.07921   0.08243   0.08969   0.09473   0.10785
 Alpha virt. eigenvalues --    0.11584   0.11943   0.12429   0.13481   0.13970

 Mulliken charges:
               1
     1  Mg   0.992183
     2  C   -0.044746
     3  C   -0.105304
     4  C   -0.051514
     5  C   -0.104016
     6  N   -0.349898
     7  C   -0.028277
     8  C   -0.021295
     9  C   -0.162818
    10  C    0.116174
    11  C    0.006212
    12  C    0.037865
    13  C   -0.145946
    14  H    0.028845
    15  N   -0.425419
    16  C    0.160180
    17  C   -0.175143
    18  C   -0.074122
    19  C    0.171386
    20  C    0.066488
    21  C    0.038180
    22  O   -0.260160
    23  C    0.004507
    24  N   -0.396023
    25  C    0.027629
    26  C   -0.070107
    27  C   -0.076103
    28  C    0.087055
    29  C    0.029245
    30  C   -0.031241
    31  C   -0.058215
    32  N   -0.470255
    33  C    0.132143
    34  C   -0.134401
    35  C   -0.038021
    36  C    0.195330
    37  C    0.072331
    38  C    0.096115
    39  O   -0.219390
    40  C   -0.078105
    41  C    0.235377
    42  O   -0.251485
    43  O   -0.328047
    44  C    0.135820
    45  H   -0.002072
    46  H    0.021864
    47  H   -0.004708
    48  H    0.033198
    49  H    0.042979
    50  H    0.043830
    51  H    0.040409
    52  H    0.035200
    53  H    0.039562
    54  H    0.030035
    55  H    0.063247
    56  H    0.056141
    57  H    0.042405
    58  H    0.057057
    59  H    0.056375
    60  H    0.055875
    61  H    0.067041
    62  H    0.045046
    63  H    0.038406
    64  H    0.027412
    65  H    0.039885
    66  H    0.027330
    67  H    0.056780
    68  H    0.029189
    69  H    0.032962
    70  H    0.037796
    71  H    0.047627
    72  H    0.028750
    73  H    0.046020
    74  H    0.055591
    75  H    0.045403
    76  H    0.065542
    77  H    0.042558
    78  H    0.055547
    79  H    0.066706
 Sum of Mulliken charges =  -0.00000

 Dipole moment (field-independent basis, Debye):
    X=             -2.3724    Y=             -2.9164    Z=              2.3010  Tot=              4.4077
 Quadrupole moment (field-independent basis, Debye-Ang):
   XX=           -266.6415   YY=           -218.2748   ZZ=           -259.8503
   XY=            -17.8672   XZ=             -3.4299   YZ=              0.5865

 Normal termination of Gaussian 16 at Sun Sep 19 16:45:42 2021.
