 Gaussian 16, Revision A.03,
 Gaussian 16:  ES64L-G16RevA.03 25-Dec-2016

 --------------------------------
 #p wB97XD/Def2SVP td=(nstates=5)
 --------------------------------

 --------------------------------
 TDDFT excited states in gaussian
 --------------------------------
 Symbolic Z-matrix:
 Charge =  0 Multiplicity = 1

                         Standard orientation:
 ---------------------------------------------------------------------
 Center     Atomic      Atomic             Coordinates (Angstroms)
 Number     Number       Type             X           Y           Z
 ---------------------------------------------------------------------
      1         12           0      -31.360859   -0.622915   -0.279158
      2          6           0      -28.358395    1.472769   -0.521922
      3          6           0      -29.288987   -2.892355    1.313535
      4          6           0      -34.015200   -1.957302    0.880047
      5          6           0      -33.122822    2.227099   -1.577111
      6          7           0      -29.011740   -0.582491    0.452130
      7          6           0      -28.013527    0.341933    0.234706
      8          6           0      -26.706662   -0.118621    0.978186
      9          6           0      -26.948693   -1.603620    1.299750
     10          6           0      -28.494399   -1.708533    1.010509
     11          6           0      -26.175789   -2.698436    0.453060
     12          6           0      -26.340649    0.768198    2.217328
     13          6           0      -24.870303    1.062193    2.423390
     14          1           0      -24.136291    0.233195    3.523640
     15          7           0      -31.638951   -2.251916    0.810029
     16          6           0      -30.704223   -3.127451    1.291950
     17          6           0      -31.379596   -4.237139    2.018762
     18          6           0      -32.762911   -3.940013    1.907326
     19          6           0      -32.847963   -2.655964    1.216004
     20          6           0      -30.709000   -5.387915    2.786701
     21          6           0      -33.945401   -4.636814    2.586529
     22          8           0      -33.702224   -5.650892    3.235079
     23          6           0      -35.289007   -4.220133    2.495486
     24          7           0      -33.302724    0.216277   -0.124781
     25          6           0      -34.251593   -0.735771    0.191071
     26          6           0      -35.675040   -0.124203   -0.107410
     27          6           0      -35.354806    1.332665   -0.599769
     28          6           0      -33.836804    1.211646   -0.875320
     29          6           0      -36.560163   -0.929781   -1.097676
     30          6           0      -35.728167    2.554355    0.333183
     31          6           0      -37.190753    3.031677    0.349418
     32          7           0      -30.930920    1.433293   -0.984201
     33          6           0      -31.735402    2.380138   -1.586088
     34          6           0      -30.967045    3.479822   -2.117250
     35          6           0      -29.613568    3.152738   -1.730599
     36          6           0      -29.591071    1.923280   -0.983900
     37          6           0      -31.564107    4.671510   -2.800165
     38          6           0      -28.307579    3.641176   -1.741880
     39          8           0      -27.860376    4.733633   -2.063919
     40          6           0      -27.456546    2.674961   -0.867875
     41          6           0      -26.327853    2.240276   -1.773345
     42          8           0      -25.141088    2.260790   -1.437550
     43          8           0      -26.733214    1.630042   -3.028061
     44          6           0      -25.637156    0.915646   -3.680609
     45          1           0      -28.646333   -3.657199    1.753395
     46          1           0      -35.004712   -2.386588    1.050416
     47          1           0      -33.786587    2.969439   -2.025026
     48          1           0      -25.896838   -0.172155    0.249174
     49          1           0      -26.842665   -1.810236    2.364718
     50          1           0      -25.415266   -3.082759    1.132440
     51          1           0      -25.650579   -2.247307   -0.388307
     52          1           0      -26.795969   -3.482154    0.018140
     53          1           0      -26.569040    0.316768    3.183146
     54          1           0      -26.819802    1.744334    2.139002
     55          1           0      -24.780446    2.138808    2.568164
     56          1           0      -24.355925    0.827051    1.491060
     57          1           0      -31.257517   -6.314512    2.615363
     58          1           0      -30.712094   -5.045855    3.821568
     59          1           0      -29.701262   -5.570503    2.416054
     60          1           0      -35.613737   -4.354585    1.463211
     61          1           0      -35.485055   -3.217645    2.875986
     62          1           0      -35.754687   -4.876358    3.231547
     63          1           0      -36.300271   -0.016606    0.778303
     64          1           0      -35.784579    1.522541   -1.583007
     65          1           0      -36.795330   -0.231207   -1.900785
     66          1           0      -37.472012   -1.223391   -0.578588
     67          1           0      -35.923529   -1.768912   -1.380794
     68          1           0      -35.094590    3.358428   -0.042600
     69          1           0      -35.544356    2.315312    1.380850
     70          1           0      -37.619745    2.386887   -0.418135
     71          1           0      -37.280973    4.042552   -0.050749
     72          1           0      -37.735158    2.934014    1.288353
     73          1           0      -32.267990    5.089877   -2.081906
     74          1           0      -32.186343    4.415159   -3.657420
     75          1           0      -30.847168    5.478959   -2.949388
     76          1           0      -27.036279    3.270976   -0.058016
     77          1           0      -26.275348    0.226124   -4.234511
     78          1           0      -24.901235    0.548249   -2.965420
     79          1           0      -25.217563    1.605502   -4.412929
     80         12           0       30.406440    0.423253    0.484448
     81          6           0       30.889440   -2.297898   -1.539807
     82          6           0       28.667195    1.937088   -1.940979
     83          6           0       30.228048    3.116400    2.503926
     84          6           0       32.729673   -1.052328    2.860268
     85          7           0       30.077281   -0.053410   -1.654787
     86          6           0       30.252297   -1.247214   -2.234237
     87          6           0       29.625670   -1.255931   -3.721838
     88          6           0       28.929246    0.156132   -3.729287
     89          6           0       29.262906    0.780857   -2.359550
     90          6           0       29.284643    1.015741   -4.957992
     91          6           0       28.646277   -2.435160   -3.983602
     92          6           0       27.709983   -2.357987   -5.233526
     93          1           0       28.093350   -3.228229   -6.490109
     94          7           0       29.594836    2.308730    0.281375
     95          6           0       28.842965    2.708156   -0.723174
     96          6           0       28.360178    4.050574   -0.436791
     97          6           0       28.879777    4.497350    0.815279
     98          6           0       29.603406    3.286462    1.261232
     99          6           0       27.569724    4.926963   -1.394274
    100          6           0       28.780765    5.852231    1.508511
    101          8           0       29.529417    6.145013    2.436319
    102          6           0       27.757146    6.824498    1.036245
    103          7           0       31.391666    0.967381    2.396934
    104          6           0       31.103951    2.101741    3.024043
    105          6           0       31.708174    2.150208    4.437219
    106          6           0       32.286943    0.742133    4.548834
    107          6           0       32.152714    0.208898    3.171381
    108          6           0       32.701430    3.276709    4.758929
    109          6           0       31.756160   -0.051771    5.715598
    110          6           0       32.805104   -0.462721    6.809612
    111          7           0       31.512827   -1.284438    0.682547
    112          6           0       32.348974   -1.809661    1.724173
    113          6           0       32.769735   -3.160791    1.425070
    114          6           0       32.175555   -3.348963    0.146186
    115          6           0       31.460284   -2.208098   -0.239029
    116          6           0       33.471233   -4.182754    2.248354
    117          6           0       31.931964   -4.420703   -0.785991
    118          8           0       32.126829   -5.645247   -0.766653
    119          6           0       31.221428   -3.822885   -1.974525
    120          6           0       32.214176   -3.763664   -3.156401
    121          8           0       33.406812   -3.423376   -3.127217
    122          8           0       31.541714   -4.151331   -4.277139
    123          6           0       32.307208   -4.212330   -5.562536
    124          1           0       27.985107    2.484080   -2.595221
    125          1           0       30.390468    4.000928    3.123353
    126          1           0       33.306730   -1.486806    3.678537
    127          1           0       30.501205   -1.272609   -4.369869
    128          1           0       27.852289   -0.011344   -3.716392
    129          1           0       28.358421    1.477502   -5.298296
    130          1           0       29.654116    0.410760   -5.786066
    131          1           0       30.022161    1.776182   -4.700998
    132          1           0       27.926373   -2.389732   -3.166444
    133          1           0       29.202317   -3.368597   -4.070131
    134          1           0       27.788733   -1.342261   -5.622443
    135          1           0       26.707645   -2.665252   -4.937180
    136          1           0       27.368881    4.410202   -2.332715
    137          1           0       28.136030    5.831975   -1.612817
    138          1           0       26.617219    5.238298   -0.967311
    139          1           0       26.827840    6.256309    0.986870
    140          1           0       27.832774    7.352323    0.086056
    141          1           0       27.627208    7.664897    1.717263
    142          1           0       30.884781    2.258662    5.142342
    143          1           0       33.353715    0.848625    4.744903
    144          1           0       32.449750    3.564518    5.779377
    145          1           0       32.629929    4.074678    4.019997
    146          1           0       33.749278    2.998097    4.647611
    147          1           0       31.443015   -0.992017    5.262864
    148          1           0       30.945483    0.443710    6.249050
    149          1           0       33.797600   -0.113271    6.523873
    150          1           0       32.826446   -1.552479    6.841505
    151          1           0       32.554686   -0.173792    7.830453
    152          1           0       33.554918   -3.840723    3.279576
    153          1           0       34.494328   -4.194831    1.874318
    154          1           0       32.864961   -5.084065    2.147061
    155          1           0       30.399372   -4.512584   -2.166875
    156          1           0       32.933754   -3.344765   -5.771030
    157          1           0       31.695991   -4.416492   -6.441024
    158          1           0       33.015354   -5.031090   -5.436154
 ---------------------------------------------------------------------

 SCF Done:  E(RwB97XD) =  -4070.55945116     A.U. after   20 cycles

 Excitation energies and oscillator strengths:

 Excited State   1:      Singlet-A      1.6636 eV  745.27 nm  f=0.3841  <S**2>=0.000
     310 -> 316        0.18162
     312 -> 314        0.68132
     310 <- 316        0.11247
 This state for optimization and/or second-order correction.
 Total Energy, E(TD-HF/TD-DFT) =  -4070.49831465
 Copying the excited state density for this state as the 1-particle RhoCI density.

 Excited State   2:      Singlet-A      1.6686 eV  743.05 nm  f=0.3692  <S**2>=0.000
     309 -> 315        0.20204
     311 -> 313        0.67681
     309 <- 315        0.11952

 Excited State   3:      Singlet-A      2.1895 eV  566.27 nm  f=0.0673  <S**2>=0.000
     309 -> 313        0.61433
     311 -> 315       -0.33151

 Excited State   4:      Singlet-A      2.2222 eV  557.93 nm  f=0.1094  <S**2>=0.000
     310 -> 314        0.63694
     312 -> 316       -0.28925

 Excited State   5:      Singlet-A      3.2143 eV  385.72 nm  f=0.0157  <S**2>=0.000
     308 -> 313        0.61820
     308 -> 317        0.12003
     311 -> 315        0.24317

 The electronic state is 1-A.
 Alpha  occ. eigenvalues --  -46.97111 -46.95522 -19.30824 -19.28952 -19.25046
 Alpha  occ. eigenvalues --  -19.24567 -19.24382 -19.23844 -19.22913 -19.22729
 Alpha  occ. eigenvalues --  -14.47359 -14.46651 -14.46578 -14.46257 -14.45429
 Alpha  occ. eigenvalues --  -14.44673 -14.43873 -14.43755 -10.43399 -10.43287
 Alpha  occ. eigenvalues --  -10.40067 -10.38906 -10.37500 -10.37341 -10.36424
 Alpha  occ. eigenvalues --  -10.35978 -10.35912 -10.35712 -10.35659 -10.35618
 Alpha  occ. eigenvalues --  -10.35470 -10.35017 -10.34990 -10.34507 -10.34476
 Alpha  occ. eigenvalues --  -10.34424 -10.34338 -10.34016 -10.33968 -10.33886
 Alpha  occ. eigenvalues --  -10.33378 -10.33332 -10.33247 -10.33078 -10.32993
 Alpha  occ. eigenvalues --  -10.32914 -10.32780 -10.32724 -10.32692 -10.32457
 Alpha  occ. eigenvalues --  -10.32423 -10.32386 -10.32312 -10.32289 -10.32174
 Alpha  occ. eigenvalues --  -10.32146 -10.32125 -10.32115 -10.31794 -10.31653
 Alpha  occ. eigenvalues --  -10.31605 -10.31566 -10.31411 -10.31039 -10.30961
 Alpha  occ. eigenvalues --  -10.30885 -10.30861 -10.30787 -10.30745 -10.30712
 Alpha  occ. eigenvalues --  -10.30703 -10.30630 -10.30597 -10.30524 -10.30394
 Alpha  occ. eigenvalues --  -10.30233 -10.30177 -10.30131 -10.30108 -10.30049
 Alpha  occ. eigenvalues --  -10.30028 -10.29663 -10.29530 -10.29498 -10.29268
 Alpha  occ. eigenvalues --  -10.28421  -3.23014  -3.21490  -1.96539  -1.96180
 Alpha  occ. eigenvalues --   -1.95934  -1.95070  -1.94603  -1.94473  -1.17712
 Alpha  occ. eigenvalues --   -1.16097  -1.12698  -1.12604  -1.11208  -1.10176
 Alpha  occ. eigenvalues --   -1.08711  -1.08566  -1.07721  -1.07122  -1.06398
 Alpha  occ. eigenvalues --   -1.05896  -1.05376  -1.05367  -1.04974  -1.03102
 Alpha  occ. eigenvalues --   -0.94889  -0.93228  -0.91767  -0.90910  -0.90837
 Alpha  occ. eigenvalues --   -0.90575  -0.90419  -0.90090  -0.89488  -0.89072
 Alpha  occ. eigenvalues --   -0.88998  -0.88939  -0.88899  -0.87869  -0.86939
 Alpha  occ. eigenvalues --   -0.86096  -0.85782  -0.85614  -0.85210  -0.84497
 Alpha  occ. eigenvalues --   -0.84273  -0.84049  -0.83129  -0.83022  -0.81992
 Alpha  occ. eigenvalues --   -0.81863  -0.80484  -0.80255  -0.79463  -0.79293
 Alpha  occ. eigenvalues --   -0.78974  -0.78656  -0.78002  -0.77782  -0.77274
 Alpha  occ. eigenvalues --   -0.77245  -0.74842  -0.74620  -0.73935  -0.73652
 Alpha  occ. eigenvalues --   -0.71352  -0.71115  -0.71051  -0.70566  -0.69728
 Alpha  occ. eigenvalues --   -0.69686  -0.69566  -0.69017  -0.67762  -0.67528
 Alpha  occ. eigenvalues --   -0.67344  -0.67016  -0.66882  -0.66402  -0.66048
 Alpha  occ. eigenvalues --   -0.65892  -0.64608  -0.63903  -0.62720  -0.62431
 Alpha  occ. eigenvalues --   -0.61827  -0.61610  -0.61279  -0.60924  -0.60858
 Alpha  occ. eigenvalues --   -0.60606  -0.59969  -0.59356  -0.59203  -0.59014
 Alpha  occ. eigenvalues --   -0.58685  -0.58299  -0.57630  -0.57607  -0.57069
 Alpha  occ. eigenvalues --   -0.56766  -0.56453  -0.56313  -0.56050  -0.55853
 Alpha  occ. eigenvalues --   -0.55699  -0.55671  -0.55492  -0.55334  -0.55244
 Alpha  occ. eigenvalues --   -0.54866  -0.54726  -0.54470  -0.54456  -0.54103
 Alpha  occ. eigenvalues --   -0.53924  -0.53696  -0.53612  -0.53436  -0.53113
 Alpha  occ. eigenvalues --   -0.53035  -0.52986  -0.52635  -0.52538  -0.52438
 Alpha  occ. eigenvalues --   -0.51849  -0.51832  -0.51815  -0.51721  -0.51588
 Alpha  occ. eigenvalues --   -0.51525  -0.51263  -0.51119  -0.50982  -0.50916
 Alpha  occ. eigenvalues --   -0.50870  -0.50580  -0.50468  -0.50351  -0.50114
 Alpha  occ. eigenvalues --   -0.50104  -0.49913  -0.49745  -0.49681  -0.49607
 Alpha  occ. eigenvalues --   -0.49256  -0.49225  -0.48721  -0.48674  -0.48486
 Alpha  occ. eigenvalues --   -0.48310  -0.48061  -0.48061  -0.47869  -0.47867
 Alpha  occ. eigenvalues --   -0.47333  -0.46921  -0.46898  -0.46662  -0.46624
 Alpha  occ. eigenvalues --   -0.46457  -0.46423  -0.46335  -0.46316  -0.46050
 Alpha  occ. eigenvalues --   -0.46040  -0.45921  -0.45762  -0.45741  -0.45580
 Alpha  occ. eigenvalues --   -0.45522  -0.45172  -0.44828  -0.44703  -0.44574
 Alpha  occ. eigenvalues --   -0.44402  -0.44277  -0.44162  -0.44059  -0.43962
 Alpha  occ. eigenvalues --   -0.43925  -0.43882  -0.43745  -0.43442  -0.43439
 Alpha  occ. eigenvalues --   -0.43273  -0.43089  -0.42709  -0.42336  -0.42185
 Alpha  occ. eigenvalues --   -0.42138  -0.41846  -0.41233  -0.41175  -0.40976
 Alpha  occ. eigenvalues --   -0.40794  -0.40169  -0.39828  -0.39772  -0.39633
 Alpha  occ. eigenvalues --   -0.39181  -0.39167  -0.38672  -0.38304  -0.38195
 Alpha  occ. eigenvalues --   -0.37873  -0.37361  -0.36563  -0.36258  -0.35981
 Alpha  occ. eigenvalues --   -0.35954  -0.35558  -0.35285  -0.33912  -0.33856
 Alpha  occ. eigenvalues --   -0.33543  -0.33319  -0.33222  -0.32778  -0.32135
 Alpha  occ. eigenvalues --   -0.31943  -0.31805  -0.30884  -0.26418  -0.25827
 Alpha  occ. eigenvalues --   -0.23285  -0.22908
 Alpha virt. eigenvalues --   -0.07153  -0.06891  -0.00820   0.00164   0.01861
 Alpha virt. eigenvalues --    0.02637   0.03624   0.04302   0.04624   0.05083
 Alpha virt. eigenvalues --    0.06799   0.06962   0.07490   0.07840   0.08131

 Mulliken charges:
               1
     1  Mg   0.966531
     2  C   -0.023679
     3  C   -0.063193
     4  C   -0.092041
     5  C   -0.100983
     6  N   -0.282695
     7  C   -0.034140
     8  C    0.018352
     9  C   -0.119640
    10  C   -0.008124
    11  C    0.015369
    12  C    0.017530
    13  C   -0.125803
    14  H    0.022197
    15  N   -0.499470
    16  C    0.163090
    17  C   -0.190096
    18  C   -0.055678
    19  C    0.215185
    20  C    0.096961
    21  C    0.017765
    22  O   -0.245747
    23  C    0.020155
    24  N   -0.384835
    25  C    0.048405
    26  C   -0.125763
    27  C   -0.090043
    28  C    0.045051
    29  C    0.037753
    30  C   -0.003810
    31  C   -0.042743
    32  N   -0.423583
    33  C    0.155328
    34  C   -0.159588
    35  C   -0.021065
    36  C    0.159039
    37  C    0.093646
    38  C    0.074450
    39  O   -0.216362
    40  C   -0.098777
    41  C    0.286642
    42  O   -0.256820
    43  O   -0.417828
    44  C    0.139236
    45  H   -0.001285
    46  H   -0.023738
    47  H   -0.001918
    48  H    0.034650
    49  H    0.044269
    50  H    0.048561
    51  H    0.036634
    52  H    0.049377
    53  H    0.048461
    54  H    0.043923
    55  H    0.057355
    56  H    0.052604
    57  H    0.068264
    58  H    0.069352
    59  H    0.030872
    60  H    0.075435
    61  H    0.064007
    62  H    0.054832
    63  H    0.035902
    64  H    0.019939
    65  H    0.037853
    66  H    0.042238
    67  H    0.042229
    68  H    0.028939
    69  H    0.036390
    70  H    0.015409
    71  H    0.040189
    72  H    0.050258
    73  H    0.034109
    74  H    0.047810
    75  H    0.062810
    76  H    0.072074
    77  H    0.050730
    78  H    0.068740
    79  H    0.052544
    80  Mg   0.970485
    81  C   -0.074899
    82  C   -0.078802
    83  C   -0.049387
    84  C   -0.066342
    85  N   -0.355570
    86  C   -0.026098
    87  C   -0.008926
    88  C   -0.153464
    89  C    0.120093
    90  C    0.024323
    91  C   -0.009658
    92  C   -0.131321
    93  H    0.015022
    94  N   -0.438298
    95  C    0.116755
    96  C   -0.186956
    97  C   -0.059021
    98  C    0.130818
    99  C    0.069383
   100  C    0.087492
   101  O   -0.227320
   102  C   -0.032902
   103  N   -0.274122
   104  C   -0.007242
   105  C   -0.114786
   106  C   -0.055406
   107  C    0.009520
   108  C    0.036091
   109  C    0.000431
   110  C   -0.068101
   111  N   -0.457069
   112  C    0.123358
   113  C   -0.170364
   114  C   -0.077038
   115  C    0.206068
   116  C    0.109161
   117  C    0.102724
   118  O   -0.239424
   119  C   -0.055520
   120  C    0.293572
   121  O   -0.266037
   122  O   -0.365201
   123  C    0.138556
   124  H   -0.019852
   125  H    0.029560
   126  H    0.004082
   127  H    0.040466
   128  H    0.037089
   129  H    0.034020
   130  H    0.041470
   131  H    0.049655
   132  H    0.031942
   133  H    0.073446
   134  H    0.048329
   135  H    0.065654
   136  H    0.031759
   137  H    0.051529
   138  H    0.041306
   139  H    0.048687
   140  H    0.063106
   141  H    0.052431
   142  H    0.038869
   143  H    0.021331
   144  H    0.046526
   145  H    0.044286
   146  H    0.029768
   147  H    0.030512
   148  H    0.036924
   149  H    0.033084
   150  H    0.033423
   151  H    0.041971
   152  H    0.019310
   153  H    0.065408
   154  H    0.081084
   155  H    0.069626
   156  H    0.058571
   157  H    0.063584
   158  H    0.056466
 Sum of Mulliken charges =  -0.00000

 Dipole moment (field-independent basis, Debye):
    X=             -8.5117    Y=              0.0386    Z=             -0.8910  Tot=              8.5583
 Quadrupole moment (field-independent basis, Debye-Ang):
   XX=           -459.5440   YY=           -567.8791   ZZ=           -477.6251
   XY=            162.7885   XZ=             29.4274   YZ=              6.5276

 Normal termination of Gaussian 16 at Mon Sep 20 06:06:05 2021.
