 Gaussian 16, Revision A.03,
 Gaussian 16:  ES64L-G16RevA.03 25-Dec-2016

 --------------------------------
 #p wB97XD/Def2SVP td=(nstates=5)
 --------------------------------

 --------------------------------
 TDDFT excited states in gaussian
 --------------------------------
 Symbolic Z-matrix:
 Charge =  0 Multiplicity = 1

                         Standard orientation:
 ---------------------------------------------------------------------
 Center     Atomic      Atomic             Coordinates (Angstroms)
 Number     Number       Type             X           Y           Z
 ---------------------------------------------------------------------
      1         12           0       27.852920   -0.693693    0.208816
      2          6           0       26.327929    2.481017    0.878581
      3          6           0       29.476458    0.783187   -2.450975
      4          6           0       28.717671   -3.699270   -0.736657
      5          6           0       25.939973   -1.974652    2.799223
      6          7           0       27.675806    1.397942   -0.876994
      7          6           0       27.080879    2.488482   -0.302624
      8          6           0       27.558928    3.777926   -1.022487
      9          6           0       28.536040    3.234822   -2.147476
     10          6           0       28.587574    1.689012   -1.865021
     11          6           0       28.145060    3.501912   -3.661739
     12          6           0       28.261990    4.820314   -0.112574
     13          6           0       27.881633    6.249258   -0.272280
     14          1           0       27.162035    6.820427   -1.553347
     15          7           0       28.967212   -1.420078   -1.417905
     16          6           0       29.681311   -0.665792   -2.348557
     17          6           0       30.343837   -1.582576   -3.296008
     18          6           0       30.209491   -2.901615   -2.714539
     19          6           0       29.268624   -2.723421   -1.584277
     20          6           0       31.071683   -1.186131   -4.544722
     21          6           0       30.824044   -4.260265   -3.125920
     22          8           0       30.890907   -5.267859   -2.390681
     23          6           0       31.533278   -4.322063   -4.418685
     24          7           0       27.344910   -2.500810    0.889562
     25          6           0       27.813631   -3.626211    0.248059
     26          6           0       27.514392   -4.908172    1.073569
     27          6           0       26.931586   -4.270676    2.411788
     28          6           0       26.732564   -2.813449    2.032568
     29          6           0       26.572077   -6.007466    0.433363
     30          6           0       27.782354   -4.396916    3.665623
     31          6           0       27.185453   -5.265524    4.792698
     32          7           0       26.570582    0.086820    1.697192
     33          6           0       25.844758   -0.568914    2.663282
     34          6           0       24.988465    0.384299    3.381211
     35          6           0       25.210551    1.586818    2.733910
     36          6           0       26.170796    1.364702    1.721739
     37          6           0       24.027588    0.133642    4.496197
     38          6           0       24.834667    2.953943    2.782758
     39          8           0       24.128543    3.610760    3.599766
     40          6           0       25.504596    3.573958    1.630565
     41          6           0       24.503942    4.314784    0.785420
     42          8           0       23.672447    3.812797    0.109210
     43          8           0       24.734545    5.625760    0.853469
     44          6           0       23.741422    6.535620    0.392638
     45          1           0       30.019266    1.166311   -3.317781
     46          1           0       28.960688   -4.751390   -0.904594
     47          1           0       25.284692   -2.401775    3.560143
     48          1           0       26.662507    4.227821   -1.450853
     49          1           0       29.537108    3.636919   -1.994574
     50          1           0       27.303562    4.177115   -3.814382
     51          1           0       27.812825    2.546923   -4.071422
     52          1           0       29.015752    3.836325   -4.226616
     53          1           0       29.344526    4.835772   -0.244262
     54          1           0       28.088463    4.639171    0.947779
     55          1           0       28.777258    6.871119   -0.259499
     56          1           0       27.263154    6.515297    0.584481
     57          1           0       30.660298   -1.734022   -5.392191
     58          1           0       32.109029   -1.488748   -4.401730
     59          1           0       31.139871   -0.102187   -4.642637
     60          1           0       30.802891   -4.121120   -5.202492
     61          1           0       31.840314   -5.361892   -4.528232
     62          1           0       32.444509   -3.724558   -4.415712
     63          1           0       28.490016   -5.341162    1.296725
     64          1           0       25.980016   -4.765869    2.604925
     65          1           0       26.254878   -5.695910   -0.561191
     66          1           0       25.744963   -6.294469    1.083810
     67          1           0       27.154654   -6.926228    0.363806
     68          1           0       28.173727   -3.470477    4.086145
     69          1           0       28.691506   -4.920761    3.372328
     70          1           0       27.260070   -4.877274    5.808274
     71          1           0       27.837909   -6.133326    4.892928
     72          1           0       26.140245   -5.544536    4.666323
     73          1           0       24.205828   -0.818126    4.997487
     74          1           0       23.024349   -0.015878    4.097390
     75          1           0       24.020345    1.037624    5.105057
     76          1           0       26.225643    4.275394    2.049477
     77          1           0       22.951171    6.528088    1.144660
     78          1           0       23.261633    6.163742   -0.512807
     79          1           0       24.132886    7.551751    0.337513
     80         12           0      -27.885286   -0.637325   -0.201962
     81          6           0      -25.739097    2.052418   -0.938259
     82          6           0      -29.708813    1.542335    1.801641
     83          6           0      -29.683783   -3.273125    0.717567
     84          6           0      -25.444442   -2.885286   -1.572888
     85          7           0      -27.728356    1.509405    0.377492
     86          6           0      -26.821046    2.429379   -0.166484
     87          6           0      -27.346675    3.835783    0.053792
     88          6           0      -28.440670    3.689767    1.149494
     89          6           0      -28.646800    2.145588    1.106321
     90          6           0      -28.111942    4.306650    2.545248
     91          6           0      -27.830584    4.564902   -1.247365
     92          6           0      -27.638608    6.145107   -1.218710
     93          1           0      -27.071523    6.773316    0.057134
     94          7           0      -29.497923   -0.800559    0.942836
     95          6           0      -30.150703    0.213493    1.622341
     96          6           0      -31.353129   -0.275841    2.232629
     97          6           0      -31.313347   -1.694892    2.047428
     98          6           0      -30.170613   -1.954347    1.189959
     99          6           0      -32.325753    0.615834    3.063363
    100          6           0      -32.234306   -2.736160    2.594188
    101          8           0      -31.984409   -3.959510    2.476108
    102          6           0      -33.535655   -2.556200    3.430037
    103          7           0      -27.494677   -2.788250   -0.147554
    104          6           0      -28.459245   -3.664814    0.190276
    105          6           0      -28.088927   -5.090479   -0.290356
    106          6           0      -26.733775   -4.982027   -0.998570
    107          6           0      -26.561293   -3.400168   -0.943152
    108          6           0      -28.229560   -6.103329    0.804777
    109          6           0      -26.635503   -5.565610   -2.424442
    110          6           0      -27.610950   -4.952794   -3.459401
    111          7           0      -25.922533   -0.521430   -1.042023
    112          6           0      -25.185807   -1.469938   -1.666002
    113          6           0      -24.112613   -0.770479   -2.370780
    114          6           0      -24.259921    0.630047   -2.166391
    115          6           0      -25.368734    0.742586   -1.292734
    116          6           0      -23.086497   -1.417342   -3.297362
    117          6           0      -23.724858    1.921423   -2.458783
    118          8           0      -22.844449    2.328949   -3.211889
    119          6           0      -24.679088    2.958542   -1.572634
    120          6           0      -23.794246    3.816013   -0.687513
    121          8           0      -23.329488    3.435490    0.369091
    122          8           0      -23.683349    5.091165   -1.193635
    123          6           0      -22.597543    5.945402   -0.723682
    124          1           0      -30.274276    2.335883    2.294202
    125          1           0      -30.366342   -4.087109    0.969421
    126          1           0      -24.819551   -3.619656   -2.084818
    127          1           0      -26.545352    4.461927    0.445855
    128          1           0      -29.340410    4.168025    0.763479
    129          1           0      -28.234861    3.452833    3.210727
    130          1           0      -28.875236    5.029490    2.835826
    131          1           0      -27.127789    4.738016    2.728038
    132          1           0      -28.904447    4.450490   -1.391819
    133          1           0      -27.333357    4.111503   -2.103897
    134          1           0      -28.631573    6.592098   -1.269319
    135          1           0      -27.018753    6.409830   -2.074987
    136          1           0      -32.673142    0.021416    3.909284
    137          1           0      -33.210220    0.909539    2.499076
    138          1           0      -32.008440    1.576860    3.467858
    139          1           0      -34.244379   -1.915497    2.904575
    140          1           0      -33.337866   -2.187175    4.436381
    141          1           0      -34.191613   -3.425922    3.431457
    142          1           0      -28.908627   -5.397982   -0.938420
    143          1           0      -26.010623   -5.340353   -0.265085
    144          1           0      -29.141905   -6.694053    0.720387
    145          1           0      -28.164393   -5.611756    1.775586
    146          1           0      -27.410905   -6.821969    0.856741
    147          1           0      -26.908521   -6.611390   -2.281879
    148          1           0      -25.609607   -5.499263   -2.787920
    149          1           0      -26.973426   -4.532213   -4.236811
    150          1           0      -28.180379   -4.184146   -2.936802
    151          1           0      -28.365390   -5.646078   -3.831584
    152          1           0      -22.925116   -0.843742   -4.209629
    153          1           0      -23.443950   -2.371025   -3.684654
    154          1           0      -22.184407   -1.613600   -2.717216
    155          1           0      -25.123183    3.614995   -2.321367
    156          1           0      -22.507439    5.768682    0.348440
    157          1           0      -22.760661    7.013672   -0.866557
    158          1           0      -21.729977    5.666671   -1.321845
 ---------------------------------------------------------------------

 SCF Done:  E(RwB97XD) =  -4070.61194620     A.U. after   19 cycles

 Excitation energies and oscillator strengths:

 Excited State   1:      Singlet-A      1.6019 eV  773.97 nm  f=0.4041  <S**2>=0.000
     310 -> 316        0.17292
     311 -> 313        0.68565
     310 <- 316        0.11419
 This state for optimization and/or second-order correction.
 Total Energy, E(TD-HF/TD-DFT) =  -4070.55307659
 Copying the excited state density for this state as the 1-particle RhoCI density.

 Excited State   2:      Singlet-A      1.6709 eV  742.04 nm  f=0.4180  <S**2>=0.000
     309 -> 315        0.18115
     312 -> 314        0.68457
     309 <- 315        0.11412

 Excited State   3:      Singlet-A      2.1364 eV  580.34 nm  f=0.1493  <S**2>=0.000
     310 -> 313        0.65482
     311 -> 316       -0.24833

 Excited State   4:      Singlet-A      2.1576 eV  574.65 nm  f=0.1262  <S**2>=0.000
     309 -> 314        0.64762
     312 -> 315       -0.26957

 Excited State   5:      Singlet-A      3.2950 eV  376.28 nm  f=0.0030  <S**2>=0.000
     306 -> 313        0.52479
     306 -> 316       -0.13540
     306 -> 318       -0.34594
     306 -> 319        0.20413

 The electronic state is 1-A.
 Alpha  occ. eigenvalues --  -46.95246 -46.95237 -19.30229 -19.29472 -19.24597
 Alpha  occ. eigenvalues --  -19.24392 -19.24175 -19.24172 -19.23503 -19.23415
 Alpha  occ. eigenvalues --  -14.47169 -14.46641 -14.46208 -14.45976 -14.44889
 Alpha  occ. eigenvalues --  -14.44318 -14.44087 -14.43946 -10.42947 -10.42897
 Alpha  occ. eigenvalues --  -10.39596 -10.39481 -10.38853 -10.38780 -10.35764
 Alpha  occ. eigenvalues --  -10.35634 -10.35237 -10.35115 -10.35063 -10.34948
 Alpha  occ. eigenvalues --  -10.34922 -10.34789 -10.34758 -10.34663 -10.34541
 Alpha  occ. eigenvalues --  -10.34333 -10.34105 -10.33824 -10.33724 -10.33645
 Alpha  occ. eigenvalues --  -10.33459 -10.33368 -10.33238 -10.33008 -10.32979
 Alpha  occ. eigenvalues --  -10.32792 -10.32535 -10.32348 -10.32315 -10.32295
 Alpha  occ. eigenvalues --  -10.32293 -10.32285 -10.32191 -10.32155 -10.32097
 Alpha  occ. eigenvalues --  -10.32029 -10.31812 -10.31616 -10.31592 -10.31561
 Alpha  occ. eigenvalues --  -10.31549 -10.31464 -10.31412 -10.31236 -10.31063
 Alpha  occ. eigenvalues --  -10.30884 -10.30851 -10.30776 -10.30707 -10.30637
 Alpha  occ. eigenvalues --  -10.30570 -10.30405 -10.30199 -10.30137 -10.30117
 Alpha  occ. eigenvalues --  -10.30110 -10.29742 -10.29721 -10.29426 -10.29410
 Alpha  occ. eigenvalues --  -10.29379 -10.29306 -10.29301 -10.29264 -10.29144
 Alpha  occ. eigenvalues --  -10.28733  -3.21258  -3.21257  -1.94828  -1.94818
 Alpha  occ. eigenvalues --   -1.94392  -1.94381  -1.94238  -1.94227  -1.20818
 Alpha  occ. eigenvalues --   -1.17600  -1.11918  -1.11668  -1.10630  -1.10440
 Alpha  occ. eigenvalues --   -1.10365  -1.09631  -1.06900  -1.06347  -1.05794
 Alpha  occ. eigenvalues --   -1.05470  -1.05223  -1.04497  -1.04118  -1.03758
 Alpha  occ. eigenvalues --   -0.95627  -0.94137  -0.91033  -0.91021  -0.90401
 Alpha  occ. eigenvalues --   -0.90397  -0.90231  -0.90101  -0.89727  -0.89269
 Alpha  occ. eigenvalues --   -0.88773  -0.88756  -0.88196  -0.87237  -0.86510
 Alpha  occ. eigenvalues --   -0.85692  -0.85387  -0.85215  -0.84505  -0.84078
 Alpha  occ. eigenvalues --   -0.83950  -0.83642  -0.82983  -0.82565  -0.82464
 Alpha  occ. eigenvalues --   -0.81955  -0.80661  -0.80235  -0.79654  -0.79079
 Alpha  occ. eigenvalues --   -0.78843  -0.78666  -0.78263  -0.77752  -0.77106
 Alpha  occ. eigenvalues --   -0.76926  -0.75180  -0.74499  -0.73460  -0.73030
 Alpha  occ. eigenvalues --   -0.71814  -0.71371  -0.71108  -0.70923  -0.70315
 Alpha  occ. eigenvalues --   -0.69511  -0.69424  -0.68197  -0.67837  -0.67199
 Alpha  occ. eigenvalues --   -0.66857  -0.66846  -0.66813  -0.66454  -0.66133
 Alpha  occ. eigenvalues --   -0.66048  -0.65020  -0.63620  -0.62925  -0.62300
 Alpha  occ. eigenvalues --   -0.61871  -0.61439  -0.61293  -0.61127  -0.60784
 Alpha  occ. eigenvalues --   -0.60180  -0.60035  -0.59724  -0.59382  -0.58906
 Alpha  occ. eigenvalues --   -0.58419  -0.58075  -0.57885  -0.57661  -0.57119
 Alpha  occ. eigenvalues --   -0.56885  -0.56774  -0.56726  -0.55840  -0.55690
 Alpha  occ. eigenvalues --   -0.55387  -0.55322  -0.55214  -0.54978  -0.54908
 Alpha  occ. eigenvalues --   -0.54671  -0.54658  -0.54480  -0.54341  -0.54265
 Alpha  occ. eigenvalues --   -0.53904  -0.53632  -0.53487  -0.53404  -0.53261
 Alpha  occ. eigenvalues --   -0.53024  -0.52944  -0.52596  -0.52015  -0.51984
 Alpha  occ. eigenvalues --   -0.51935  -0.51779  -0.51483  -0.51249  -0.51149
 Alpha  occ. eigenvalues --   -0.51102  -0.50995  -0.50922  -0.50683  -0.50658
 Alpha  occ. eigenvalues --   -0.50543  -0.50526  -0.50199  -0.50134  -0.50123
 Alpha  occ. eigenvalues --   -0.49815  -0.49659  -0.49604  -0.49342  -0.49324
 Alpha  occ. eigenvalues --   -0.48848  -0.48691  -0.48599  -0.48304  -0.48245
 Alpha  occ. eigenvalues --   -0.48153  -0.48059  -0.47971  -0.47770  -0.47739
 Alpha  occ. eigenvalues --   -0.47375  -0.47172  -0.47129  -0.46736  -0.46660
 Alpha  occ. eigenvalues --   -0.46489  -0.46408  -0.46402  -0.46135  -0.45974
 Alpha  occ. eigenvalues --   -0.45889  -0.45612  -0.45374  -0.45348  -0.45102
 Alpha  occ. eigenvalues --   -0.44953  -0.44888  -0.44574  -0.44510  -0.44506
 Alpha  occ. eigenvalues --   -0.44287  -0.44121  -0.43854  -0.43820  -0.43779
 Alpha  occ. eigenvalues --   -0.43557  -0.43536  -0.43496  -0.43391  -0.43120
 Alpha  occ. eigenvalues --   -0.42877  -0.42635  -0.42512  -0.42167  -0.41981
 Alpha  occ. eigenvalues --   -0.41976  -0.41557  -0.41503  -0.41140  -0.41015
 Alpha  occ. eigenvalues --   -0.40554  -0.40068  -0.39830  -0.39740  -0.39577
 Alpha  occ. eigenvalues --   -0.39082  -0.38889  -0.38555  -0.38253  -0.38241
 Alpha  occ. eigenvalues --   -0.37961  -0.37749  -0.36652  -0.36105  -0.36021
 Alpha  occ. eigenvalues --   -0.35691  -0.35239  -0.35145  -0.33705  -0.33668
 Alpha  occ. eigenvalues --   -0.33554  -0.32954  -0.32850  -0.32753  -0.32590
 Alpha  occ. eigenvalues --   -0.32235  -0.31634  -0.31578  -0.26031  -0.26025
 Alpha  occ. eigenvalues --   -0.23177  -0.23099
 Alpha virt. eigenvalues --   -0.07594  -0.07270   0.00464   0.00531   0.01863
 Alpha virt. eigenvalues --    0.02018   0.04093   0.04136   0.04687   0.05416
 Alpha virt. eigenvalues --    0.07384   0.07781   0.07829   0.08366   0.08495

 Mulliken charges:
               1
     1  Mg   0.968451
     2  C   -0.020900
     3  C   -0.037297
     4  C   -0.069010
     5  C   -0.100278
     6  N   -0.318775
     7  C   -0.004850
     8  C   -0.025521
     9  C   -0.108480
    10  C    0.038828
    11  C    0.011092
    12  C    0.006970
    13  C   -0.131888
    14  H    0.014353
    15  N   -0.444848
    16  C    0.109594
    17  C   -0.188420
    18  C   -0.082168
    19  C    0.150560
    20  C    0.090663
    21  C    0.056707
    22  O   -0.260100
    23  C   -0.009976
    24  N   -0.428937
    25  C    0.096400
    26  C   -0.123095
    27  C   -0.081875
    28  C    0.106461
    29  C    0.028002
    30  C    0.012438
    31  C   -0.064930
    32  N   -0.411678
    33  C    0.113753
    34  C   -0.170956
    35  C   -0.051434
    36  C    0.144079
    37  C    0.088570
    38  C    0.114978
    39  O   -0.251342
    40  C   -0.028866
    41  C    0.225638
    42  O   -0.205786
    43  O   -0.332403
    44  C    0.138704
    45  H   -0.013858
    46  H    0.020127
    47  H   -0.001498
    48  H    0.046122
    49  H    0.041901
    50  H    0.041070
    51  H    0.040365
    52  H    0.039972
    53  H    0.033334
    54  H    0.031256
    55  H    0.045749
    56  H    0.057654
    57  H    0.058319
    58  H    0.041394
    59  H    0.035371
    60  H    0.054088
    61  H    0.046901
    62  H    0.066175
    63  H    0.046343
    64  H    0.023311
    65  H    0.051629
    66  H    0.034847
    67  H    0.038255
    68  H    0.040930
    69  H    0.022547
    70  H    0.029646
    71  H    0.032283
    72  H    0.037108
    73  H    0.030951
    74  H    0.058250
    75  H    0.072579
    76  H    0.069241
    77  H    0.047690
    78  H    0.056369
    79  H    0.061151
    80  Mg   0.972007
    81  C    0.006888
    82  C   -0.061548
    83  C   -0.062936
    84  C   -0.062965
    85  N   -0.337717
    86  C   -0.003179
    87  C   -0.035522
    88  C   -0.097806
    89  C    0.010327
    90  C    0.027394
    91  C   -0.006623
    92  C   -0.129163
    93  H    0.034107
    94  N   -0.494885
    95  C    0.189595
    96  C   -0.136855
    97  C   -0.054435
    98  C    0.137680
    99  C    0.058884
   100  C    0.036243
   101  O   -0.271637
   102  C   -0.007049
   103  N   -0.340832
   104  C    0.077588
   105  C   -0.129588
   106  C   -0.020126
   107  C    0.012727
   108  C    0.021341
   109  C   -0.019467
   110  C   -0.045918
   111  N   -0.429032
   112  C    0.150713
   113  C   -0.205220
   114  C    0.004360
   115  C    0.122912
   116  C    0.072264
   117  C    0.116742
   118  O   -0.207608
   119  C   -0.128457
   120  C    0.274787
   121  O   -0.237529
   122  O   -0.379805
   123  C    0.133606
   124  H   -0.003015
   125  H    0.023053
   126  H   -0.004399
   127  H    0.030769
   128  H    0.033131
   129  H    0.030653
   130  H    0.034879
   131  H    0.058474
   132  H    0.029783
   133  H    0.037220
   134  H    0.054516
   135  H    0.069158
   136  H    0.037199
   137  H    0.051148
   138  H    0.045673
   139  H    0.030972
   140  H    0.073532
   141  H    0.048602
   142  H    0.037195
   143  H    0.038772
   144  H    0.043478
   145  H    0.041862
   146  H    0.022296
   147  H    0.033274
   148  H    0.039386
   149  H    0.046932
   150  H    0.038539
   151  H    0.043006
   152  H    0.057625
   153  H    0.018506
   154  H    0.059418
   155  H    0.065572
   156  H    0.060238
   157  H    0.053711
   158  H    0.064579
 Sum of Mulliken charges =  -0.00000

 Dipole moment (field-independent basis, Debye):
    X=             -2.3383    Y=              2.5414    Z=             -0.9890  Tot=              3.5923
 Quadrupole moment (field-independent basis, Debye-Ang):
   XX=           -112.2168   YY=           -476.8181   ZZ=           -499.8263
   XY=            -26.1894   XZ=            -12.3252   YZ=             -3.1446

 Normal termination of Gaussian 16 at Mon Sep 20 09:39:14 2021.
