 Gaussian 16, Revision A.03,
 Gaussian 16:  ES64L-G16RevA.03 25-Dec-2016

 --------------------------------
 #p wB97XD/Def2SVP td=(nstates=5)
 --------------------------------

 --------------------------------
 TDDFT excited states in gaussian
 --------------------------------
 Symbolic Z-matrix:
 Charge =  0 Multiplicity = 1

                         Standard orientation:
 ---------------------------------------------------------------------
 Center     Atomic      Atomic             Coordinates (Angstroms)
 Number     Number       Type             X           Y           Z
 ---------------------------------------------------------------------
      1         12           0      -13.027118    0.637391    0.386178
      2          6           0      -11.558515   -2.237066   -1.172765
      3          6           0      -15.045037   -1.352300    2.044707
      4          6           0      -14.750344    3.384416    1.070855
      5          6           0      -10.911075    2.626112   -1.871273
      6          7           0      -13.229043   -1.551431    0.453795
      7          6           0      -12.565150   -2.557420   -0.276120
      8          6           0      -13.056300   -4.016147    0.060072
      9          6           0      -14.180938   -3.623375    1.201364
     10          6           0      -14.173970   -2.099957    1.279798
     11          6           0      -15.629696   -4.159724    0.830032
     12          6           0      -11.944184   -5.023666    0.516209
     13          6           0      -12.437971   -6.279263    1.224945
     14          1           0      -12.202381   -7.589126    0.450777
     15          7           0      -14.622933    0.973484    1.504146
     16          6           0      -15.380431    0.045686    2.179648
     17          6           0      -16.447674    0.655692    2.944322
     18          6           0      -16.324822    2.069909    2.643450
     19          6           0      -15.124235    2.188371    1.741475
     20          6           0      -17.364958   -0.016200    3.854007
     21          6           0      -17.145108    3.248251    3.138948
     22          8           0      -16.877699    4.395301    2.914255
     23          6           0      -18.401515    2.873485    3.879178
     24          7           0      -12.894942    2.712109   -0.354229
     25          6           0      -13.736658    3.652324    0.144382
     26          6           0      -13.377818    5.062273   -0.396346
     27          6           0      -12.070895    4.783741   -1.217265
     28          6           0      -11.902214    3.280327   -1.111055
     29          6           0      -14.457222    5.830680   -1.232429
     30          6           0      -10.774423    5.517831   -0.723815
     31          6           0      -10.722040    7.007158   -1.130468
     32          7           0      -11.572903    0.348339   -1.195744
     33          6           0      -10.779971    1.202919   -1.926469
     34          6           0       -9.874740    0.444049   -2.694229
     35          6           0      -10.142103   -0.860184   -2.507051
     36          6           0      -11.226529   -0.918101   -1.579977
     37          6           0       -8.771327    1.113552   -3.503042
     38          6           0       -9.867889   -2.257381   -2.857659
     39          8           0       -9.074646   -2.729420   -3.630678
     40          6           0      -10.828355   -3.201899   -1.989154
     41          6           0      -11.802657   -3.830749   -2.933425
     42          8           0      -12.870519   -3.453507   -3.360502
     43          8           0      -11.250898   -5.059656   -3.236699
     44          6           0      -12.018562   -5.934431   -4.154690
     45          1           0      -15.791472   -1.926590    2.597195
     46          1           0      -15.443028    4.217202    1.214221
     47          1           0      -10.286981    3.357477   -2.390021
     48          1           0      -13.615499   -4.382512   -0.801001
     49          1           0      -13.895023   -4.111467    2.133385
     50          1           0      -16.088780   -4.600549    1.714778
     51          1           0      -15.740617   -4.852751   -0.003515
     52          1           0      -16.297169   -3.325160    0.617568
     53          1           0      -11.330116   -4.357212    1.123298
     54          1           0      -11.221682   -5.369015   -0.223593
     55          1           0      -13.508425   -6.186837    1.406314
     56          1           0      -11.836256   -6.431852    2.120485
     57          1           0      -17.044903    0.437448    4.791993
     58          1           0      -17.248019   -1.098785    3.802314
     59          1           0      -18.431114    0.181310    3.744501
     60          1           0      -18.195354    2.849956    4.949161
     61          1           0      -18.997295    2.113260    3.373167
     62          1           0      -19.101205    3.651367    3.574805
     63          1           0      -12.979357    5.599347    0.464915
     64          1           0      -12.278762    4.939612   -2.276080
     65          1           0      -14.173644    6.109984   -2.247572
     66          1           0      -14.557996    6.799268   -0.743261
     67          1           0      -15.420378    5.329036   -1.326101
     68          1           0       -9.900615    5.039285   -1.164610
     69          1           0      -10.757144    5.358148    0.355185
     70          1           0      -11.375337    7.191970   -1.983418
     71          1           0       -9.673044    7.221842   -1.334134
     72          1           0      -11.089781    7.692269   -0.366017
     73          1           0       -7.919093    0.446790   -3.634753
     74          1           0       -8.486931    2.041217   -3.006292
     75          1           0       -9.159992    1.459068   -4.461244
     76          1           0      -10.262308   -3.943118   -1.424486
     77          1           0      -11.275356   -6.396712   -4.804218
     78          1           0      -12.759599   -5.411240   -4.758854
     79          1           0      -12.443018   -6.623399   -3.423783
     80         12           0       13.310380    0.547320   -0.236591
     81          6           0       11.307263   -2.194644    0.594853
     82          6           0       16.034181   -1.570688   -0.195570
     83          6           0       15.377689    3.261254   -0.345484
     84          6           0       10.610683    2.618995    0.405890
     85          7           0       13.557494   -1.605274    0.066891
     86          6           0       12.591245   -2.526376    0.172945
     87          6           0       13.064146   -3.976143   -0.008519
     88          6           0       14.628011   -3.786204   -0.076733
     89          6           0       14.800276   -2.168562   -0.169926
     90          6           0       15.464409   -4.392844    1.070491
     91          6           0       12.465980   -4.695367   -1.217751
     92          6           0       12.408959   -6.224544   -1.049093
     93          1           0       12.953147   -6.858973    0.238641
     94          7           0       15.393108    0.830326   -0.378912
     95          6           0       16.369758   -0.191568   -0.414382
     96          6           0       17.668883    0.426727   -0.587614
     97          6           0       17.505966    1.862135   -0.568122
     98          6           0       16.059519    2.048277   -0.464275
     99          6           0       18.896577   -0.406111   -0.834640
    100          6           0       18.570023    3.027919   -0.794133
    101          8           0       18.276856    4.194625   -0.893858
    102          6           0       20.021507    2.605834   -0.865497
    103          7           0       13.053286    2.612908    0.088237
    104          6           0       14.034250    3.551214   -0.047338
    105          6           0       13.486663    5.015859    0.124877
    106          6           0       11.989917    4.756081    0.287470
    107          6           0       11.887655    3.242605    0.264074
    108          6           0       14.113600    6.014420    1.179408
    109          6           0       11.179456    5.417133   -0.852038
    110          6           0       11.059002    4.682676   -2.205725
    111          7           0       11.280010    0.340807    0.235410
    112          6           0       10.296501    1.267172    0.467202
    113          6           0        9.053726    0.637735    0.764940
    114          6           0        9.397058   -0.786637    0.839031
    115          6           0       10.701907   -0.873704    0.544636
    116          6           0        7.716793    1.186050    1.003280
    117          6           0        8.919208   -2.114046    1.200456
    118          8           0        7.776672   -2.501315    1.467751
    119          6           0       10.113236   -3.103457    1.059149
    120          6           0       10.376998   -3.806824    2.310280
    121          8           0       10.964953   -3.350570    3.285156
    122          8           0        9.669662   -4.982766    2.322628
    123          6           0        9.422418   -5.674310    3.602751
    124          1           0       16.836795   -2.309149   -0.137641
    125          1           0       16.001673    4.130728   -0.562398
    126          1           0        9.735684    3.263270    0.513893
    127          1           0       12.914208   -4.563267    0.897237
    128          1           0       15.058560   -4.082800   -1.032496
    129          1           0       16.179971   -4.981907    0.497113
    130          1           0       14.847320   -5.032907    1.700612
    131          1           0       15.910172   -3.604292    1.676899
    132          1           0       12.995112   -4.456330   -2.139447
    133          1           0       11.445291   -4.353235   -1.390834
    134          1           0       12.986305   -6.540976   -1.918041
    135          1           0       11.412268   -6.619379   -1.251228
    136          1           0       18.591495   -1.435349   -0.645363
    137          1           0       19.686709   -0.083995   -0.156049
    138          1           0       19.286396   -0.302020   -1.848327
    139          1           0       20.507496    2.336286    0.072756
    140          1           0       20.570432    3.396137   -1.377543
    141          1           0       19.967659    1.739082   -1.524148
    142          1           0       13.732457    5.437733   -0.849387
    143          1           0       11.710594    5.173144    1.254338
    144          1           0       13.387139    6.526805    1.809031
    145          1           0       14.624578    6.805310    0.631241
    146          1           0       14.862075    5.463824    1.750036
    147          1           0       11.632704    6.397539   -0.993478
    148          1           0       10.189792    5.581540   -0.424836
    149          1           0       11.174247    5.468821   -2.951477
    150          1           0       10.079070    4.234496   -2.368334
    151          1           0       11.754600    3.853639   -2.331023
    152          1           0        7.001700    0.544790    0.489171
    153          1           0        7.566993    2.218095    0.686046
    154          1           0        7.435695    1.037751    2.046074
    155          1           0        9.804450   -3.773817    0.257185
    156          1           0        9.907157   -5.173782    4.441685
    157          1           0        9.851420   -6.673723    3.526361
    158          1           0        8.334769   -5.633356    3.649688
 ---------------------------------------------------------------------

 SCF Done:  E(RwB97XD) =  -4070.63179337     A.U. after   19 cycles

 Excitation energies and oscillator strengths:

 Excited State   1:      Singlet-A      1.6364 eV  757.67 nm  f=0.4905  <S**2>=0.000
     309 -> 316        0.18209
     312 -> 314        0.67771
     309 <- 316        0.11627
 This state for optimization and/or second-order correction.
 Total Energy, E(TD-HF/TD-DFT) =  -4070.57165757
 Copying the excited state density for this state as the 1-particle RhoCI density.

 Excited State   2:      Singlet-A      1.6573 eV  748.10 nm  f=0.3249  <S**2>=0.000
     310 -> 315        0.18563
     311 -> 313        0.67529
     310 <- 315        0.11524

 Excited State   3:      Singlet-A      2.0777 eV  596.74 nm  f=0.1474  <S**2>=0.000
     310 -> 313        0.65638
     311 -> 315       -0.23989

 Excited State   4:      Singlet-A      2.1545 eV  575.46 nm  f=0.1362  <S**2>=0.000
     309 -> 314        0.64884
     312 -> 316       -0.26858

 Excited State   5:      Singlet-A      3.1032 eV  399.54 nm  f=0.0052  <S**2>=0.000
     307 -> 313       -0.12795
     308 -> 313        0.67547

 The electronic state is 1-A.
 Alpha  occ. eigenvalues --  -46.94852 -46.94560 -19.29083 -19.29035 -19.24933
 Alpha  occ. eigenvalues --  -19.24796 -19.24113 -19.23924 -19.23894 -19.23730
 Alpha  occ. eigenvalues --  -14.46851 -14.46771 -14.46435 -14.45852 -14.44167
 Alpha  occ. eigenvalues --  -14.44030 -14.43403 -14.42746 -10.42765 -10.42477
 Alpha  occ. eigenvalues --  -10.40136 -10.39246 -10.39074 -10.38679 -10.34916
 Alpha  occ. eigenvalues --  -10.34890 -10.34889 -10.34881 -10.34858 -10.34835
 Alpha  occ. eigenvalues --  -10.34683 -10.34631 -10.34349 -10.34333 -10.34188
 Alpha  occ. eigenvalues --  -10.34090 -10.34064 -10.33868 -10.33300 -10.33063
 Alpha  occ. eigenvalues --  -10.32926 -10.32894 -10.32858 -10.32815 -10.32791
 Alpha  occ. eigenvalues --  -10.32685 -10.32466 -10.32265 -10.32238 -10.32116
 Alpha  occ. eigenvalues --  -10.31778 -10.31749 -10.31677 -10.31666 -10.31662
 Alpha  occ. eigenvalues --  -10.31653 -10.31432 -10.31127 -10.31088 -10.30992
 Alpha  occ. eigenvalues --  -10.30905 -10.30888 -10.30880 -10.30851 -10.30839
 Alpha  occ. eigenvalues --  -10.30814 -10.30802 -10.30797 -10.30737 -10.30613
 Alpha  occ. eigenvalues --  -10.30607 -10.30250 -10.30166 -10.29991 -10.29942
 Alpha  occ. eigenvalues --  -10.29812 -10.29692 -10.29668 -10.29627 -10.29550
 Alpha  occ. eigenvalues --  -10.29547 -10.29426 -10.29341 -10.29264 -10.28767
 Alpha  occ. eigenvalues --  -10.28699  -3.20841  -3.20523  -1.94428  -1.94112
 Alpha  occ. eigenvalues --   -1.93943  -1.93831  -1.93642  -1.93501  -1.17806
 Alpha  occ. eigenvalues --   -1.17223  -1.13776  -1.13540  -1.12992  -1.11068
 Alpha  occ. eigenvalues --   -1.09612  -1.08802  -1.06416  -1.05771  -1.05296
 Alpha  occ. eigenvalues --   -1.05291  -1.04450  -1.04446  -1.03564  -1.03028
 Alpha  occ. eigenvalues --   -0.94949  -0.94021  -0.91005  -0.90781  -0.90612
 Alpha  occ. eigenvalues --   -0.90094  -0.90044  -0.89916  -0.89048  -0.88988
 Alpha  occ. eigenvalues --   -0.88715  -0.88362  -0.87996  -0.87924  -0.86092
 Alpha  occ. eigenvalues --   -0.85772  -0.85296  -0.85038  -0.84191  -0.84024
 Alpha  occ. eigenvalues --   -0.83915  -0.83846  -0.82919  -0.82611  -0.82102
 Alpha  occ. eigenvalues --   -0.81991  -0.80063  -0.80032  -0.79015  -0.78839
 Alpha  occ. eigenvalues --   -0.78717  -0.78516  -0.77793  -0.77423  -0.76932
 Alpha  occ. eigenvalues --   -0.76713  -0.74710  -0.74389  -0.73231  -0.73040
 Alpha  occ. eigenvalues --   -0.71701  -0.71520  -0.70623  -0.70381  -0.69675
 Alpha  occ. eigenvalues --   -0.69618  -0.68918  -0.68036  -0.66959  -0.66681
 Alpha  occ. eigenvalues --   -0.66595  -0.66520  -0.66412  -0.66303  -0.65846
 Alpha  occ. eigenvalues --   -0.65700  -0.63417  -0.63362  -0.62026  -0.61748
 Alpha  occ. eigenvalues --   -0.61418  -0.61044  -0.61002  -0.60756  -0.60246
 Alpha  occ. eigenvalues --   -0.60210  -0.59780  -0.59628  -0.59368  -0.58852
 Alpha  occ. eigenvalues --   -0.58047  -0.57788  -0.57618  -0.57349  -0.57085
 Alpha  occ. eigenvalues --   -0.56940  -0.56580  -0.56329  -0.56150  -0.56013
 Alpha  occ. eigenvalues --   -0.55588  -0.55562  -0.55242  -0.54756  -0.54584
 Alpha  occ. eigenvalues --   -0.54572  -0.54258  -0.54218  -0.54023  -0.53862
 Alpha  occ. eigenvalues --   -0.53848  -0.53514  -0.53512  -0.53239  -0.52887
 Alpha  occ. eigenvalues --   -0.52702  -0.52548  -0.52399  -0.52145  -0.52054
 Alpha  occ. eigenvalues --   -0.51680  -0.51591  -0.51566  -0.51487  -0.51372
 Alpha  occ. eigenvalues --   -0.51278  -0.51017  -0.50939  -0.50880  -0.50716
 Alpha  occ. eigenvalues --   -0.50414  -0.50295  -0.50114  -0.50001  -0.49869
 Alpha  occ. eigenvalues --   -0.49695  -0.49614  -0.49519  -0.49017  -0.48922
 Alpha  occ. eigenvalues --   -0.48642  -0.48632  -0.48237  -0.48157  -0.48005
 Alpha  occ. eigenvalues --   -0.47777  -0.47750  -0.47617  -0.47528  -0.47314
 Alpha  occ. eigenvalues --   -0.47168  -0.47161  -0.47066  -0.46915  -0.46906
 Alpha  occ. eigenvalues --   -0.46734  -0.46605  -0.46533  -0.46205  -0.45911
 Alpha  occ. eigenvalues --   -0.45853  -0.45733  -0.45560  -0.45414  -0.45291
 Alpha  occ. eigenvalues --   -0.45118  -0.45057  -0.44951  -0.44710  -0.44632
 Alpha  occ. eigenvalues --   -0.44628  -0.44431  -0.44239  -0.43946  -0.43889
 Alpha  occ. eigenvalues --   -0.43749  -0.43536  -0.43375  -0.43003  -0.42979
 Alpha  occ. eigenvalues --   -0.42764  -0.42762  -0.42647  -0.42485  -0.42350
 Alpha  occ. eigenvalues --   -0.42122  -0.41787  -0.41179  -0.40656  -0.40400
 Alpha  occ. eigenvalues --   -0.40272  -0.39947  -0.39713  -0.39628  -0.39566
 Alpha  occ. eigenvalues --   -0.38946  -0.38743  -0.38459  -0.38409  -0.38017
 Alpha  occ. eigenvalues --   -0.37686  -0.37657  -0.36520  -0.36279  -0.35881
 Alpha  occ. eigenvalues --   -0.35710  -0.35474  -0.34823  -0.33535  -0.33428
 Alpha  occ. eigenvalues --   -0.33070  -0.32790  -0.32759  -0.32522  -0.32244
 Alpha  occ. eigenvalues --   -0.31876  -0.31760  -0.30805  -0.25454  -0.25390
 Alpha  occ. eigenvalues --   -0.23077  -0.22716
 Alpha virt. eigenvalues --   -0.07242  -0.06844   0.00650   0.00846   0.02681
 Alpha virt. eigenvalues --    0.02987   0.04626   0.04774   0.05709   0.05718
 Alpha virt. eigenvalues --    0.07479   0.07545   0.07811   0.08190   0.08502

 Mulliken charges:
               1
     1  Mg   0.977194
     2  C   -0.038705
     3  C   -0.071937
     4  C   -0.068475
     5  C   -0.096278
     6  N   -0.383162
     7  C   -0.009743
     8  C   -0.026962
     9  C   -0.121360
    10  C    0.109314
    11  C   -0.013706
    12  C   -0.019469
    13  C   -0.123115
    14  H    0.029441
    15  N   -0.491454
    16  C    0.111762
    17  C   -0.136197
    18  C   -0.128204
    19  C    0.164462
    20  C    0.081668
    21  C    0.041234
    22  O   -0.208287
    23  C   -0.027452
    24  N   -0.338945
    25  C    0.031308
    26  C   -0.031777
    27  C   -0.109769
    28  C    0.026863
    29  C    0.019895
    30  C   -0.035729
    31  C   -0.029317
    32  N   -0.401571
    33  C    0.165372
    34  C   -0.241946
    35  C    0.014079
    36  C    0.138401
    37  C    0.096246
    38  C    0.120039
    39  O   -0.172954
    40  C   -0.117953
    41  C    0.284986
    42  O   -0.233350
    43  O   -0.386653
    44  C    0.128181
    45  H   -0.028718
    46  H    0.025051
    47  H    0.001771
    48  H    0.050846
    49  H    0.047867
    50  H    0.031078
    51  H    0.050422
    52  H    0.042735
    53  H    0.033841
    54  H    0.059857
    55  H    0.061018
    56  H    0.064064
    57  H    0.057822
    58  H    0.039847
    59  H    0.046995
    60  H    0.079722
    61  H    0.047325
    62  H    0.039844
    63  H    0.038801
    64  H    0.032472
    65  H    0.032603
    66  H    0.039059
    67  H    0.051648
    68  H    0.028522
    69  H    0.032811
    70  H    0.031822
    71  H    0.042746
    72  H    0.037430
    73  H    0.058894
    74  H    0.027666
    75  H    0.045649
    76  H    0.081142
    77  H    0.063701
    78  H    0.072691
    79  H    0.054979
    80  Mg   0.959788
    81  C   -0.000709
    82  C   -0.090166
    83  C   -0.073962
    84  C   -0.086975
    85  N   -0.357108
    86  C   -0.011485
    87  C   -0.047841
    88  C   -0.148925
    89  C    0.067835
    90  C    0.032179
    91  C    0.017110
    92  C   -0.110756
    93  H    0.046745
    94  N   -0.477704
    95  C    0.165622
    96  C   -0.178496
    97  C   -0.089952
    98  C    0.129210
    99  C    0.057075
   100  C    0.082236
   101  O   -0.208468
   102  C   -0.022452
   103  N   -0.337988
   104  C    0.039838
   105  C   -0.081575
   106  C   -0.049178
   107  C    0.051031
   108  C    0.022586
   109  C   -0.042526
   110  C   -0.033365
   111  N   -0.449848
   112  C    0.142079
   113  C   -0.164949
   114  C   -0.034645
   115  C    0.132372
   116  C    0.085429
   117  C    0.094092
   118  O   -0.220527
   119  C   -0.059025
   120  C    0.274333
   121  O   -0.254851
   122  O   -0.379360
   123  C    0.128401
   124  H    0.001318
   125  H    0.020086
   126  H   -0.015920
   127  H    0.038830
   128  H    0.031206
   129  H    0.040084
   130  H    0.043080
   131  H    0.055387
   132  H    0.031094
   133  H    0.031159
   134  H    0.040509
   135  H    0.054469
   136  H    0.029107
   137  H    0.047858
   138  H    0.067777
   139  H    0.081987
   140  H    0.053747
   141  H    0.031796
   142  H    0.039756
   143  H    0.036045
   144  H    0.039757
   145  H    0.035628
   146  H    0.050949
   147  H    0.030073
   148  H    0.031072
   149  H    0.040347
   150  H    0.037307
   151  H    0.046642
   152  H    0.053160
   153  H    0.034605
   154  H    0.057790
   155  H    0.073397
   156  H    0.066792
   157  H    0.054405
   158  H    0.073573
 Sum of Mulliken charges =  -0.00000

 Dipole moment (field-independent basis, Debye):
    X=              0.9313    Y=             -1.3902    Z=              0.4633  Tot=              1.7363
 Quadrupole moment (field-independent basis, Debye-Ang):
   XX=           -396.9580   YY=           -469.4880   ZZ=           -512.7371
   XY=             -0.9160   XZ=            -72.9020   YZ=            -13.5428

 Normal termination of Gaussian 16 at Sun Sep 19 06:48:34 2021.
