 Gaussian 16, Revision A.03,
 Gaussian 16:  ES64L-G16RevA.03 25-Dec-2016

 --------------------------------
 #p wB97XD/Def2SVP td=(nstates=5)
 --------------------------------

 --------------------------------
 TDDFT excited states in gaussian
 --------------------------------
 Symbolic Z-matrix:
 Charge =  0 Multiplicity = 1

                         Standard orientation:
 ---------------------------------------------------------------------
 Center     Atomic      Atomic             Coordinates (Angstroms)
 Number     Number       Type             X           Y           Z
 ---------------------------------------------------------------------
      1         12           0      -16.454980   -0.812917    0.032226
      2          6           0      -18.430321    1.791845    1.003254
      3          6           0      -13.736555    1.440101   -0.186859
      4          6           0      -14.536629   -3.291747   -1.146148
      5          6           0      -19.151014   -2.918321    0.344392
      6          7           0      -16.177905    1.392115    0.057595
      7          6           0      -17.143805    2.245446    0.606162
      8          6           0      -16.631142    3.709339    0.716376
      9          6           0      -15.166492    3.488120    0.253712
     10          6           0      -15.006222    2.009211   -0.048729
     11          6           0      -14.520085    4.359487   -0.905984
     12          6           0      -16.724824    4.395735    2.149775
     13          6           0      -16.150855    5.837946    2.141384
     14          1           0      -17.228191    6.917415    2.255139
     15          7           0      -14.355152   -0.912645   -0.547394
     16          6           0      -13.408992    0.064948   -0.326437
     17          6           0      -12.157566   -0.471733   -0.848270
     18          6           0      -12.407760   -1.852810   -1.132478
     19          6           0      -13.800850   -2.099143   -0.930282
     20          6           0      -10.937435    0.363900   -0.908393
     21          6           0      -11.320634   -2.815367   -1.725964
     22          8           0      -11.574197   -3.951819   -2.174419
     23          6           0       -9.892171   -2.352509   -1.847390
     24          7           0      -16.781083   -2.701960   -0.353473
     25          6           0      -15.811219   -3.605415   -0.872043
     26          6           0      -16.459901   -4.893370   -1.326218
     27          6           0      -17.701397   -4.889179   -0.436352
     28          6           0      -17.896763   -3.426819   -0.062117
     29          6           0      -16.804180   -4.899563   -2.853531
     30          6           0      -17.504651   -5.692212    0.868912
     31          6           0      -17.757041   -7.175827    0.843028
     32          7           0      -18.454545   -0.696955    0.520912
     33          6           0      -19.396099   -1.624251    0.759021
     34          6           0      -20.612565   -0.976385    1.151859
     35          6           0      -20.298813    0.359366    1.286591
     36          6           0      -18.946836    0.482647    0.930353
     37          6           0      -21.865628   -1.728639    1.436264
     38          6           0      -20.834594    1.602144    1.647130
     39          8           0      -21.936834    1.922614    2.048060
     40          6           0      -19.612101    2.621138    1.477712
     41          6           0      -20.034532    3.687247    0.529983
     42          8           0      -20.260230    3.567234   -0.649609
     43          8           0      -20.002791    4.890670    1.110192
     44          6           0      -20.361927    6.069759    0.231538
     45          1           0      -12.920287    2.157290   -0.079563
     46          1           0      -13.921757   -4.111479   -1.523111
     47          1           0      -20.015153   -3.539035    0.588777
     48          1           0      -17.164211    4.316893   -0.015006
     49          1           0      -14.493029    3.643303    1.097136
     50          1           0      -13.468094    4.619602   -0.785721
     51          1           0      -15.181367    5.189232   -1.156278
     52          1           0      -14.499504    3.684090   -1.761167
     53          1           0      -16.204672    3.692066    2.798533
     54          1           0      -17.772359    4.413586    2.450251
     55          1           0      -15.481704    5.966719    1.290643
     56          1           0      -15.547032    5.933768    3.043301
     57          1           0      -10.710448    0.548641   -1.958543
     58          1           0      -10.195254   -0.152157   -0.299315
     59          1           0      -11.093015    1.313429   -0.396046
     60          1           0       -9.269577   -3.165852   -2.220165
     61          1           0       -9.576979   -2.209358   -0.812910
     62          1           0       -9.712838   -1.442451   -2.419272
     63          1           0      -15.811434   -5.749309   -1.137200
     64          1           0      -18.597424   -5.249652   -0.941203
     65          1           0      -17.666625   -4.268321   -3.064033
     66          1           0      -16.983839   -5.918774   -3.196657
     67          1           0      -15.912072   -4.519487   -3.350092
     68          1           0      -18.068628   -5.284393    1.706828
     69          1           0      -16.491874   -5.536579    1.240878
     70          1           0      -16.821757   -7.654595    1.131666
     71          1           0      -17.863546   -7.386555   -0.221205
     72          1           0      -18.631435   -7.497469    1.409020
     73          1           0      -21.969263   -1.900882    2.506862
     74          1           0      -22.076616   -2.625248    0.852635
     75          1           0      -22.670930   -1.041787    1.175254
     76          1           0      -19.393133    3.056049    2.453178
     77          1           0      -19.753951    5.990363   -0.669932
     78          1           0      -20.121373    7.032214    0.683865
     79          1           0      -21.424723    5.998326   -0.000724
     80         12           0       16.652657   -0.625822    0.389965
     81          6           0       15.361129    2.301067   -1.116763
     82          6           0       18.317253    1.372465    2.618202
     83          6           0       18.352271   -3.294659    1.367943
     84          6           0       15.278881   -2.471592   -2.247710
     85          7           0       16.944631    1.600367    0.606730
     86          6           0       16.211607    2.578210   -0.070941
     87          6           0       16.367214    3.943385    0.643431
     88          6           0       17.342228    3.618084    1.833375
     89          6           0       17.551112    2.080828    1.745641
     90          6           0       18.565071    4.505041    1.989796
     91          6           0       15.070835    4.630435    1.100172
     92          6           0       14.903353    6.079254    0.565422
     93          1           0       14.696612    7.142423    1.621312
     94          7           0       18.076411   -0.907403    1.872481
     95          6           0       18.676648    0.019356    2.673265
     96          6           0       19.476878   -0.691016    3.642174
     97          6           0       19.615410   -2.072638    3.189874
     98          6           0       18.668182   -2.096113    2.085862
     99          6           0       20.301042    0.064365    4.808658
    100          6           0       20.617761   -3.103674    3.485649
    101          8           0       20.653065   -4.226805    3.070216
    102          6           0       21.748983   -2.684184    4.419664
    103          7           0       16.940121   -2.576457   -0.495429
    104          6           0       17.652750   -3.515126    0.157456
    105          6           0       17.408652   -4.899053   -0.448747
    106          6           0       16.177574   -4.667338   -1.339525
    107          6           0       16.074351   -3.158527   -1.353755
    108          6           0       18.674590   -5.402160   -1.282962
    109          6           0       14.890249   -5.308188   -0.609021
    110          6           0       14.369315   -4.539074    0.635695
    111          7           0       15.434387   -0.279181   -1.305821
    112          6           0       14.966094   -1.116467   -2.245426
    113          6           0       14.182304   -0.351448   -3.177600
    114          6           0       14.270409    0.959502   -2.748329
    115          6           0       15.103157    0.993658   -1.626476
    116          6           0       13.425942   -0.822207   -4.405234
    117          6           0       13.839972    2.304708   -3.138770
    118          8           0       13.265869    2.835487   -4.047420
    119          6           0       14.461296    3.225114   -2.055163
    120          6           0       15.313177    4.190018   -2.793829
    121          8           0       16.175133    3.817614   -3.549674
    122          8           0       14.954365    5.512847   -2.590605
    123          6           0       15.563968    6.519434   -3.522760
    124          1           0       18.669324    1.998185    3.441137
    125          1           0       18.794766   -4.228284    1.722593
    126          1           0       14.644367   -2.983229   -2.974437
    127          1           0       16.923713    4.616155   -0.009425
    128          1           0       16.822795    3.850238    2.763308
    129          1           0       18.756817    5.075207    1.082020
    130          1           0       19.467077    3.963407    2.275727
    131          1           0       18.298983    5.245170    2.744033
    132          1           0       14.915270    4.770864    2.169848
    133          1           0       14.199436    4.054262    0.789889
    134          1           0       14.155858    6.128929   -0.226271
    135          1           0       15.842188    6.362511    0.091255
    136          1           0       20.103196   -0.456312    5.745530
    137          1           0       20.022061    1.099143    5.003788
    138          1           0       21.377888    0.187680    4.693587
    139          1           0       21.229828   -2.443988    5.347799
    140          1           0       22.185726   -1.805147    3.946745
    141          1           0       22.465920   -3.472693    4.650565
    142          1           0       17.120870   -5.652155    0.285589
    143          1           0       16.190346   -4.969914   -2.386845
    144          1           0       18.669313   -6.491481   -1.236639
    145          1           0       19.669550   -5.096858   -0.957246
    146          1           0       18.463553   -5.077127   -2.301627
    147          1           0       15.040179   -6.350129   -0.326893
    148          1           0       14.019523   -5.212349   -1.257820
    149          1           0       13.614859   -5.058745    1.225370
    150          1           0       13.916445   -3.613021    0.281164
    151          1           0       15.233422   -4.292485    1.253495
    152          1           0       12.613437   -1.516956   -4.193707
    153          1           0       14.185266   -1.343898   -4.987200
    154          1           0       13.085062    0.002123   -5.031612
    155          1           0       13.595234    3.744552   -1.645405
    156          1           0       15.823652    7.284172   -2.790751
    157          1           0       14.850338    6.924813   -4.239808
    158          1           0       16.427672    6.252993   -4.131448
 ---------------------------------------------------------------------

 SCF Done:  E(RwB97XD) =  -4070.64342349     A.U. after   19 cycles

 Excitation energies and oscillator strengths:

 Excited State   1:      Singlet-A      1.5969 eV  776.40 nm  f=0.4038  <S**2>=0.000
     309 -> 315       -0.16554
     312 -> 314        0.68790
     309 <- 315       -0.11231
 This state for optimization and/or second-order correction.
 Total Energy, E(TD-HF/TD-DFT) =  -4070.58473828
 Copying the excited state density for this state as the 1-particle RhoCI density.

 Excited State   2:      Singlet-A      1.6442 eV  754.05 nm  f=0.3907  <S**2>=0.000
     310 -> 316       -0.18137
     311 -> 313        0.68467
     310 <- 316       -0.11688

 Excited State   3:      Singlet-A      2.1359 eV  580.49 nm  f=0.1333  <S**2>=0.000
     310 -> 313        0.65464
     311 -> 316        0.25213

 Excited State   4:      Singlet-A      2.1950 eV  564.86 nm  f=0.1060  <S**2>=0.000
     309 -> 314        0.63718
     312 -> 315        0.28947

 Excited State   5:      Singlet-A      3.2154 eV  385.60 nm  f=0.0019  <S**2>=0.000
     308 -> 314        0.67729

 The electronic state is 1-A.
 Alpha  occ. eigenvalues --  -46.95920 -46.93873 -19.30411 -19.30169 -19.24695
 Alpha  occ. eigenvalues --  -19.24509 -19.24250 -19.23716 -19.23567 -19.23440
 Alpha  occ. eigenvalues --  -14.47356 -14.46759 -14.46554 -14.46383 -14.44397
 Alpha  occ. eigenvalues --  -14.43857 -14.43500 -14.43450 -10.42678 -10.42396
 Alpha  occ. eigenvalues --  -10.39221 -10.39184 -10.39020 -10.38341 -10.36156
 Alpha  occ. eigenvalues --  -10.36084 -10.35617 -10.35605 -10.35421 -10.34831
 Alpha  occ. eigenvalues --  -10.34808 -10.34796 -10.34543 -10.34296 -10.34044
 Alpha  occ. eigenvalues --  -10.34015 -10.33849 -10.33558 -10.33482 -10.33403
 Alpha  occ. eigenvalues --  -10.33272 -10.33230 -10.33052 -10.33041 -10.32861
 Alpha  occ. eigenvalues --  -10.32691 -10.32669 -10.32302 -10.32289 -10.32166
 Alpha  occ. eigenvalues --  -10.32134 -10.32090 -10.32071 -10.31972 -10.31948
 Alpha  occ. eigenvalues --  -10.31887 -10.31810 -10.31582 -10.31535 -10.31410
 Alpha  occ. eigenvalues --  -10.31396 -10.31369 -10.31176 -10.31114 -10.31029
 Alpha  occ. eigenvalues --  -10.30744 -10.30712 -10.30683 -10.30608 -10.30516
 Alpha  occ. eigenvalues --  -10.30425 -10.30396 -10.30391 -10.30112 -10.30106
 Alpha  occ. eigenvalues --  -10.29854 -10.29844 -10.29694 -10.29605 -10.29529
 Alpha  occ. eigenvalues --  -10.29512 -10.29497 -10.29140 -10.29118 -10.28955
 Alpha  occ. eigenvalues --  -10.28913  -3.21783  -3.20059  -1.95351  -1.94918
 Alpha  occ. eigenvalues --   -1.94743  -1.93658  -1.93203  -1.93034  -1.19118
 Alpha  occ. eigenvalues --   -1.17886  -1.13962  -1.13307  -1.12751  -1.10473
 Alpha  occ. eigenvalues --   -1.09865  -1.09372  -1.07536  -1.07243  -1.06368
 Alpha  occ. eigenvalues --   -1.05950  -1.05904  -1.05112  -1.04043  -1.03993
 Alpha  occ. eigenvalues --   -0.95376  -0.94384  -0.90961  -0.90808  -0.90714
 Alpha  occ. eigenvalues --   -0.90688  -0.90567  -0.90189  -0.89891  -0.89710
 Alpha  occ. eigenvalues --   -0.89133  -0.88548  -0.88501  -0.88307  -0.86377
 Alpha  occ. eigenvalues --   -0.86301  -0.85861  -0.85429  -0.84438  -0.84430
 Alpha  occ. eigenvalues --   -0.83517  -0.83185  -0.83185  -0.82857  -0.82596
 Alpha  occ. eigenvalues --   -0.82147  -0.80360  -0.80360  -0.79495  -0.79390
 Alpha  occ. eigenvalues --   -0.79161  -0.78743  -0.78166  -0.78115  -0.77191
 Alpha  occ. eigenvalues --   -0.77152  -0.75247  -0.75138  -0.73801  -0.73783
 Alpha  occ. eigenvalues --   -0.71447  -0.71320  -0.71240  -0.70947  -0.70238
 Alpha  occ. eigenvalues --   -0.70097  -0.69278  -0.68068  -0.67788  -0.67458
 Alpha  occ. eigenvalues --   -0.67323  -0.67178  -0.66895  -0.66658  -0.66490
 Alpha  occ. eigenvalues --   -0.66172  -0.64324  -0.64123  -0.62452  -0.62228
 Alpha  occ. eigenvalues --   -0.62040  -0.61730  -0.61323  -0.61146  -0.60889
 Alpha  occ. eigenvalues --   -0.60769  -0.60338  -0.60138  -0.60015  -0.59575
 Alpha  occ. eigenvalues --   -0.58548  -0.58018  -0.58015  -0.57378  -0.57197
 Alpha  occ. eigenvalues --   -0.57037  -0.56705  -0.56626  -0.56228  -0.56150
 Alpha  occ. eigenvalues --   -0.55404  -0.55400  -0.55343  -0.54966  -0.54846
 Alpha  occ. eigenvalues --   -0.54666  -0.54637  -0.54366  -0.54245  -0.54100
 Alpha  occ. eigenvalues --   -0.53867  -0.53747  -0.53607  -0.53507  -0.53289
 Alpha  occ. eigenvalues --   -0.53251  -0.52722  -0.52306  -0.52193  -0.52036
 Alpha  occ. eigenvalues --   -0.51945  -0.51848  -0.51778  -0.51696  -0.51473
 Alpha  occ. eigenvalues --   -0.51332  -0.51269  -0.51192  -0.51008  -0.50897
 Alpha  occ. eigenvalues --   -0.50701  -0.50377  -0.50228  -0.50184  -0.50000
 Alpha  occ. eigenvalues --   -0.49907  -0.49704  -0.49567  -0.49454  -0.49442
 Alpha  occ. eigenvalues --   -0.49101  -0.48994  -0.48855  -0.48466  -0.48424
 Alpha  occ. eigenvalues --   -0.48405  -0.48101  -0.48080  -0.47969  -0.47868
 Alpha  occ. eigenvalues --   -0.47859  -0.47524  -0.47461  -0.47270  -0.47238
 Alpha  occ. eigenvalues --   -0.47082  -0.46670  -0.46513  -0.46193  -0.46030
 Alpha  occ. eigenvalues --   -0.45699  -0.45687  -0.45632  -0.45502  -0.45395
 Alpha  occ. eigenvalues --   -0.45319  -0.45289  -0.45030  -0.44879  -0.44823
 Alpha  occ. eigenvalues --   -0.44426  -0.44332  -0.44065  -0.43976  -0.43925
 Alpha  occ. eigenvalues --   -0.43738  -0.43553  -0.43547  -0.43407  -0.43332
 Alpha  occ. eigenvalues --   -0.43118  -0.42843  -0.42832  -0.42567  -0.42307
 Alpha  occ. eigenvalues --   -0.42263  -0.41979  -0.41752  -0.41681  -0.41016
 Alpha  occ. eigenvalues --   -0.40330  -0.40269  -0.40052  -0.40049  -0.39845
 Alpha  occ. eigenvalues --   -0.39408  -0.39185  -0.39050  -0.38681  -0.38586
 Alpha  occ. eigenvalues --   -0.38392  -0.38251  -0.36438  -0.36271  -0.36076
 Alpha  occ. eigenvalues --   -0.36012  -0.35682  -0.35482  -0.33864  -0.33697
 Alpha  occ. eigenvalues --   -0.33307  -0.33283  -0.32825  -0.32593  -0.32446
 Alpha  occ. eigenvalues --   -0.32409  -0.32249  -0.31261  -0.26556  -0.26139
 Alpha  occ. eigenvalues --   -0.23429  -0.22940
 Alpha virt. eigenvalues --   -0.07569  -0.07440   0.00355   0.00448   0.02431
 Alpha virt. eigenvalues --    0.02559   0.04457   0.04544   0.04763   0.06360
 Alpha virt. eigenvalues --    0.07284   0.07518   0.07877   0.07983   0.08374

 Mulliken charges:
               1
     1  Mg   0.971281
     2  C   -0.006197
     3  C   -0.072378
     4  C   -0.076322
     5  C   -0.099568
     6  N   -0.341044
     7  C   -0.009282
     8  C   -0.022290
     9  C   -0.153822
    10  C    0.065429
    11  C    0.013350
    12  C   -0.006069
    13  C   -0.111462
    14  H    0.047890
    15  N   -0.435210
    16  C    0.162631
    17  C   -0.218402
    18  C   -0.077926
    19  C    0.134257
    20  C    0.083610
    21  C    0.066488
    22  O   -0.256634
    23  C   -0.006494
    24  N   -0.468456
    25  C    0.098938
    26  C   -0.069503
    27  C   -0.080524
    28  C    0.139982
    29  C    0.040735
    30  C   -0.043669
    31  C   -0.003975
    32  N   -0.428258
    33  C    0.106820
    34  C   -0.178883
    35  C    0.017662
    36  C    0.137088
    37  C    0.064717
    38  C    0.098803
    39  O   -0.191654
    40  C   -0.123743
    41  C    0.249270
    42  O   -0.247054
    43  O   -0.362877
    44  C    0.139164
    45  H   -0.004138
    46  H    0.019902
    47  H   -0.001763
    48  H    0.044492
    49  H    0.034714
    50  H    0.042266
    51  H    0.043421
    52  H    0.037669
    53  H    0.035397
    54  H    0.054667
    55  H    0.050979
    56  H    0.052969
    57  H    0.065854
    58  H    0.049326
    59  H    0.025689
    60  H    0.051235
    61  H    0.045688
    62  H    0.060782
    63  H    0.028055
    64  H    0.023081
    65  H    0.041829
    66  H    0.042123
    67  H    0.041594
    68  H    0.022328
    69  H    0.020601
    70  H    0.035313
    71  H    0.017920
    72  H    0.051244
    73  H    0.062367
    74  H    0.045003
    75  H    0.051497
    76  H    0.073868
    77  H    0.058002
    78  H    0.059971
    79  H    0.069637
    80  Mg   0.946089
    81  C   -0.040703
    82  C   -0.093405
    83  C   -0.065106
    84  C   -0.068473
    85  N   -0.371944
    86  C    0.008991
    87  C   -0.037729
    88  C   -0.103123
    89  C    0.075440
    90  C    0.021439
    91  C    0.015551
    92  C   -0.142084
    93  H    0.025671
    94  N   -0.445313
    95  C    0.174587
    96  C   -0.128341
    97  C   -0.081849
    98  C    0.149800
    99  C    0.017989
   100  C    0.023503
   101  O   -0.210379
   102  C   -0.006114
   103  N   -0.331136
   104  C    0.048294
   105  C   -0.089153
   106  C   -0.066737
   107  C    0.055842
   108  C    0.021692
   109  C   -0.041409
   110  C   -0.066600
   111  N   -0.411843
   112  C    0.080578
   113  C   -0.175918
   114  C   -0.085160
   115  C    0.178101
   116  C    0.073486
   117  C    0.147722
   118  O   -0.174309
   119  C   -0.066702
   120  C    0.252295
   121  O   -0.231183
   122  O   -0.382088
   123  C    0.126238
   124  H   -0.009997
   125  H    0.025902
   126  H   -0.003857
   127  H    0.040960
   128  H    0.033932
   129  H    0.030258
   130  H    0.043374
   131  H    0.031365
   132  H    0.042697
   133  H    0.032917
   134  H    0.067802
   135  H    0.036435
   136  H    0.048997
   137  H    0.027013
   138  H    0.053890
   139  H    0.041795
   140  H    0.056604
   141  H    0.049713
   142  H    0.042179
   143  H    0.039984
   144  H    0.039867
   145  H    0.057680
   146  H    0.036752
   147  H    0.045295
   148  H    0.027657
   149  H    0.048343
   150  H    0.041024
   151  H    0.039432
   152  H    0.051860
   153  H    0.041835
   154  H    0.060814
   155  H    0.062864
   156  H    0.052989
   157  H    0.061546
   158  H    0.073574
 Sum of Mulliken charges =  -0.00000

 Dipole moment (field-independent basis, Debye):
    X=              2.5042    Y=              2.1401    Z=              4.8626  Tot=              5.8733
 Quadrupole moment (field-independent basis, Debye-Ang):
   XX=           -645.0114   YY=           -468.3151   ZZ=           -517.7955
   XY=             31.4400   XZ=             34.0458   YZ=             12.3564

 Normal termination of Gaussian 16 at Mon Sep 20 03:42:57 2021.
