 Gaussian 16, Revision A.03,
 Gaussian 16:  ES64L-G16RevA.03 25-Dec-2016

 --------------------------------
 #p wB97XD/Def2SVP td=(nstates=5)
 --------------------------------

 --------------------------------
 TDDFT excited states in gaussian
 --------------------------------
 Symbolic Z-matrix:
 Charge =  0 Multiplicity = 1

                         Standard orientation:
 ---------------------------------------------------------------------
 Center     Atomic      Atomic             Coordinates (Angstroms)
 Number     Number       Type             X           Y           Z
 ---------------------------------------------------------------------
      1         12           0       24.620529   -0.868421    0.167631
      2          6           0       26.385283    2.153938   -0.582836
      3          6           0       24.000956    0.436561    3.258944
      4          6           0       23.454773   -3.695376    1.007846
      5          6           0       26.317663   -2.346031   -2.493584
      6          7           0       25.173793    1.061380    1.100588
      7          6           0       25.800223    2.157896    0.685365
      8          6           0       25.711595    3.340263    1.696072
      9          6           0       25.459648    2.509785    3.033543
     10          6           0       24.806889    1.276562    2.434383
     11          6           0       26.744010    2.090764    3.741594
     12          6           0       24.514941    4.300683    1.384075
     13          6           0       24.549420    5.646216    2.114626
     14          1           0       24.059194    6.830153    1.425191
     15          7           0       23.437843   -1.372047    1.667786
     16          6           0       23.299180   -0.716310    2.845100
     17          6           0       22.304768   -1.484383    3.624773
     18          6           0       22.018290   -2.743235    2.882267
     19          6           0       22.990868   -2.665115    1.822377
     20          6           0       21.698495   -0.987769    4.901314
     21          6           0       21.032595   -3.847317    3.100304
     22          8           0       21.106480   -4.958817    2.472863
     23          6           0       20.017200   -3.624538    4.145476
     24          7           0       25.007889   -2.814141   -0.481801
     25          6           0       24.322196   -3.853792    0.005984
     26          6           0       24.566755   -5.095391   -0.799350
     27          6           0       25.378770   -4.630278   -2.093203
     28          6           0       25.538518   -3.129822   -1.744804
     29          6           0       25.339400   -6.213958   -0.086722
     30          6           0       24.781080   -5.007787   -3.471852
     31          6           0       23.489747   -4.253080   -3.695403
     32          7           0       25.958109   -0.196241   -1.404023
     33          6           0       26.563604   -0.987014   -2.391307
     34          6           0       27.464877   -0.106660   -3.157304
     35          6           0       27.332717    1.139550   -2.547927
     36          6           0       26.427476    1.037845   -1.453173
     37          6           0       28.311477   -0.508994   -4.227738
     38          6           0       27.764458    2.527874   -2.551633
     39          8           0       28.451560    3.220315   -3.303902
     40          6           0       27.261896    3.212489   -1.204577
     41          6           0       26.625911    4.525478   -1.571855
     42          8           0       25.566292    4.561099   -2.230114
     43          8           0       27.227655    5.515633   -0.895069
     44          6           0       26.624652    6.842545   -1.191458
     45          1           0       23.947559    0.642553    4.329765
     46          1           0       22.992442   -4.666933    1.194303
     47          1           0       26.815487   -2.717916   -3.390984
     48          1           0       26.625027    3.927954    1.789269
     49          1           0       24.766322    3.017859    3.703529
     50          1           0       27.623625    2.321437    3.140771
     51          1           0       26.656351    1.014379    3.890601
     52          1           0       26.796824    2.528010    4.738992
     53          1           0       23.600278    3.884001    1.805772
     54          1           0       24.429978    4.475182    0.310922
     55          1           0       25.529826    5.837337    2.551874
     56          1           0       23.877695    5.587160    2.971071
     57          1           0       22.225374   -0.113395    5.281333
     58          1           0       21.868941   -1.756386    5.654896
     59          1           0       20.629122   -0.800800    4.802241
     60          1           0       20.515018   -3.452179    5.099949
     61          1           0       19.344997   -4.480595    4.099006
     62          1           0       19.469082   -2.710263    3.916094
     63          1           0       23.627601   -5.550359   -1.111473
     64          1           0       26.385487   -5.048197   -2.116402
     65          1           0       24.805289   -7.163939   -0.055633
     66          1           0       25.582126   -5.868732    0.917865
     67          1           0       26.330666   -6.414833   -0.492254
     68          1           0       24.541281   -6.070079   -3.503116
     69          1           0       25.451439   -4.794469   -4.304538
     70          1           0       22.755386   -4.868095   -3.176459
     71          1           0       23.264634   -4.191561   -4.760649
     72          1           0       23.506653   -3.280588   -3.203002
     73          1           0       28.215864    0.257362   -4.996845
     74          1           0       28.028882   -1.490076   -4.608817
     75          1           0       29.279472   -0.518498   -3.726987
     76          1           0       28.140310    3.345345   -0.573815
     77          1           0       27.429894    7.491180   -1.536552
     78          1           0       26.081540    7.143229   -0.295342
     79          1           0       25.946813    6.884214   -2.044767
     80         12           0      -25.508945   -0.457860   -0.170957
     81          6           0      -23.797897    2.571659   -0.697546
     82          6           0      -25.994402    0.545245    3.122780
     83          6           0      -26.824238   -3.460397    0.360408
     84          6           0      -24.184929   -1.679004   -3.276803
     85          7           0      -24.945844    1.314129    1.058600
     86          6           0      -24.348953    2.483172    0.566122
     87          6           0      -24.606309    3.620153    1.537626
     88          6           0      -25.048837    2.928737    2.858543
     89          6           0      -25.356499    1.501307    2.313905
     90          6           0      -24.049972    3.013921    4.055100
     91          6           0      -25.602734    4.713161    1.016797
     92          6           0      -25.311927    6.177198    1.570649
     93          1           0      -24.161141    6.349597    2.565626
     94          7           0      -26.382994   -1.252657    1.423452
     95          6           0      -26.558715   -0.664987    2.664386
     96          6           0      -27.352360   -1.503346    3.515860
     97          6           0      -27.504228   -2.729877    2.793262
     98          6           0      -26.932919   -2.493325    1.479466
     99          6           0      -27.743973   -1.127366    4.977530
    100          6           0      -28.120101   -4.013023    3.246676
    101          8           0      -28.042440   -5.057281    2.556408
    102          6           0      -28.846056   -4.335505    4.585905
    103          7           0      -25.289555   -2.398843   -1.154048
    104          6           0      -26.032305   -3.458258   -0.781427
    105          6           0      -26.036908   -4.535794   -1.894782
    106          6           0      -25.182820   -3.989591   -3.044548
    107          6           0      -24.896137   -2.536691   -2.459745
    108          6           0      -25.705285   -5.894872   -1.358225
    109          6           0      -25.820156   -3.975993   -4.450590
    110          6           0      -27.127225   -3.155189   -4.577206
    111          7           0      -24.185806    0.225709   -1.705092
    112          6           0      -23.905502   -0.311522   -2.915296
    113          6           0      -23.255704    0.737815   -3.699104
    114          6           0      -23.190016    1.925812   -2.918530
    115          6           0      -23.734030    1.552963   -1.665357
    116          6           0      -22.846296    0.629493   -5.165580
    117          6           0      -22.772714    3.291320   -2.892403
    118          8           0      -22.334921    4.065380   -3.739478
    119          6           0      -23.111643    3.782321   -1.338224
    120          6           0      -21.854140    4.354134   -0.711043
    121          8           0      -20.967559    3.670150   -0.238446
    122          8           0      -21.911519    5.728512   -0.663497
    123          6           0      -20.677260    6.480131   -0.460452
    124          1           0      -26.198489    1.012567    4.088204
    125          1           0      -27.357075   -4.392522    0.558184
    126          1           0      -23.934031   -2.076853   -4.262006
    127          1           0      -23.674053    4.153924    1.721680
    128          1           0      -25.988078    3.392423    3.158698
    129          1           0      -23.897689    1.964476    4.304999
    130          1           0      -24.528815    3.465908    4.924564
    131          1           0      -23.071422    3.472059    3.911592
    132          1           0      -26.619543    4.519340    1.356903
    133          1           0      -25.609233    4.685437   -0.072074
    134          1           0      -26.174233    6.473768    2.167990
    135          1           0      -25.161420    6.824317    0.706882
    136          1           0      -27.683772   -2.036633    5.576864
    137          1           0      -28.767987   -0.763920    5.056690
    138          1           0      -27.206189   -0.355672    5.528123
    139          1           0      -29.673729   -3.644983    4.750342
    140          1           0      -28.165425   -4.348786    5.437136
    141          1           0      -29.479429   -5.221112    4.550744
    142          1           0      -27.085882   -4.683609   -2.148272
    143          1           0      -24.223378   -4.497373   -2.939796
    144          1           0      -26.584862   -6.526553   -1.232632
    145          1           0      -25.149271   -5.800095   -0.425366
    146          1           0      -25.013617   -6.464320   -1.980049
    147          1           0      -26.062969   -5.025039   -4.621072
    148          1           0      -25.091958   -3.641817   -5.190208
    149          1           0      -26.912716   -2.392407   -5.325431
    150          1           0      -27.322112   -2.722516   -3.595885
    151          1           0      -28.013566   -3.751751   -4.793664
    152          1           0      -23.102487    1.519797   -5.739181
    153          1           0      -23.410458   -0.147280   -5.680967
    154          1           0      -21.792535    0.351808   -5.202098
    155          1           0      -23.813614    4.606449   -1.467852
    156          1           0      -20.097027    5.927276    0.278787
    157          1           0      -20.814697    7.491774   -0.078471
    158          1           0      -20.223857    6.564898   -1.448077
 ---------------------------------------------------------------------

 SCF Done:  E(RwB97XD) =  -4070.62086141     A.U. after   20 cycles

 Excitation energies and oscillator strengths:

 Excited State   1:      Singlet-A      1.6019 eV  773.96 nm  f=0.3996  <S**2>=0.000
     309 -> 316       -0.17291
     311 -> 313        0.68565
     309 <- 316       -0.11420
 This state for optimization and/or second-order correction.
 Total Energy, E(TD-HF/TD-DFT) =  -4070.56199127
 Copying the excited state density for this state as the 1-particle RhoCI density.

 Excited State   2:      Singlet-A      1.6217 eV  764.55 nm  f=0.3887  <S**2>=0.000
     310 -> 315       -0.18182
     312 -> 314        0.68329
     310 <- 315       -0.11455

 Excited State   3:      Singlet-A      2.1364 eV  580.34 nm  f=0.1426  <S**2>=0.000
     309 -> 313        0.65457
     311 -> 316        0.24821

 Excited State   4:      Singlet-A      2.1386 eV  579.75 nm  f=0.1025  <S**2>=0.000
     310 -> 314        0.63805
     312 -> 315        0.28186

 Excited State   5:      Singlet-A      3.3014 eV  375.55 nm  f=0.0076  <S**2>=0.000
     307 -> 314       -0.43937
     308 -> 314        0.49070
     312 -> 315        0.16936

 The electronic state is 1-A.
 Alpha  occ. eigenvalues --  -46.95262 -46.94092 -19.31463 -19.29486 -19.24405
 Alpha  occ. eigenvalues --  -19.24187 -19.23956 -19.23850 -19.23427 -19.23188
 Alpha  occ. eigenvalues --  -14.47180 -14.47005 -14.46015 -14.45987 -14.44903
 Alpha  occ. eigenvalues --  -14.43985 -14.43959 -14.43127 -10.42961 -10.42901
 Alpha  occ. eigenvalues --  -10.39609 -10.39494 -10.39395 -10.38376 -10.35646
 Alpha  occ. eigenvalues --  -10.35416 -10.35397 -10.35130 -10.34961 -10.34872
 Alpha  occ. eigenvalues --  -10.34801 -10.34770 -10.34575 -10.34553 -10.34509
 Alpha  occ. eigenvalues --  -10.34345 -10.34161 -10.33860 -10.33837 -10.33793
 Alpha  occ. eigenvalues --  -10.33736 -10.33251 -10.33209 -10.33021 -10.32780
 Alpha  occ. eigenvalues --  -10.32432 -10.32328 -10.32308 -10.32297 -10.32204
 Alpha  occ. eigenvalues --  -10.32112 -10.32110 -10.32041 -10.31832 -10.31823
 Alpha  occ. eigenvalues --  -10.31754 -10.31674 -10.31629 -10.31573 -10.31514
 Alpha  occ. eigenvalues --  -10.31476 -10.31476 -10.31439 -10.31425 -10.31392
 Alpha  occ. eigenvalues --  -10.31154 -10.30896 -10.30649 -10.30599 -10.30583
 Alpha  occ. eigenvalues --  -10.30240 -10.30211 -10.30129 -10.30123 -10.30046
 Alpha  occ. eigenvalues --  -10.30037 -10.29958 -10.29644 -10.29438 -10.29421
 Alpha  occ. eigenvalues --  -10.29319 -10.29240 -10.28832 -10.28770 -10.28745
 Alpha  occ. eigenvalues --  -10.28439  -3.21273  -3.20251  -1.94832  -1.94396
 Alpha  occ. eigenvalues --   -1.94253  -1.93828  -1.93395  -1.93232  -1.18787
 Alpha  occ. eigenvalues --   -1.17614  -1.11681  -1.10817  -1.10642  -1.09645
 Alpha  occ. eigenvalues --   -1.09396  -1.08799  -1.06532  -1.06360  -1.05734
 Alpha  occ. eigenvalues --   -1.05482  -1.05235  -1.05222  -1.04401  -1.04130
 Alpha  occ. eigenvalues --   -0.94150  -0.93892  -0.91375  -0.91044  -0.91013
 Alpha  occ. eigenvalues --   -0.90414  -0.90133  -0.90114  -0.89754  -0.89554
 Alpha  occ. eigenvalues --   -0.89281  -0.89193  -0.88785  -0.87250  -0.86840
 Alpha  occ. eigenvalues --   -0.85777  -0.85704  -0.85227  -0.84859  -0.84524
 Alpha  occ. eigenvalues --   -0.84090  -0.83485  -0.82995  -0.82578  -0.82517
 Alpha  occ. eigenvalues --   -0.81967  -0.80734  -0.80673  -0.79104  -0.78855
 Alpha  occ. eigenvalues --   -0.78811  -0.78679  -0.77818  -0.77765  -0.76939
 Alpha  occ. eigenvalues --   -0.76775  -0.74715  -0.74511  -0.73592  -0.73042
 Alpha  occ. eigenvalues --   -0.71826  -0.71759  -0.71120  -0.70794  -0.70327
 Alpha  occ. eigenvalues --   -0.69609  -0.69523  -0.69136  -0.67211  -0.67183
 Alpha  occ. eigenvalues --   -0.66859  -0.66801  -0.66556  -0.66187  -0.66146
 Alpha  occ. eigenvalues --   -0.66060  -0.64242  -0.63633  -0.62938  -0.62398
 Alpha  occ. eigenvalues --   -0.61721  -0.61452  -0.60934  -0.60796  -0.60455
 Alpha  occ. eigenvalues --   -0.60048  -0.59509  -0.59395  -0.59231  -0.58919
 Alpha  occ. eigenvalues --   -0.58256  -0.57898  -0.57821  -0.57674  -0.57456
 Alpha  occ. eigenvalues --   -0.57224  -0.56787  -0.56739  -0.56429  -0.55854
 Alpha  occ. eigenvalues --   -0.55776  -0.55400  -0.55205  -0.55125  -0.54991
 Alpha  occ. eigenvalues --   -0.54838  -0.54683  -0.54642  -0.54492  -0.54284
 Alpha  occ. eigenvalues --   -0.54277  -0.53917  -0.53797  -0.53492  -0.53273
 Alpha  occ. eigenvalues --   -0.53092  -0.52957  -0.52608  -0.52497  -0.51997
 Alpha  occ. eigenvalues --   -0.51904  -0.51841  -0.51495  -0.51411  -0.51162
 Alpha  occ. eigenvalues --   -0.51133  -0.51115  -0.50979  -0.50934  -0.50670
 Alpha  occ. eigenvalues --   -0.50556  -0.50477  -0.50384  -0.50346  -0.50136
 Alpha  occ. eigenvalues --   -0.49827  -0.49672  -0.49582  -0.49354  -0.49204
 Alpha  occ. eigenvalues --   -0.48658  -0.48612  -0.48438  -0.48316  -0.48275
 Alpha  occ. eigenvalues --   -0.48257  -0.48065  -0.47782  -0.47698  -0.47388
 Alpha  occ. eigenvalues --   -0.47142  -0.47067  -0.46673  -0.46465  -0.46414
 Alpha  occ. eigenvalues --   -0.46376  -0.46148  -0.46014  -0.45986  -0.45959
 Alpha  occ. eigenvalues --   -0.45902  -0.45901  -0.45387  -0.45341  -0.45287
 Alpha  occ. eigenvalues --   -0.45115  -0.44966  -0.44925  -0.44621  -0.44524
 Alpha  occ. eigenvalues --   -0.44521  -0.44299  -0.43878  -0.43866  -0.43792
 Alpha  occ. eigenvalues --   -0.43673  -0.43569  -0.43508  -0.43391  -0.42992
 Alpha  occ. eigenvalues --   -0.42824  -0.42703  -0.42648  -0.42525  -0.42415
 Alpha  occ. eigenvalues --   -0.42086  -0.41988  -0.41515  -0.41345  -0.41153
 Alpha  occ. eigenvalues --   -0.40566  -0.40323  -0.39753  -0.39652  -0.39589
 Alpha  occ. eigenvalues --   -0.39320  -0.39153  -0.38901  -0.38675  -0.38265
 Alpha  occ. eigenvalues --   -0.38151  -0.37975  -0.36249  -0.36034  -0.35744
 Alpha  occ. eigenvalues --   -0.35703  -0.35309  -0.35252  -0.33681  -0.33319
 Alpha  occ. eigenvalues --   -0.33150  -0.32967  -0.32766  -0.32248  -0.31968
 Alpha  occ. eigenvalues --   -0.31646  -0.31582  -0.31445  -0.26038  -0.25969
 Alpha  occ. eigenvalues --   -0.23190  -0.22888
 Alpha virt. eigenvalues --   -0.07607  -0.07070   0.00215   0.00518   0.02005
 Alpha virt. eigenvalues --    0.02020   0.04080   0.04346   0.04674   0.06301
 Alpha virt. eigenvalues --    0.07137   0.07292   0.07370   0.07768   0.08600

 Mulliken charges:
               1
     1  Mg   0.978518
     2  C   -0.019860
     3  C   -0.101303
     4  C   -0.061290
     5  C   -0.071035
     6  N   -0.323235
     7  C   -0.008764
     8  C   -0.058126
     9  C   -0.138129
    10  C    0.062032
    11  C    0.058282
    12  C    0.013979
    13  C   -0.126923
    14  H    0.052390
    15  N   -0.518439
    16  C    0.183500
    17  C   -0.196022
    18  C   -0.037094
    19  C    0.166775
    20  C    0.060946
    21  C    0.056801
    22  O   -0.280025
    23  C    0.001470
    24  N   -0.410095
    25  C    0.066154
    26  C   -0.084853
    27  C   -0.063885
    28  C    0.089576
    29  C    0.031886
    30  C   -0.016700
    31  C   -0.058143
    32  N   -0.398814
    33  C    0.097326
    34  C   -0.187969
    35  C   -0.040064
    36  C    0.126338
    37  C    0.081439
    38  C    0.128865
    39  O   -0.224761
    40  C   -0.076997
    41  C    0.275946
    42  O   -0.284581
    43  O   -0.335661
    44  C    0.120647
    45  H    0.007857
    46  H    0.010699
    47  H   -0.017352
    48  H    0.026008
    49  H    0.022612
    50  H    0.047100
    51  H    0.037791
    52  H    0.040074
    53  H    0.035403
    54  H    0.067715
    55  H    0.038930
    56  H    0.040618
    57  H    0.029636
    58  H    0.048927
    59  H    0.062113
    60  H    0.057852
    61  H    0.061880
    62  H    0.053113
    63  H    0.042933
    64  H    0.035653
    65  H    0.045326
    66  H    0.034316
    67  H    0.025693
    68  H    0.032615
    69  H    0.029405
    70  H    0.029227
    71  H    0.042213
    72  H    0.049662
    73  H    0.070894
    74  H    0.031396
    75  H    0.069392
    76  H    0.065863
    77  H    0.061259
    78  H    0.062795
    79  H    0.070281
    80  Mg   0.971906
    81  C    0.007040
    82  C   -0.061539
    83  C   -0.063012
    84  C   -0.063055
    85  N   -0.337602
    86  C   -0.003189
    87  C   -0.035433
    88  C   -0.097869
    89  C    0.010256
    90  C    0.027418
    91  C   -0.006683
    92  C   -0.129108
    93  H    0.034073
    94  N   -0.495051
    95  C    0.189652
    96  C   -0.136846
    97  C   -0.054476
    98  C    0.137765
    99  C    0.058961
   100  C    0.036266
   101  O   -0.271627
   102  C   -0.007106
   103  N   -0.340815
   104  C    0.077666
   105  C   -0.129600
   106  C   -0.020058
   107  C    0.012733
   108  C    0.021354
   109  C   -0.019647
   110  C   -0.045877
   111  N   -0.428901
   112  C    0.150746
   113  C   -0.205196
   114  C    0.004367
   115  C    0.122705
   116  C    0.072270
   117  C    0.116787
   118  O   -0.207615
   119  C   -0.128508
   120  C    0.274772
   121  O   -0.237548
   122  O   -0.379798
   123  C    0.133616
   124  H   -0.002998
   125  H    0.023054
   126  H   -0.004372
   127  H    0.030745
   128  H    0.033136
   129  H    0.030645
   130  H    0.034869
   131  H    0.058456
   132  H    0.029799
   133  H    0.037220
   134  H    0.054508
   135  H    0.069163
   136  H    0.037186
   137  H    0.051147
   138  H    0.045642
   139  H    0.030994
   140  H    0.073534
   141  H    0.048616
   142  H    0.037212
   143  H    0.038770
   144  H    0.043487
   145  H    0.041851
   146  H    0.022299
   147  H    0.033290
   148  H    0.039440
   149  H    0.046935
   150  H    0.038531
   151  H    0.043017
   152  H    0.057624
   153  H    0.018519
   154  H    0.059409
   155  H    0.065563
   156  H    0.060221
   157  H    0.053706
   158  H    0.064584
 Sum of Mulliken charges =  -0.00000

 Dipole moment (field-independent basis, Debye):
    X=             -5.0629    Y=              0.9042    Z=              7.3532  Tot=              8.9733
 Quadrupole moment (field-independent basis, Debye-Ang):
   XX=           -340.9103   YY=           -500.4908   ZZ=           -475.0181
   XY=            -54.4759   XZ=             47.2077   YZ=             59.0208

 Normal termination of Gaussian 16 at Sun Sep 19 08:50:18 2021.
