 Gaussian 16, Revision A.03,
 Gaussian 16:  ES64L-G16RevA.03 25-Dec-2016

 --------------------------------
 #p wB97XD/Def2SVP td=(nstates=5)
 --------------------------------

 --------------------------------
 TDDFT excited states in gaussian
 --------------------------------
 Symbolic Z-matrix:
 Charge =  0 Multiplicity = 1

                         Standard orientation:
 ---------------------------------------------------------------------
 Center     Atomic      Atomic             Coordinates (Angstroms)
 Number     Number       Type             X           Y           Z
 ---------------------------------------------------------------------
      1         12           0      -31.709693   -0.183420   -0.289419
      2          6           0      -28.782833    1.535860   -0.029484
      3          6           0      -30.041288   -2.941750    0.990145
      4          6           0      -34.674951   -1.754965   -0.188986
      5          6           0      -33.433885    2.816587   -0.931987
      6          7           0      -29.690557   -0.559000    0.645464
      7          6           0      -28.674453    0.323859    0.571528
      8          6           0      -27.444648   -0.165628    1.244848
      9          6           0      -27.772074   -1.785792    1.225808
     10          6           0      -29.286975   -1.800255    0.931884
     11          6           0      -26.894040   -2.568168    0.205054
     12          6           0      -27.373456    0.396539    2.655756
     13          6           0      -28.601363    0.163522    3.652593
     14          1           0      -28.352271   -0.156282    5.121292
     15          7           0      -32.287363   -2.069506    0.310974
     16          6           0      -31.424583   -3.129925    0.687004
     17          6           0      -32.217214   -4.312611    0.743028
     18          6           0      -33.548094   -4.024548    0.467122
     19          6           0      -33.586725   -2.590609    0.134098
     20          6           0      -31.527712   -5.615270    1.094389
     21          6           0      -34.731047   -4.958374    0.561039
     22          8           0      -34.468587   -6.133627    0.918965
     23          6           0      -36.103442   -4.584153    0.486692
     24          7           0      -33.782919    0.512438   -0.317111
     25          6           0      -34.822463   -0.370526   -0.322552
     26          6           0      -36.177935    0.359619   -0.478395
     27          6           0      -35.738173    1.843504   -0.716470
     28          6           0      -34.228433    1.746661   -0.576085
     29          6           0      -37.050389   -0.213283   -1.574826
     30          6           0      -36.438046    2.841289    0.352240
     31          6           0      -36.932278    4.159565   -0.254279
     32          7           0      -31.268017    1.860946   -0.476513
     33          6           0      -31.991952    2.917751   -0.927869
     34          6           0      -31.057354    3.970490   -1.219656
     35          6           0      -29.727076    3.506145   -0.932883
     36          6           0      -29.930988    2.221068   -0.458074
     37          6           0      -31.418816    5.389410   -1.497646
     38          6           0      -28.333593    3.799570   -0.832130
     39          8           0      -27.817441    4.872135   -1.170582
     40          6           0      -27.683321    2.541261   -0.287452
     41          6           0      -26.669363    2.073464   -1.263592
     42          8           0      -25.772057    2.824283   -1.592348
     43          8           0      -26.803305    0.772425   -1.641661
     44          6           0      -25.794059    0.292296   -2.587607
     45          1           0      -29.471655   -3.863746    1.123051
     46          1           0      -35.583233   -2.329466   -0.381559
     47          1           0      -33.870334    3.745874   -1.304857
     48          1           0      -26.481413    0.066834    0.790599
     49          1           0      -27.453080   -2.257365    2.156215
     50          1           0      -26.324341   -3.340995    0.719785
     51          1           0      -26.183262   -1.853673   -0.210996
     52          1           0      -27.445076   -3.008485   -0.626973
     53          1           0      -27.116051    1.451950    2.564248
     54          1           0      -26.420271    0.002936    3.008560
     55          1           0      -29.286499   -0.639235    3.379751
     56          1           0      -29.076252    1.144170    3.644702
     57          1           0      -31.501359   -5.642796    2.183885
     58          1           0      -30.501279   -5.579695    0.731467
     59          1           0      -31.986470   -6.526183    0.708669
     60          1           0      -36.736311   -5.244504    1.080418
     61          1           0      -36.461040   -4.434961   -0.532930
     62          1           0      -36.163026   -3.649169    1.042135
     63          1           0      -36.633732    0.242046    0.505347
     64          1           0      -35.920695    2.112203   -1.756766
     65          1           0      -36.652980   -1.120169   -2.029814
     66          1           0      -37.445131    0.416825   -2.371391
     67          1           0      -37.883817   -0.635462   -1.012582
     68          1           0      -35.792056    3.119602    1.184976
     69          1           0      -37.266495    2.364342    0.875669
     70          1           0      -38.020612    4.124218   -0.294805
     71          1           0      -36.600418    4.201481   -1.291905
     72          1           0      -36.616256    5.034687    0.313729
     73          1           0      -31.906172    5.608539   -2.446918
     74          1           0      -30.481872    5.941707   -1.416246
     75          1           0      -32.118003    5.786452   -0.761635
     76          1           0      -27.183906    2.835114    0.636231
     77          1           0      -24.814823    0.438108   -2.130702
     78          1           0      -25.868845    0.752656   -3.572915
     79          1           0      -25.987874   -0.744429   -2.862423
     80         12           0       31.644766    0.392825   -0.534143
     81          6           0       29.166202   -1.781674    0.557331
     82          6           0       30.229228    2.916283    1.512065
     83          6           0       34.523506    2.086751   -0.621472
     84          6           0       33.285024   -2.388904   -1.948429
     85          7           0       30.038932    0.427079    1.189868
     86          6           0       29.046486   -0.523313    1.201726
     87          6           0       27.926490   -0.136032    2.115617
     88          6           0       28.128244    1.445658    2.215281
     89          6           0       29.571533    1.657227    1.635681
     90          6           0       27.029609    2.346099    1.454437
     91          6           0       27.977630   -1.001908    3.477631
     92          6           0       26.705344   -1.159445    4.142977
     93          1           0       26.714541   -0.692073    5.613890
     94          7           0       32.248011    2.300666    0.152980
     95          6           0       31.512382    3.195178    0.979853
     96          6           0       32.316527    4.393385    1.151145
     97          6           0       33.571133    4.199826    0.523544
     98          6           0       33.461770    2.838690   -0.101007
     99          6           0       31.880284    5.516318    2.016490
    100          6           0       34.769034    5.237646    0.580979
    101          8           0       34.570668    6.281895    1.199999
    102          6           0       35.984134    5.121584   -0.332879
    103          7           0       33.604613   -0.159716   -1.103637
    104          6           0       34.567225    0.796038   -1.145747
    105          6           0       36.033988    0.205170   -1.626280
    106          6           0       35.566720   -1.191162   -2.261506
    107          6           0       34.078671   -1.295708   -1.800040
    108          6           0       36.807257    1.070075   -2.692404
    109          6           0       36.391345   -2.381783   -1.768716
    110          6           0       37.162791   -3.279528   -2.765591
    111          7           0       31.179548   -1.581355   -0.921471
    112          6           0       31.918178   -2.556689   -1.526072
    113          6           0       31.111995   -3.737881   -1.666423
    114          6           0       30.009006   -3.457653   -0.774925
    115          6           0       30.153625   -2.132617   -0.329617
    116          6           0       31.522829   -5.028327   -2.314662
    117          6           0       28.857735   -4.060197   -0.135910
    118          8           0       28.312789   -5.098500   -0.358062
    119          6           0       28.166583   -2.962360    0.763166
    120          6           0       26.758469   -2.535400    0.293320
    121          8           0       26.480102   -2.208401   -0.840324
    122          8           0       25.841339   -2.683297    1.354242
    123          6           0       24.456929   -2.495884    1.040795
    124          1           0       29.706182    3.670164    2.102809
    125          1           0       35.530004    2.482727   -0.472218
    126          1           0       33.822772   -3.216675   -2.414348
    127          1           0       26.955626   -0.168942    1.620124
    128          1           0       28.127200    1.718439    3.271213
    129          1           0       26.577349    2.959945    2.233277
    130          1           0       26.279578    1.750922    0.934472
    131          1           0       27.583427    2.977431    0.758991
    132          1           0       28.640168   -0.419986    4.118124
    133          1           0       28.498108   -1.896154    3.133748
    134          1           0       26.469416   -2.221707    4.091964
    135          1           0       25.946475   -0.554468    3.646847
    136          1           0       30.824420    5.438239    2.275026
    137          1           0       31.950361    6.456473    1.468837
    138          1           0       32.440391    5.536560    2.951649
    139          1           0       36.606486    4.249894   -0.128112
    140          1           0       36.561959    6.040052   -0.224655
    141          1           0       35.614903    5.095067   -1.358157
    142          1           0       36.554476    0.039951   -0.683335
    143          1           0       35.477405   -1.194638   -3.348054
    144          1           0       37.711071    1.482577   -2.244948
    145          1           0       36.171186    1.892007   -3.023131
    146          1           0       37.054016    0.399674   -3.516375
    147          1           0       35.811787   -3.025573   -1.107480
    148          1           0       37.150327   -2.134047   -1.026816
    149          1           0       36.799962   -4.297273   -2.911849
    150          1           0       38.155912   -3.390143   -2.329520
    151          1           0       37.209159   -2.822913   -3.754986
    152          1           0       30.608153   -5.583484   -2.524144
    153          1           0       31.941336   -5.772787   -1.638097
    154          1           0       32.200821   -4.924196   -3.161355
    155          1           0       28.071321   -3.464654    1.726240
    156          1           0       24.083277   -2.172056    2.012738
    157          1           0       23.946165   -3.442144    0.863294
    158          1           0       24.337159   -1.820768    0.194407
 ---------------------------------------------------------------------

 SCF Done:  E(RwB97XD) =  -4070.58208815     A.U. after   19 cycles

 Excitation energies and oscillator strengths:

 Excited State   1:      Singlet-A      1.6352 eV  758.23 nm  f=0.3869  <S**2>=0.000
     309 -> 316       -0.17852
     312 -> 314        0.68609
     309 <- 316       -0.11658
 This state for optimization and/or second-order correction.
 Total Energy, E(TD-HF/TD-DFT) =  -4070.52199648
 Copying the excited state density for this state as the 1-particle RhoCI density.

 Excited State   2:      Singlet-A      1.6885 eV  734.28 nm  f=0.3927  <S**2>=0.000
     310 -> 315        0.18196
     311 -> 313        0.68311
     310 <- 315        0.11275

 Excited State   3:      Singlet-A      2.1633 eV  573.13 nm  f=0.1264  <S**2>=0.000
     310 -> 313        0.64778
     311 -> 315       -0.25634

 Excited State   4:      Singlet-A      2.1962 eV  564.55 nm  f=0.1040  <S**2>=0.000
     309 -> 314        0.63441
     312 -> 316        0.29409

 Excited State   5:      Singlet-A      3.2087 eV  386.40 nm  f=0.0008  <S**2>=0.000
     305 -> 313       -0.33673
     308 -> 313        0.59936

 The electronic state is 1-A.
 Alpha  occ. eigenvalues --  -46.96146 -46.95473 -19.31588 -19.30341 -19.25650
 Alpha  occ. eigenvalues --  -19.24758 -19.24415 -19.23309 -19.23241 -19.23235
 Alpha  occ. eigenvalues --  -14.46921 -14.46668 -14.46650 -14.46610 -14.44828
 Alpha  occ. eigenvalues --  -14.44448 -14.43616 -14.43172 -10.43936 -10.43293
 Alpha  occ. eigenvalues --  -10.40412 -10.38817 -10.38436 -10.37969 -10.36481
 Alpha  occ. eigenvalues --  -10.35901 -10.35740 -10.35701 -10.35336 -10.35293
 Alpha  occ. eigenvalues --  -10.35233 -10.35170 -10.35111 -10.34522 -10.34501
 Alpha  occ. eigenvalues --  -10.34477 -10.34449 -10.34182 -10.33594 -10.33349
 Alpha  occ. eigenvalues --  -10.33165 -10.33029 -10.32707 -10.32691 -10.32594
 Alpha  occ. eigenvalues --  -10.32555 -10.32545 -10.32507 -10.32457 -10.32437
 Alpha  occ. eigenvalues --  -10.32419 -10.32339 -10.32250 -10.32165 -10.32092
 Alpha  occ. eigenvalues --  -10.32091 -10.32018 -10.31990 -10.31809 -10.31702
 Alpha  occ. eigenvalues --  -10.31678 -10.31527 -10.31440 -10.31370 -10.31266
 Alpha  occ. eigenvalues --  -10.31187 -10.30944 -10.30931 -10.30780 -10.30737
 Alpha  occ. eigenvalues --  -10.30578 -10.30489 -10.30426 -10.30358 -10.30355
 Alpha  occ. eigenvalues --  -10.30343 -10.30214 -10.30203 -10.29662 -10.29522
 Alpha  occ. eigenvalues --  -10.29522 -10.29423 -10.29421 -10.28813 -10.28626
 Alpha  occ. eigenvalues --  -10.28553  -3.22030  -3.21377  -1.95560  -1.95203
 Alpha  occ. eigenvalues --   -1.94962  -1.94937  -1.94517  -1.94327  -1.19575
 Alpha  occ. eigenvalues --   -1.18222  -1.12983  -1.12551  -1.11234  -1.10917
 Alpha  occ. eigenvalues --   -1.10633  -1.10200  -1.06981  -1.06890  -1.06543
 Alpha  occ. eigenvalues --   -1.04963  -1.04741  -1.04379  -1.03629  -1.03600
 Alpha  occ. eigenvalues --   -0.96048  -0.94186  -0.91239  -0.91098  -0.90910
 Alpha  occ. eigenvalues --   -0.90632  -0.90263  -0.90064  -0.89710  -0.88800
 Alpha  occ. eigenvalues --   -0.88381  -0.88342  -0.87781  -0.87759  -0.87019
 Alpha  occ. eigenvalues --   -0.86008  -0.85991  -0.85290  -0.85236  -0.84702
 Alpha  occ. eigenvalues --   -0.84612  -0.84156  -0.83392  -0.83094  -0.82854
 Alpha  occ. eigenvalues --   -0.82219  -0.80569  -0.79972  -0.79748  -0.79295
 Alpha  occ. eigenvalues --   -0.78972  -0.78685  -0.78058  -0.78046  -0.76931
 Alpha  occ. eigenvalues --   -0.76888  -0.74647  -0.74478  -0.74116  -0.73326
 Alpha  occ. eigenvalues --   -0.72079  -0.71137  -0.71075  -0.70789  -0.70407
 Alpha  occ. eigenvalues --   -0.69401  -0.69167  -0.68480  -0.68472  -0.67845
 Alpha  occ. eigenvalues --   -0.67346  -0.67206  -0.66829  -0.66449  -0.66361
 Alpha  occ. eigenvalues --   -0.66094  -0.65804  -0.64790  -0.62223  -0.61707
 Alpha  occ. eigenvalues --   -0.61693  -0.61431  -0.61333  -0.60978  -0.60731
 Alpha  occ. eigenvalues --   -0.60521  -0.60376  -0.60029  -0.59974  -0.59450
 Alpha  occ. eigenvalues --   -0.58744  -0.58578  -0.58327  -0.57774  -0.57279
 Alpha  occ. eigenvalues --   -0.57092  -0.56938  -0.56682  -0.56466  -0.56214
 Alpha  occ. eigenvalues --   -0.55922  -0.55699  -0.55443  -0.55176  -0.55024
 Alpha  occ. eigenvalues --   -0.54672  -0.54494  -0.54459  -0.54407  -0.54035
 Alpha  occ. eigenvalues --   -0.53810  -0.53715  -0.53688  -0.53583  -0.53340
 Alpha  occ. eigenvalues --   -0.53018  -0.52951  -0.52814  -0.52701  -0.52323
 Alpha  occ. eigenvalues --   -0.52153  -0.52009  -0.51676  -0.51576  -0.51575
 Alpha  occ. eigenvalues --   -0.51431  -0.51143  -0.51047  -0.51041  -0.50706
 Alpha  occ. eigenvalues --   -0.50699  -0.50586  -0.50416  -0.50359  -0.50066
 Alpha  occ. eigenvalues --   -0.49919  -0.49794  -0.49547  -0.49217  -0.49033
 Alpha  occ. eigenvalues --   -0.48987  -0.48916  -0.48658  -0.48415  -0.48379
 Alpha  occ. eigenvalues --   -0.48347  -0.48072  -0.48006  -0.47877  -0.47673
 Alpha  occ. eigenvalues --   -0.47569  -0.47557  -0.47164  -0.47141  -0.46876
 Alpha  occ. eigenvalues --   -0.46821  -0.46732  -0.46585  -0.46519  -0.46476
 Alpha  occ. eigenvalues --   -0.46423  -0.46017  -0.45890  -0.45695  -0.45508
 Alpha  occ. eigenvalues --   -0.45444  -0.45347  -0.45068  -0.44746  -0.44716
 Alpha  occ. eigenvalues --   -0.44612  -0.44419  -0.44326  -0.44231  -0.44187
 Alpha  occ. eigenvalues --   -0.44167  -0.43834  -0.43740  -0.43379  -0.43303
 Alpha  occ. eigenvalues --   -0.43075  -0.42944  -0.42934  -0.42877  -0.42352
 Alpha  occ. eigenvalues --   -0.42348  -0.41703  -0.41428  -0.41096  -0.40659
 Alpha  occ. eigenvalues --   -0.40605  -0.40170  -0.39795  -0.39703  -0.39686
 Alpha  occ. eigenvalues --   -0.39470  -0.39032  -0.38991  -0.38667  -0.38229
 Alpha  occ. eigenvalues --   -0.37889  -0.37561  -0.36741  -0.36717  -0.36236
 Alpha  occ. eigenvalues --   -0.35976  -0.35529  -0.35295  -0.33993  -0.33576
 Alpha  occ. eigenvalues --   -0.33443  -0.32817  -0.32423  -0.32394  -0.32310
 Alpha  occ. eigenvalues --   -0.31931  -0.31287  -0.31134  -0.26250  -0.26222
 Alpha  occ. eigenvalues --   -0.23475  -0.22975
 Alpha virt. eigenvalues --   -0.07495  -0.07113   0.00052   0.00262   0.02218
 Alpha virt. eigenvalues --    0.02523   0.04124   0.04265   0.04466   0.04503
 Alpha virt. eigenvalues --    0.06739   0.07096   0.07361   0.08025   0.08440

 Mulliken charges:
               1
     1  Mg   0.931711
     2  C   -0.000908
     3  C   -0.065829
     4  C   -0.091427
     5  C   -0.077489
     6  N   -0.307182
     7  C    0.003933
     8  C   -0.074418
     9  C   -0.126301
    10  C    0.080295
    11  C    0.020546
    12  C    0.007890
    13  C   -0.131016
    14  H    0.036896
    15  N   -0.514701
    16  C    0.149013
    17  C   -0.151839
    18  C   -0.055403
    19  C    0.177952
    20  C    0.087248
    21  C    0.034407
    22  O   -0.270996
    23  C    0.017070
    24  N   -0.324848
    25  C    0.043518
    26  C   -0.057432
    27  C   -0.088534
    28  C    0.106018
    29  C    0.017406
    30  C   -0.009875
    31  C   -0.055796
    32  N   -0.439843
    33  C    0.094635
    34  C   -0.179716
    35  C    0.011871
    36  C    0.117754
    37  C    0.048048
    38  C    0.070919
    39  O   -0.201883
    40  C   -0.081131
    41  C    0.257101
    42  O   -0.227834
    43  O   -0.352640
    44  C    0.138922
    45  H   -0.003843
    46  H   -0.037271
    47  H   -0.005209
    48  H    0.022140
    49  H    0.037592
    50  H    0.038112
    51  H    0.026441
    52  H    0.039075
    53  H    0.025048
    54  H    0.032722
    55  H    0.078006
    56  H    0.066402
    57  H    0.053664
    58  H    0.029922
    59  H    0.063962
    60  H    0.061092
    61  H    0.077277
    62  H    0.047635
    63  H    0.049735
    64  H    0.040766
    65  H    0.036129
    66  H    0.051922
    67  H    0.027122
    68  H    0.036487
    69  H    0.027980
    70  H    0.034951
    71  H    0.031363
    72  H    0.047283
    73  H    0.038324
    74  H    0.058178
    75  H    0.037792
    76  H    0.089625
    77  H    0.063414
    78  H    0.059056
    79  H    0.050994
    80  Mg   0.961028
    81  C   -0.078238
    82  C   -0.075587
    83  C   -0.094060
    84  C   -0.090985
    85  N   -0.325292
    86  C   -0.039407
    87  C   -0.084518
    88  C   -0.134147
    89  C    0.034650
    90  C    0.014946
    91  C    0.052880
    92  C   -0.094138
    93  H    0.019832
    94  N   -0.466560
    95  C    0.174653
    96  C   -0.161958
    97  C   -0.102779
    98  C    0.203829
    99  C    0.095640
   100  C    0.076003
   101  O   -0.234460
   102  C   -0.028085
   103  N   -0.403848
   104  C    0.073713
   105  C   -0.123957
   106  C   -0.024141
   107  C    0.034529
   108  C    0.024339
   109  C   -0.029711
   110  C   -0.054235
   111  N   -0.416244
   112  C    0.139471
   113  C   -0.160933
   114  C   -0.085655
   115  C    0.221640
   116  C    0.066564
   117  C    0.109006
   118  O   -0.181752
   119  C   -0.079673
   120  C    0.276413
   121  O   -0.220985
   122  O   -0.387273
   123  C    0.130583
   124  H    0.011441
   125  H   -0.019747
   126  H   -0.007329
   127  H    0.027390
   128  H    0.037141
   129  H    0.043871
   130  H    0.052441
   131  H    0.042181
   132  H    0.036902
   133  H    0.036990
   134  H    0.063391
   135  H    0.049662
   136  H    0.010701
   137  H    0.056744
   138  H    0.066325
   139  H    0.071067
   140  H    0.057633
   141  H    0.067758
   142  H    0.055945
   143  H    0.043572
   144  H    0.039929
   145  H    0.046122
   146  H    0.045226
   147  H    0.031541
   148  H    0.018911
   149  H    0.040053
   150  H    0.034067
   151  H    0.032258
   152  H    0.049866
   153  H    0.043560
   154  H    0.043558
   155  H    0.072450
   156  H    0.046041
   157  H    0.054210
   158  H    0.067033
 Sum of Mulliken charges =  -0.00000

 Dipole moment (field-independent basis, Debye):
    X=             -1.1115    Y=             -1.2457    Z=             -1.4164  Tot=              2.1893
 Quadrupole moment (field-independent basis, Debye-Ang):
   XX=            -76.2328   YY=           -587.1512   ZZ=           -505.8554
   XY=             70.3270   XZ=              0.0133   YZ=              6.9798

 Normal termination of Gaussian 16 at Sun Sep 19 18:44:23 2021.
