 Gaussian 16, Revision A.03,
 Gaussian 16:  ES64L-G16RevA.03 25-Dec-2016

 --------------------------------
 #p wB97XD/Def2SVP td=(nstates=5)
 --------------------------------

 --------------------------------
 TDDFT excited states in gaussian
 --------------------------------
 Symbolic Z-matrix:
 Charge =  0 Multiplicity = 1

                         Standard orientation:
 ---------------------------------------------------------------------
 Center     Atomic      Atomic             Coordinates (Angstroms)
 Number     Number       Type             X           Y           Z
 ---------------------------------------------------------------------
      1         12           0       18.153190   -0.043064    0.277779
      2          6           0       15.405779   -1.656138   -0.912823
      3          6           0       19.200361    0.468259   -3.061453
      4          6           0       20.170159    2.379633    1.380760
      5          6           0       16.739218   -0.134812    3.599659
      6          7           0       17.381784   -0.570788   -1.686402
      7          6           0       16.291713   -1.192693   -1.992506
      8          6           0       16.218842   -1.611744   -3.503869
      9          6           0       17.603335   -1.162541   -4.108490
     10          6           0       18.172124   -0.375083   -2.878185
     11          6           0       18.447313   -2.257529   -4.762354
     12          6           0       14.886281   -1.009225   -4.250973
     13          6           0       14.215889    0.223040   -3.665432
     14          1           0       13.278587    1.077629   -4.518667
     15          7           0       19.490569    1.247061   -0.719872
     16          6           0       19.834132    1.265666   -2.050288
     17          6           0       20.763524    2.284409   -2.282200
     18          6           0       21.056187    2.910607   -1.009536
     19          6           0       20.190631    2.206307   -0.027180
     20          6           0       21.414211    2.449879   -3.643316
     21          6           0       22.053578    4.068550   -0.824611
     22          8           0       22.645833    4.495321   -1.841222
     23          6           0       22.368085    4.712018    0.418160
     24          7           0       18.320153    1.125238    2.245165
     25          6           0       19.363462    1.890706    2.396207
     26          6           0       19.579522    2.341102    3.869039
     27          6           0       18.513201    1.496125    4.599760
     28          6           0       17.762890    0.719395    3.443486
     29          6           0       20.942060    2.079251    4.401611
     30          6           0       17.542770    2.378620    5.517869
     31          6           0       17.692874    2.181936    7.082442
     32          7           0       16.510768   -0.820649    1.251207
     33          6           0       16.058724   -0.833577    2.576682
     34          6           0       14.801560   -1.641913    2.643824
     35          6           0       14.524245   -1.922628    1.298388
     36          6           0       15.559988   -1.383112    0.479213
     37          6           0       14.001296   -1.999600    3.799573
     38          6           0       13.546092   -2.516301    0.507798
     39          8           0       12.488580   -3.114158    0.755326
     40          6           0       14.104028   -2.460142   -0.942733
     41          6           0       14.171557   -3.906376   -1.488380
     42          8           0       13.683450   -4.334059   -2.520555
     43          8           0       14.885683   -4.743008   -0.658097
     44          6           0       14.991816   -6.155226   -1.043613
     45          1           0       19.413088    0.614463   -4.122354
     46          1           0       20.914058    3.043054    1.826328
     47          1           0       16.416170   -0.299078    4.629655
     48          1           0       16.272172   -2.700670   -3.518302
     49          1           0       17.489094   -0.382320   -4.861664
     50          1           0       19.362138   -2.406194   -4.189018
     51          1           0       18.750140   -1.994502   -5.776531
     52          1           0       17.949437   -3.216576   -4.905644
     53          1           0       14.246204   -1.891306   -4.280895
     54          1           0       15.045112   -0.652843   -5.268974
     55          1           0       15.062123    0.828295   -3.341433
     56          1           0       13.718930   -0.127665   -2.760743
     57          1           0       22.500248    2.415965   -3.733594
     58          1           0       21.023639    3.356383   -4.106300
     59          1           0       21.060989    1.656116   -4.301270
     60          1           0       22.811142    4.105469    1.207834
     61          1           0       21.455597    5.031393    0.920611
     62          1           0       22.930561    5.637864    0.301714
     63          1           0       19.452761    3.394801    4.117194
     64          1           0       18.937433    0.680617    5.185609
     65          1           0       21.580902    2.958128    4.487123
     66          1           0       21.529089    1.500776    3.687366
     67          1           0       20.878270    1.588829    5.372822
     68          1           0       16.516716    2.068339    5.315673
     69          1           0       17.681445    3.454129    5.416272
     70          1           0       17.720069    3.154755    7.571737
     71          1           0       18.679322    1.758538    7.271973
     72          1           0       16.782021    1.665861    7.386508
     73          1           0       14.723083   -2.074004    4.613290
     74          1           0       13.520948   -2.967267    3.650330
     75          1           0       13.220279   -1.243491    3.873999
     76          1           0       13.376271   -2.099172   -1.669122
     77          1           0       15.177601   -6.742213   -0.143951
     78          1           0       15.803298   -6.447450   -1.709901
     79          1           0       14.127015   -6.527783   -1.593418
     80         12           0      -18.076752    0.595434    0.171193
     81          6           0      -15.045176   -1.178773   -0.262709
     82          6           0      -19.478759   -2.264158    1.287604
     83          6           0      -20.888586    2.253525    0.421467
     84          6           0      -16.595511    3.260698   -1.718288
     85          7           0      -17.380655   -1.565251    0.396552
     86          6           0      -16.044951   -1.930782    0.389236
     87          6           0      -15.961750   -3.275218    1.027503
     88          6           0      -17.391757   -3.814947    0.987632
     89          6           0      -18.183113   -2.485302    0.910814
     90          6           0      -17.631341   -4.678608   -0.307125
     91          6           0      -15.342175   -3.335583    2.525858
     92          6           0      -14.342675   -4.464671    2.923370
     93          1           0      -14.760042   -5.923387    2.577808
     94          7           0      -19.947181    0.018850    0.776252
     95          6           0      -20.290912   -1.161995    1.198781
     96          6           0      -21.731757   -1.141108    1.505079
     97          6           0      -22.151111    0.223398    1.473264
     98          6           0      -20.984919    0.907521    0.845872
     99          6           0      -22.678010   -2.344602    1.862308
    100          6           0      -23.448061    0.899436    1.916839
    101          8           0      -23.718008    2.098910    1.715473
    102          6           0      -24.525004    0.062368    2.422773
    103          7           0      -18.691642    2.481293   -0.734943
    104          6           0      -19.926275    3.000547   -0.354372
    105          6           0      -20.005846    4.510017   -0.805389
    106          6           0      -18.580583    4.796863   -1.340101
    107          6           0      -17.880045    3.440930   -1.227886
    108          6           0      -21.178216    4.791868   -1.745433
    109          6           0      -17.836143    5.993285   -0.695736
    110          6           0      -16.987456    6.896516   -1.620754
    111          7           0      -16.234911    1.004910   -0.817886
    112          6           0      -15.794878    2.085383   -1.575940
    113          6           0      -14.397431    1.898011   -1.872575
    114          6           0      -14.083385    0.612823   -1.428037
    115          6           0      -15.224832    0.080243   -0.767672
    116          6           0      -13.526390    2.824451   -2.466939
    117          6           0      -13.013874   -0.385383   -1.280633
    118          8           0      -11.832366   -0.386417   -1.587909
    119          6           0      -13.609537   -1.591275   -0.482892
    120          6           0      -13.414121   -2.834483   -1.332297
    121          8           0      -14.041272   -3.327685   -2.242262
    122          8           0      -12.326659   -3.407837   -0.739125
    123          6           0      -12.025890   -4.821299   -1.069502
    124          1           0      -19.922321   -3.157487    1.733066
    125          1           0      -21.773470    2.824140    0.710782
    126          1           0      -16.063828    4.137990   -2.091392
    127          1           0      -15.332891   -4.007328    0.520284
    128          1           0      -17.695703   -4.271793    1.929129
    129          1           0      -18.337532   -5.496494   -0.168130
    130          1           0      -16.742983   -5.219740   -0.633772
    131          1           0      -18.059954   -3.984775   -1.029495
    132          1           0      -16.150803   -3.261667    3.252269
    133          1           0      -14.810244   -2.407114    2.736752
    134          1           0      -14.360915   -4.411502    4.012525
    135          1           0      -13.429470   -4.131035    2.430519
    136          1           0      -23.039529   -2.365318    2.890152
    137          1           0      -22.116796   -3.257592    1.661371
    138          1           0      -23.633837   -2.355457    1.338431
    139          1           0      -24.180242   -0.558471    3.250115
    140          1           0      -24.925889   -0.572634    1.632632
    141          1           0      -25.240344    0.728353    2.904331
    142          1           0      -20.074754    5.092057    0.113745
    143          1           0      -18.593463    4.906896   -2.424284
    144          1           0      -20.854192    4.636260   -2.774988
    145          1           0      -21.527171    5.823985   -1.738390
    146          1           0      -21.918640    4.000337   -1.634696
    147          1           0      -17.232892    5.725904    0.171706
    148          1           0      -18.537101    6.666111   -0.199884
    149          1           0      -15.971366    6.521989   -1.495838
    150          1           0      -17.040676    7.885601   -1.164669
    151          1           0      -17.342233    6.821773   -2.648322
    152          1           0      -12.623045    2.479475   -2.969485
    153          1           0      -13.286009    3.562060   -1.700622
    154          1           0      -14.106578    3.293784   -3.260603
    155          1           0      -13.106463   -1.687101    0.479135
    156          1           0      -11.782623   -5.280128   -0.111602
    157          1           0      -11.180466   -4.991195   -1.735723
    158          1           0      -12.914698   -5.306332   -1.472210
 ---------------------------------------------------------------------

 SCF Done:  E(RwB97XD) =  -4070.57052113     A.U. after   19 cycles

 Excitation energies and oscillator strengths:

 Excited State   1:      Singlet-A      1.6549 eV  749.21 nm  f=0.4762  <S**2>=0.000
     309 -> 316        0.16599
     311 -> 313        0.68544
     309 <- 316        0.11130
 This state for optimization and/or second-order correction.
 Total Energy, E(TD-HF/TD-DFT) =  -4070.50970576
 Copying the excited state density for this state as the 1-particle RhoCI density.

 Excited State   2:      Singlet-A      1.6743 eV  740.53 nm  f=0.3405  <S**2>=0.000
     310 -> 315        0.19664
     312 -> 314        0.67806
     310 <- 315        0.11737

 Excited State   3:      Singlet-A      2.1981 eV  564.06 nm  f=0.1157  <S**2>=0.000
     309 -> 313        0.64043
     311 -> 316       -0.27515

 Excited State   4:      Singlet-A      2.2066 eV  561.88 nm  f=0.0673  <S**2>=0.000
     310 -> 314        0.62033
     312 -> 315       -0.32388

 Excited State   5:      Singlet-A      3.2255 eV  384.39 nm  f=0.0080  <S**2>=0.000
     303 -> 313       -0.16077
     308 -> 313        0.66755
     308 -> 318        0.10495

 The electronic state is 1-A.
 Alpha  occ. eigenvalues --  -46.96654 -46.95669 -19.30149 -19.29553 -19.25074
 Alpha  occ. eigenvalues --  -19.24924 -19.24270 -19.24101 -19.23683 -19.22374
 Alpha  occ. eigenvalues --  -14.47789 -14.46481 -14.46327 -14.45960 -14.45164
 Alpha  occ. eigenvalues --  -14.44395 -14.44360 -14.43519 -10.43611 -10.43038
 Alpha  occ. eigenvalues --  -10.39461 -10.38787 -10.38782 -10.38145 -10.37057
 Alpha  occ. eigenvalues --  -10.35900 -10.35737 -10.35316 -10.35260 -10.35145
 Alpha  occ. eigenvalues --  -10.34793 -10.34782 -10.34729 -10.34679 -10.34598
 Alpha  occ. eigenvalues --  -10.34463 -10.34290 -10.34004 -10.33952 -10.33848
 Alpha  occ. eigenvalues --  -10.33793 -10.33613 -10.33525 -10.33505 -10.33344
 Alpha  occ. eigenvalues --  -10.32928 -10.32901 -10.32539 -10.32367 -10.32322
 Alpha  occ. eigenvalues --  -10.32161 -10.31918 -10.31893 -10.31795 -10.31720
 Alpha  occ. eigenvalues --  -10.31606 -10.31579 -10.31578 -10.31542 -10.31540
 Alpha  occ. eigenvalues --  -10.31313 -10.31258 -10.31214 -10.31132 -10.31108
 Alpha  occ. eigenvalues --  -10.31054 -10.31041 -10.30825 -10.30770 -10.30729
 Alpha  occ. eigenvalues --  -10.30722 -10.30531 -10.30268 -10.30237 -10.30190
 Alpha  occ. eigenvalues --  -10.29984 -10.29891 -10.29844 -10.29717 -10.29596
 Alpha  occ. eigenvalues --  -10.29522 -10.29448 -10.29436 -10.29049 -10.28798
 Alpha  occ. eigenvalues --  -10.28753  -3.22526  -3.21515  -1.96087  -1.95677
 Alpha  occ. eigenvalues --   -1.95459  -1.95098  -1.94636  -1.94472  -1.18331
 Alpha  occ. eigenvalues --   -1.18238  -1.11780  -1.11548  -1.11346  -1.09916
 Alpha  occ. eigenvalues --   -1.09745  -1.09584  -1.07148  -1.07041  -1.06498
 Alpha  occ. eigenvalues --   -1.05906  -1.05706  -1.05010  -1.04215  -1.04053
 Alpha  occ. eigenvalues --   -0.95035  -0.94703  -0.91595  -0.91273  -0.90894
 Alpha  occ. eigenvalues --   -0.90727  -0.90327  -0.90313  -0.89837  -0.89667
 Alpha  occ. eigenvalues --   -0.89448  -0.89037  -0.88768  -0.87174  -0.86545
 Alpha  occ. eigenvalues --   -0.86097  -0.86051  -0.85443  -0.84808  -0.84570
 Alpha  occ. eigenvalues --   -0.84393  -0.84373  -0.83429  -0.83403  -0.82526
 Alpha  occ. eigenvalues --   -0.82248  -0.80430  -0.80309  -0.79334  -0.79324
 Alpha  occ. eigenvalues --   -0.78910  -0.78852  -0.78282  -0.77741  -0.77202
 Alpha  occ. eigenvalues --   -0.77009  -0.75391  -0.74455  -0.73927  -0.73749
 Alpha  occ. eigenvalues --   -0.71601  -0.70829  -0.70823  -0.70630  -0.70324
 Alpha  occ. eigenvalues --   -0.69654  -0.69285  -0.68806  -0.67932  -0.67614
 Alpha  occ. eigenvalues --   -0.67388  -0.67247  -0.66926  -0.66810  -0.66525
 Alpha  occ. eigenvalues --   -0.66284  -0.65337  -0.63891  -0.62874  -0.62449
 Alpha  occ. eigenvalues --   -0.61972  -0.61517  -0.61189  -0.60907  -0.60509
 Alpha  occ. eigenvalues --   -0.60250  -0.59993  -0.59849  -0.59456  -0.59212
 Alpha  occ. eigenvalues --   -0.58276  -0.58122  -0.57817  -0.57589  -0.57575
 Alpha  occ. eigenvalues --   -0.57091  -0.56722  -0.56467  -0.56356  -0.55825
 Alpha  occ. eigenvalues --   -0.55598  -0.55469  -0.55416  -0.55185  -0.55147
 Alpha  occ. eigenvalues --   -0.55095  -0.54838  -0.54768  -0.54577  -0.54290
 Alpha  occ. eigenvalues --   -0.54143  -0.53994  -0.53564  -0.53464  -0.53393
 Alpha  occ. eigenvalues --   -0.53235  -0.53109  -0.52824  -0.52681  -0.52590
 Alpha  occ. eigenvalues --   -0.52304  -0.52234  -0.51878  -0.51856  -0.51558
 Alpha  occ. eigenvalues --   -0.51456  -0.51290  -0.51146  -0.50903  -0.50892
 Alpha  occ. eigenvalues --   -0.50730  -0.50691  -0.50456  -0.50231  -0.50058
 Alpha  occ. eigenvalues --   -0.49543  -0.49533  -0.49323  -0.49270  -0.49103
 Alpha  occ. eigenvalues --   -0.48991  -0.48818  -0.48785  -0.48719  -0.48534
 Alpha  occ. eigenvalues --   -0.48150  -0.48087  -0.47833  -0.47814  -0.47640
 Alpha  occ. eigenvalues --   -0.47424  -0.47165  -0.46947  -0.46923  -0.46809
 Alpha  occ. eigenvalues --   -0.46772  -0.46564  -0.46517  -0.46368  -0.46264
 Alpha  occ. eigenvalues --   -0.45960  -0.45729  -0.45723  -0.45580  -0.45552
 Alpha  occ. eigenvalues --   -0.44907  -0.44849  -0.44681  -0.44646  -0.44529
 Alpha  occ. eigenvalues --   -0.44187  -0.44154  -0.44051  -0.44041  -0.43885
 Alpha  occ. eigenvalues --   -0.43870  -0.43453  -0.43397  -0.43162  -0.42850
 Alpha  occ. eigenvalues --   -0.42759  -0.42736  -0.42593  -0.42397  -0.42086
 Alpha  occ. eigenvalues --   -0.41957  -0.41742  -0.41721  -0.41445  -0.40959
 Alpha  occ. eigenvalues --   -0.40647  -0.40633  -0.40085  -0.39779  -0.39650
 Alpha  occ. eigenvalues --   -0.39289  -0.38788  -0.38533  -0.38486  -0.38420
 Alpha  occ. eigenvalues --   -0.38381  -0.37796  -0.36788  -0.36601  -0.36297
 Alpha  occ. eigenvalues --   -0.36224  -0.35875  -0.35272  -0.33771  -0.33649
 Alpha  occ. eigenvalues --   -0.33325  -0.33172  -0.33116  -0.32693  -0.32389
 Alpha  occ. eigenvalues --   -0.32000  -0.31381  -0.31112  -0.26847  -0.25851
 Alpha  occ. eigenvalues --   -0.23455  -0.22735
 Alpha virt. eigenvalues --   -0.07860  -0.06582  -0.00106   0.00052   0.01965
 Alpha virt. eigenvalues --    0.02019   0.03830   0.04327   0.04379   0.05058
 Alpha virt. eigenvalues --    0.07220   0.07632   0.07896   0.08059   0.08090

 Mulliken charges:
               1
     1  Mg   0.956898
     2  C    0.004180
     3  C   -0.071948
     4  C   -0.044073
     5  C   -0.099346
     6  N   -0.349318
     7  C    0.011112
     8  C   -0.051003
     9  C   -0.100576
    10  C    0.039515
    11  C    0.023932
    12  C   -0.030567
    13  C   -0.101613
    14  H    0.062518
    15  N   -0.458821
    16  C    0.154470
    17  C   -0.150811
    18  C   -0.094662
    19  C    0.205518
    20  C    0.091814
    21  C    0.063127
    22  O   -0.267849
    23  C    0.000068
    24  N   -0.297993
    25  C    0.010945
    26  C   -0.080656
    27  C   -0.046037
    28  C    0.048492
    29  C    0.002556
    30  C   -0.042795
    31  C   -0.065010
    32  N   -0.464690
    33  C    0.133719
    34  C   -0.171339
    35  C   -0.013124
    36  C    0.155546
    37  C    0.081418
    38  C    0.117907
    39  O   -0.220177
    40  C   -0.107979
    41  C    0.242718
    42  O   -0.244027
    43  O   -0.368900
    44  C    0.139850
    45  H    0.011738
    46  H   -0.042804
    47  H    0.000668
    48  H    0.052510
    49  H    0.038610
    50  H    0.039435
    51  H    0.034757
    52  H    0.041358
    53  H    0.057390
    54  H    0.041195
    55  H    0.052153
    56  H    0.036549
    57  H    0.060569
    58  H    0.046860
    59  H    0.000143
    60  H    0.063413
    61  H    0.040888
    62  H    0.054634
    63  H    0.045280
    64  H    0.032461
    65  H    0.028483
    66  H    0.031376
    67  H    0.039447
    68  H    0.036170
    69  H    0.041006
    70  H    0.033277
    71  H    0.036153
    72  H    0.047802
    73  H    0.043673
    74  H    0.066872
    75  H    0.074646
    76  H    0.058654
    77  H    0.052657
    78  H    0.037408
    79  H    0.061583
    80  Mg   0.942252
    81  C   -0.051930
    82  C   -0.101200
    83  C   -0.067684
    84  C   -0.090883
    85  N   -0.320453
    86  C    0.052478
    87  C   -0.094639
    88  C   -0.080611
    89  C   -0.006083
    90  C    0.041930
    91  C   -0.020860
    92  C   -0.113910
    93  H    0.029604
    94  N   -0.428175
    95  C    0.195109
    96  C   -0.167276
    97  C   -0.071062
    98  C    0.113665
    99  C    0.058697
   100  C    0.066940
   101  O   -0.250821
   102  C   -0.004156
   103  N   -0.356282
   104  C    0.033194
   105  C   -0.062083
   106  C   -0.056415
   107  C    0.068511
   108  C    0.048405
   109  C   -0.039059
   110  C   -0.040904
   111  N   -0.439495
   112  C    0.135399
   113  C   -0.196828
   114  C   -0.015664
   115  C    0.167558
   116  C    0.061178
   117  C    0.109612
   118  O   -0.199480
   119  C   -0.077237
   120  C    0.279535
   121  O   -0.226465
   122  O   -0.373812
   123  C    0.131551
   124  H   -0.012492
   125  H    0.026151
   126  H   -0.012819
   127  H    0.024582
   128  H    0.020042
   129  H    0.029313
   130  H    0.045970
   131  H    0.057421
   132  H    0.021518
   133  H    0.024535
   134  H    0.065176
   135  H    0.071891
   136  H    0.043626
   137  H    0.040988
   138  H    0.041474
   139  H    0.037653
   140  H    0.075158
   141  H    0.054543
   142  H    0.039164
   143  H    0.033356
   144  H    0.015963
   145  H    0.046651
   146  H    0.047915
   147  H    0.025308
   148  H    0.022925
   149  H    0.043284
   150  H    0.039824
   151  H    0.045443
   152  H    0.060127
   153  H    0.054199
   154  H    0.037947
   155  H    0.081436
   156  H    0.047566
   157  H    0.063964
   158  H    0.058052
 Sum of Mulliken charges =  -0.00000

 Dipole moment (field-independent basis, Debye):
    X=              0.5705    Y=             -2.0850    Z=              8.0622  Tot=              8.3469
 Quadrupole moment (field-independent basis, Debye-Ang):
   XX=           -397.6052   YY=           -482.0072   ZZ=           -481.9376
   XY=            -24.9550   XZ=             25.0686   YZ=              0.1682

 Normal termination of Gaussian 16 at Sat Sep 18 22:12:06 2021.
