 Gaussian 16, Revision A.03,
 Gaussian 16:  ES64L-G16RevA.03 25-Dec-2016

 --------------------------------
 #p wB97XD/Def2SVP td=(nstates=5)
 --------------------------------

 --------------------------------
 TDDFT excited states in gaussian
 --------------------------------
 Symbolic Z-matrix:
 Charge =  0 Multiplicity = 1

                         Standard orientation:
 ---------------------------------------------------------------------
 Center     Atomic      Atomic             Coordinates (Angstroms)
 Number     Number       Type             X           Y           Z
 ---------------------------------------------------------------------
      1         12           0      -10.807165    0.532338    0.156669
      2          6           0       -9.137447   -1.951613   -1.465682
      3          6           0      -11.002369   -1.581089    2.899764
      4          6           0      -12.108165    3.108414    1.872427
      5          6           0       -9.968884    2.792784   -2.407202
      6          7           0       -9.903903   -1.453702    0.732632
      7          6           0       -9.299733   -2.267876   -0.155893
      8          6           0       -8.809209   -3.524499    0.465124
      9          6           0       -9.777972   -3.541238    1.804422
     10          6           0      -10.287606   -2.085192    1.846016
     11          6           0      -10.890642   -4.628326    1.732304
     12          6           0       -7.336260   -3.383403    0.814803
     13          6           0       -6.865534   -2.166399    1.738412
     14          1           0       -5.802792   -2.377487    2.809588
     15          7           0      -11.461714    0.746277    2.100195
     16          6           0      -11.592868   -0.290044    3.058900
     17          6           0      -12.338880    0.242794    4.149633
     18          6           0      -12.634574    1.582987    3.933316
     19          6           0      -12.119055    1.894983    2.589635
     20          6           0      -12.654175   -0.676138    5.312363
     21          6           0      -13.279541    2.550816    4.896411
     22          8           0      -13.592881    2.075505    6.016284
     23          6           0      -13.370519    3.962825    4.732127
     24          7           0      -10.803420    2.698062   -0.148093
     25          6           0      -11.476375    3.529786    0.697882
     26          6           0      -11.433857    4.993436    0.197262
     27          6           0      -10.730552    4.855153   -1.194940
     28          6           0      -10.408503    3.370862   -1.234481
     29          6           0      -12.795188    5.653253    0.142735
     30          6           0       -9.428774    5.816093   -1.292429
     31          6           0       -9.278934    6.530594   -2.640397
     32          7           0       -9.751827    0.511507   -1.658638
     33          6           0       -9.660016    1.406519   -2.676069
     34          6           0       -9.153435    0.692472   -3.816413
     35          6           0       -8.946546   -0.682864   -3.451528
     36          6           0       -9.306139   -0.717850   -2.114397
     37          6           0       -8.657255    1.320155   -5.073826
     38          6           0       -8.460933   -1.975616   -3.813488
     39          8           0       -8.053814   -2.280240   -4.941680
     40          6           0       -8.600969   -2.834160   -2.570040
     41          6           0       -9.479682   -3.985882   -2.888152
     42          8           0       -9.176754   -4.728440   -3.801285
     43          8           0      -10.530877   -4.149484   -2.038563
     44          6           0      -11.392629   -5.297139   -2.328714
     45          1           0      -11.305735   -2.318896    3.645304
     46          1           0      -12.740169    3.863298    2.344483
     47          1           0       -9.833945    3.386058   -3.314348
     48          1           0       -8.883973   -4.447000   -0.110727
     49          1           0       -9.225691   -3.887931    2.678828
     50          1           0      -10.800357   -5.309822    2.577394
     51          1           0      -10.711218   -5.202162    0.822729
     52          1           0      -11.907557   -4.237147    1.680820
     53          1           0       -6.782213   -3.422504   -0.123295
     54          1           0       -7.101682   -4.371617    1.210230
     55          1           0       -7.650636   -1.681899    2.319057
     56          1           0       -6.411460   -1.500582    1.005092
     57          1           0      -11.777186   -0.634718    5.958605
     58          1           0      -12.752550   -1.694939    4.939657
     59          1           0      -13.551921   -0.442519    5.885491
     60          1           0      -13.361737    4.483691    5.690103
     61          1           0      -14.180571    4.274564    4.071523
     62          1           0      -12.410872    4.251481    4.305492
     63          1           0      -10.776300    5.479789    0.918651
     64          1           0      -11.461018    5.019334   -1.986897
     65          1           0      -13.598980    5.047375    0.560133
     66          1           0      -13.163798    6.115618   -0.772535
     67          1           0      -12.714961    6.417035    0.916787
     68          1           0       -8.484500    5.298774   -1.122313
     69          1           0       -9.409617    6.561093   -0.497199
     70          1           0       -9.519851    7.582892   -2.492102
     71          1           0      -10.043708    6.145968   -3.315481
     72          1           0       -8.277178    6.441084   -3.060888
     73          1           0       -9.393743    1.777716   -5.733276
     74          1           0       -8.123157    0.525271   -5.595766
     75          1           0       -7.958869    2.133944   -4.878323
     76          1           0       -7.599363   -3.199114   -2.340807
     77          1           0      -10.770219   -6.192264   -2.311975
     78          1           0      -11.953585   -5.194805   -3.257807
     79          1           0      -12.223792   -5.340733   -1.625042
     80         12           0       10.722787    0.426362    0.414240
     81          6           0        7.934996   -1.303338   -0.640460
     82          6           0       10.844286    1.855434   -2.692211
     83          6           0       13.616516    1.902316    1.337441
     84          6           0       10.836406   -1.509896    3.299916
     85          7           0        9.529040    0.125162   -1.494992
     86          6           0        8.387456   -0.433658   -1.621509
     87          6           0        7.639681   -0.235830   -3.039281
     88          6           0        8.785476    0.559397   -3.781156
     89          6           0        9.862505    0.822607   -2.624870
     90          6           0        9.524983   -0.251924   -4.969422
     91          6           0        6.252572    0.539086   -2.978106
     92          6           0        5.155637    0.158667   -4.034815
     93          1           0        5.592034   -0.716116   -5.171009
     94          7           0       11.977903    1.725359   -0.479059
     95          6           0       11.831573    2.308869   -1.798634
     96          6           0       12.922184    3.261639   -1.977747
     97          6           0       13.797848    3.204331   -0.864922
     98          6           0       13.125009    2.285642    0.081080
     99          6           0       12.902617    4.084976   -3.215075
    100          6           0       15.097089    3.982246   -0.550140
    101          8           0       15.819990    3.785654    0.380979
    102          6           0       15.546931    4.966178   -1.649043
    103          7           0       12.152175    0.191876    2.027701
    104          6           0       13.237377    0.877135    2.203861
    105          6           0       14.097052    0.305706    3.366902
    106          6           0       13.154837   -0.707527    4.060022
    107          6           0       11.943491   -0.686790    3.098269
    108          6           0       15.406000   -0.316273    2.835591
    109          6           0       12.840515   -0.317944    5.537045
    110          6           0       14.010661   -0.494656    6.518223
    111          7           0        9.620202   -1.119326    1.221607
    112          6           0        9.740223   -1.729253    2.457659
    113          6           0        8.627385   -2.634005    2.577821
    114          6           0        7.864323   -2.571710    1.373509
    115          6           0        8.547606   -1.577730    0.621230
    116          6           0        8.388475   -3.486281    3.684165
    117          6           0        6.702945   -2.992515    0.656607
    118          8           0        5.867162   -3.892054    0.969461
    119          6           0        6.789048   -2.254161   -0.735244
    120          6           0        6.857068   -3.273342   -1.760636
    121          8           0        7.886597   -3.862856   -2.088195
    122          8           0        5.569428   -3.539397   -2.151434
    123          6           0        5.459532   -4.740296   -3.006352
    124          1           0       10.923803    2.307830   -3.682439
    125          1           0       14.539223    2.436000    1.577456
    126          1           0       10.878010   -2.040861    4.253710
    127          1           0        7.573230   -1.250484   -3.432741
    128          1           0        8.381525    1.467314   -4.228613
    129          1           0        9.337607   -1.315162   -4.816705
    130          1           0       10.596677   -0.056599   -4.935082
    131          1           0        9.220454   -0.004187   -5.986799
    132          1           0        6.534347    1.577120   -3.152697
    133          1           0        5.821067    0.681818   -1.986786
    134          1           0        4.667398    1.019791   -4.490932
    135          1           0        4.389643   -0.444614   -3.547484
    136          1           0       13.364854    3.546083   -4.042633
    137          1           0       13.262981    5.101486   -3.056496
    138          1           0       11.854803    4.244310   -3.468523
    139          1           0       14.958594    5.882417   -1.707690
    140          1           0       15.451770    4.346798   -2.540330
    141          1           0       16.594814    5.263413   -1.620662
    142          1           0       14.256098    1.184217    3.991766
    143          1           0       13.588093   -1.706081    4.003222
    144          1           0       15.384384   -0.650728    1.798165
    145          1           0       15.765349   -1.232707    3.304869
    146          1           0       16.159394    0.463194    2.948930
    147          1           0       12.046274   -0.964567    5.907510
    148          1           0       12.483283    0.711588    5.578202
    149          1           0       14.887254   -0.778924    5.936073
    150          1           0       13.849993   -1.405680    7.094892
    151          1           0       14.219270    0.295189    7.239436
    152          1           0        8.564554   -2.855495    4.555575
    153          1           0        9.051380   -4.345518    3.784673
    154          1           0        7.392987   -3.918675    3.578319
    155          1           0        5.825335   -1.748365   -0.800193
    156          1           0        5.727018   -5.586247   -2.372544
    157          1           0        6.021385   -4.633106   -3.933625
    158          1           0        4.410077   -4.843866   -3.282509
 ---------------------------------------------------------------------

 SCF Done:  E(RwB97XD) =  -4070.62309259     A.U. after   20 cycles

 Excitation energies and oscillator strengths:

 Excited State   1:      Singlet-A      1.6885 eV  734.29 nm  f=0.3957  <S**2>=0.000
     309 -> 315       -0.18181
     311 -> 313        0.68300
     309 <- 315       -0.11264
 This state for optimization and/or second-order correction.
 Total Energy, E(TD-HF/TD-DFT) =  -4070.56104186
 Copying the excited state density for this state as the 1-particle RhoCI density.

 Excited State   2:      Singlet-A      1.7219 eV  720.04 nm  f=0.3703  <S**2>=0.000
     310 -> 316        0.20374
     312 -> 314        0.67752
     310 <- 316        0.11867

 Excited State   3:      Singlet-A      2.1612 eV  573.69 nm  f=0.1146  <S**2>=0.000
     309 -> 313       -0.10785
     310 -> 314        0.63199
     312 -> 316       -0.27948

 Excited State   4:      Singlet-A      2.1633 eV  573.12 nm  f=0.1199  <S**2>=0.000
     309 -> 313        0.63873
     310 -> 314        0.10637
     311 -> 315        0.25266

 Excited State   5:      Singlet-A      3.5503 eV  349.22 nm  f=0.0000  <S**2>=0.000
     312 -> 313        0.70700

 The electronic state is 1-A.
 Alpha  occ. eigenvalues --  -46.95433 -46.94666 -19.31543 -19.29879 -19.25139
 Alpha  occ. eigenvalues --  -19.24371 -19.24121 -19.23275 -19.23206 -19.23200
 Alpha  occ. eigenvalues --  -14.46711 -14.46633 -14.46615 -14.46032 -14.44411
 Alpha  occ. eigenvalues --  -14.44264 -14.43425 -14.43140 -10.43249 -10.42265
 Alpha  occ. eigenvalues --  -10.40206 -10.38787 -10.38690 -10.38401 -10.36436
 Alpha  occ. eigenvalues --  -10.35848 -10.35712 -10.35305 -10.35191 -10.34838
 Alpha  occ. eigenvalues --  -10.34733 -10.34691 -10.34465 -10.34450 -10.34395
 Alpha  occ. eigenvalues --  -10.34366 -10.34222 -10.34137 -10.33553 -10.33132
 Alpha  occ. eigenvalues --  -10.33006 -10.32966 -10.32926 -10.32901 -10.32809
 Alpha  occ. eigenvalues --  -10.32549 -10.32489 -10.32423 -10.32423 -10.32357
 Alpha  occ. eigenvalues --  -10.32171 -10.32128 -10.32054 -10.32024 -10.31776
 Alpha  occ. eigenvalues --  -10.31769 -10.31615 -10.31577 -10.31522 -10.31493
 Alpha  occ. eigenvalues --  -10.31402 -10.31337 -10.31226 -10.31095 -10.31084
 Alpha  occ. eigenvalues --  -10.31072 -10.31049 -10.30952 -10.30928 -10.30750
 Alpha  occ. eigenvalues --  -10.30596 -10.30427 -10.30412 -10.30317 -10.30154
 Alpha  occ. eigenvalues --  -10.30108 -10.29930 -10.29481 -10.29462 -10.29432
 Alpha  occ. eigenvalues --  -10.29302 -10.29148 -10.28801 -10.28521 -10.28398
 Alpha  occ. eigenvalues --  -10.28381  -3.21339  -3.20710  -1.94900  -1.94478
 Alpha  occ. eigenvalues --   -1.94294  -1.94289  -1.93840  -1.93682  -1.19530
 Alpha  occ. eigenvalues --   -1.17548  -1.14700  -1.11195  -1.10603  -1.10161
 Alpha  occ. eigenvalues --   -1.09281  -1.08851  -1.07311  -1.06939  -1.06512
 Alpha  occ. eigenvalues --   -1.06229  -1.05393  -1.04706  -1.03566  -1.02867
 Alpha  occ. eigenvalues --   -0.96008  -0.94402  -0.91201  -0.91126  -0.90892
 Alpha  occ. eigenvalues --   -0.90580  -0.90201  -0.89665  -0.89629  -0.89302
 Alpha  occ. eigenvalues --   -0.88815  -0.88720  -0.88308  -0.87751  -0.86986
 Alpha  occ. eigenvalues --   -0.85987  -0.85759  -0.85275  -0.85256  -0.84661
 Alpha  occ. eigenvalues --   -0.84141  -0.83558  -0.83349  -0.82895  -0.82811
 Alpha  occ. eigenvalues --   -0.82156  -0.80537  -0.80461  -0.79937  -0.79223
 Alpha  occ. eigenvalues --   -0.78951  -0.78186  -0.77995  -0.77556  -0.76892
 Alpha  occ. eigenvalues --   -0.76689  -0.74444  -0.74113  -0.74079  -0.73360
 Alpha  occ. eigenvalues --   -0.72015  -0.71248  -0.71049  -0.70770  -0.70634
 Alpha  occ. eigenvalues --   -0.70062  -0.69132  -0.68923  -0.68460  -0.67650
 Alpha  occ. eigenvalues --   -0.67307  -0.67240  -0.67159  -0.66687  -0.66310
 Alpha  occ. eigenvalues --   -0.65991  -0.65765  -0.63427  -0.62189  -0.61973
 Alpha  occ. eigenvalues --   -0.61664  -0.61301  -0.61284  -0.60996  -0.60685
 Alpha  occ. eigenvalues --   -0.60336  -0.60177  -0.59996  -0.59765  -0.59536
 Alpha  occ. eigenvalues --   -0.58705  -0.58548  -0.57914  -0.57737  -0.57482
 Alpha  occ. eigenvalues --   -0.57084  -0.57057  -0.56421  -0.56356  -0.56176
 Alpha  occ. eigenvalues --   -0.55814  -0.55660  -0.55415  -0.55227  -0.55048
 Alpha  occ. eigenvalues --   -0.54991  -0.54806  -0.54601  -0.54419  -0.53922
 Alpha  occ. eigenvalues --   -0.53775  -0.53729  -0.53700  -0.53281  -0.53151
 Alpha  occ. eigenvalues --   -0.52998  -0.52989  -0.52795  -0.52753  -0.52571
 Alpha  occ. eigenvalues --   -0.52289  -0.52287  -0.51539  -0.51400  -0.51242
 Alpha  occ. eigenvalues --   -0.51012  -0.50969  -0.50760  -0.50657  -0.50560
 Alpha  occ. eigenvalues --   -0.50410  -0.50374  -0.50304  -0.50041  -0.50012
 Alpha  occ. eigenvalues --   -0.49660  -0.49603  -0.49512  -0.48999  -0.48886
 Alpha  occ. eigenvalues --   -0.48627  -0.48483  -0.48375  -0.48352  -0.48289
 Alpha  occ. eigenvalues --   -0.48074  -0.47972  -0.47884  -0.47650  -0.47522
 Alpha  occ. eigenvalues --   -0.47459  -0.47086  -0.46982  -0.46783  -0.46686
 Alpha  occ. eigenvalues --   -0.46547  -0.46499  -0.46429  -0.46246  -0.46127
 Alpha  occ. eigenvalues --   -0.45981  -0.45668  -0.45659  -0.45467  -0.45386
 Alpha  occ. eigenvalues --   -0.45093  -0.44801  -0.44698  -0.44596  -0.44478
 Alpha  occ. eigenvalues --   -0.44298  -0.44206  -0.44157  -0.44107  -0.43807
 Alpha  occ. eigenvalues --   -0.43714  -0.43565  -0.43518  -0.43287  -0.43266
 Alpha  occ. eigenvalues --   -0.43016  -0.43014  -0.42868  -0.42453  -0.42321
 Alpha  occ. eigenvalues --   -0.42020  -0.41598  -0.41416  -0.41195  -0.41075
 Alpha  occ. eigenvalues --   -0.40602  -0.40045  -0.39792  -0.39752  -0.39642
 Alpha  occ. eigenvalues --   -0.39444  -0.39426  -0.38972  -0.38943  -0.38429
 Alpha  occ. eigenvalues --   -0.38153  -0.37834  -0.36675  -0.36210  -0.35939
 Alpha  occ. eigenvalues --   -0.35775  -0.35524  -0.35259  -0.33955  -0.33748
 Alpha  occ. eigenvalues --   -0.33275  -0.32788  -0.32361  -0.32359  -0.32275
 Alpha  occ. eigenvalues --   -0.32183  -0.31225  -0.31103  -0.26187  -0.25516
 Alpha  occ. eigenvalues --   -0.23441  -0.22976
 Alpha virt. eigenvalues --   -0.07461  -0.06688   0.00085   0.00301   0.02105
 Alpha virt. eigenvalues --    0.02254   0.04158   0.04280   0.04498   0.05775
 Alpha virt. eigenvalues --    0.07408   0.07755   0.08077   0.08381   0.08672

 Mulliken charges:
               1
     1  Mg   0.931769
     2  C   -0.001119
     3  C   -0.065591
     4  C   -0.091720
     5  C   -0.077740
     6  N   -0.307465
     7  C    0.004509
     8  C   -0.074803
     9  C   -0.126352
    10  C    0.080474
    11  C    0.020445
    12  C    0.007899
    13  C   -0.131479
    14  H    0.038197
    15  N   -0.514610
    16  C    0.148968
    17  C   -0.151752
    18  C   -0.055502
    19  C    0.178141
    20  C    0.087321
    21  C    0.034429
    22  O   -0.271016
    23  C    0.017114
    24  N   -0.324728
    25  C    0.043833
    26  C   -0.057514
    27  C   -0.088552
    28  C    0.105920
    29  C    0.017498
    30  C   -0.009792
    31  C   -0.055744
    32  N   -0.439824
    33  C    0.094812
    34  C   -0.179896
    35  C    0.011872
    36  C    0.117463
    37  C    0.048141
    38  C    0.070957
    39  O   -0.202111
    40  C   -0.080974
    41  C    0.257034
    42  O   -0.227872
    43  O   -0.352633
    44  C    0.138929
    45  H   -0.003653
    46  H   -0.037406
    47  H   -0.005519
    48  H    0.022278
    49  H    0.037949
    50  H    0.038293
    51  H    0.026530
    52  H    0.038888
    53  H    0.025233
    54  H    0.033241
    55  H    0.077660
    56  H    0.066241
    57  H    0.053810
    58  H    0.029959
    59  H    0.063876
    60  H    0.061046
    61  H    0.077187
    62  H    0.047610
    63  H    0.049687
    64  H    0.040666
    65  H    0.036150
    66  H    0.051777
    67  H    0.027038
    68  H    0.036449
    69  H    0.027878
    70  H    0.034807
    71  H    0.031383
    72  H    0.047004
    73  H    0.038114
    74  H    0.058030
    75  H    0.037464
    76  H    0.089930
    77  H    0.063579
    78  H    0.058916
    79  H    0.050969
    80  Mg   0.972730
    81  C    0.036689
    82  C   -0.076483
    83  C   -0.083644
    84  C   -0.100009
    85  N   -0.274942
    86  C   -0.097002
    87  C   -0.014263
    88  C   -0.137524
    89  C    0.065957
    90  C    0.000616
    91  C    0.023667
    92  C   -0.131862
    93  H    0.035648
    94  N   -0.532169
    95  C    0.160413
    96  C   -0.146818
    97  C   -0.100123
    98  C    0.147773
    99  C    0.050354
   100  C    0.084646
   101  O   -0.192679
   102  C   -0.045231
   103  N   -0.332313
   104  C    0.040034
   105  C   -0.054394
   106  C   -0.067598
   107  C    0.054775
   108  C    0.016598
   109  C   -0.022508
   110  C   -0.039094
   111  N   -0.427509
   112  C    0.163674
   113  C   -0.180348
   114  C    0.016182
   115  C    0.116555
   116  C    0.057413
   117  C    0.086212
   118  O   -0.253675
   119  C   -0.075525
   120  C    0.267911
   121  O   -0.262223
   122  O   -0.366737
   123  C    0.144806
   124  H   -0.003008
   125  H    0.012570
   126  H   -0.006388
   127  H    0.049358
   128  H    0.040293
   129  H    0.048302
   130  H    0.038093
   131  H    0.040013
   132  H    0.016050
   133  H    0.039383
   134  H    0.057790
   135  H    0.065171
   136  H    0.067844
   137  H    0.043653
   138  H    0.042655
   139  H    0.070797
   140  H    0.053294
   141  H    0.049540
   142  H    0.038096
   143  H    0.035290
   144  H    0.043647
   145  H    0.033944
   146  H    0.050440
   147  H    0.028732
   148  H    0.032022
   149  H    0.024455
   150  H    0.026057
   151  H    0.050442
   152  H    0.038132
   153  H    0.049964
   154  H    0.057928
   155  H    0.063642
   156  H    0.067880
   157  H    0.056149
   158  H    0.049790
 Sum of Mulliken charges =  -0.00000

 Dipole moment (field-independent basis, Debye):
    X=             -2.1368    Y=              7.0165    Z=              0.0074  Tot=              7.3347
 Quadrupole moment (field-independent basis, Debye-Ang):
   XX=           -445.7322   YY=           -475.4307   ZZ=           -531.1787
   XY=              8.7714   XZ=             -8.1507   YZ=            -38.5764

 Normal termination of Gaussian 16 at Sun Sep 19 20:52:10 2021.
