 Gaussian 16, Revision A.03,
 Gaussian 16:  ES64L-G16RevA.03 25-Dec-2016

 --------------------------------
 #p wB97XD/Def2SVP td=(nstates=5)
 --------------------------------

 --------------------------------
 TDDFT excited states in gaussian
 --------------------------------
 Symbolic Z-matrix:
 Charge =  0 Multiplicity = 1

                         Standard orientation:
 ---------------------------------------------------------------------
 Center     Atomic      Atomic             Coordinates (Angstroms)
 Number     Number       Type             X           Y           Z
 ---------------------------------------------------------------------
      1         12           0      -26.598220   -0.434508    0.412245
      2          6           0      -25.026134    2.027875   -1.361774
      3          6           0      -26.792974   -2.369843   -2.293094
      4          6           0      -28.283332   -2.558289    2.221249
      5          6           0      -26.867038    1.944767    3.052195
      6          7           0      -26.123809   -0.131022   -1.683681
      7          6           0      -25.259080    0.832129   -2.089390
      8          6           0      -24.623841    0.495399   -3.410661
      9          6           0      -25.441164   -0.797606   -3.811802
     10          6           0      -26.241493   -1.095123   -2.562348
     11          6           0      -26.281710   -0.655816   -5.103443
     12          6           0      -22.982048    0.356365   -3.359929
     13          6           0      -22.151527    1.064724   -4.440997
     14          1           0      -22.865495    1.366070   -5.796112
     15          7           0      -27.242081   -2.214369    0.082581
     16          6           0      -27.267573   -2.903852   -1.087745
     17          6           0      -27.972766   -4.158890   -0.993874
     18          6           0      -28.225090   -4.316291    0.335449
     19          6           0      -28.023716   -2.950116    0.910647
     20          6           0      -28.250070   -4.897207   -2.290624
     21          6           0      -28.816420   -5.536342    1.069224
     22          8           0      -29.063011   -5.561287    2.252563
     23          6           0      -29.102331   -6.704562    0.172511
     24          7           0      -27.594290   -0.218925    2.314043
     25          6           0      -28.109486   -1.336440    2.857454
     26          6           0      -28.551483   -1.088045    4.303029
     27          6           0      -27.813523    0.244156    4.669671
     28          6           0      -27.412053    0.721002    3.258752
     29          6           0      -30.106731   -1.048754    4.621442
     30          6           0      -26.523768    0.106659    5.563400
     31          6           0      -25.329491   -0.713467    5.151896
     32          7           0      -26.015690    1.555653    0.893082
     33          6           0      -26.257495    2.438841    1.950274
     34          6           0      -25.656398    3.755675    1.703282
     35          6           0      -25.146208    3.637343    0.401767
     36          6           0      -25.401438    2.289498   -0.003665
     37          6           0      -25.554961    4.929086    2.643677
     38          6           0      -24.491656    4.296167   -0.633968
     39          8           0      -24.101850    5.444324   -0.778482
     40          6           0      -24.172803    3.236398   -1.720145
     41          6           0      -24.583158    3.923159   -2.966365
     42          8           0      -25.741312    4.027839   -3.377394
     43          8           0      -23.520821    4.537774   -3.563354
     44          6           0      -23.759105    5.511759   -4.633253
     45          1           0      -26.666028   -3.047911   -3.139860
     46          1           0      -28.798050   -3.237053    2.903394
     47          1           0      -26.984583    2.551457    3.953346
     48          1           0      -24.890249    1.236040   -4.164781
     49          1           0      -24.748496   -1.632523   -3.915504
     50          1           0      -27.328414   -0.523795   -4.829706
     51          1           0      -26.192716   -1.579160   -5.675843
     52          1           0      -25.898634    0.220322   -5.626780
     53          1           0      -22.796044   -0.716475   -3.411571
     54          1           0      -22.593761    0.762866   -2.426606
     55          1           0      -21.325257    0.428658   -4.757373
     56          1           0      -21.682318    1.954461   -4.021273
     57          1           0      -28.870181   -4.358567   -3.007336
     58          1           0      -28.880367   -5.786271   -2.296566
     59          1           0      -27.235586   -5.133534   -2.611735
     60          1           0      -28.203896   -7.005316   -0.365917
     61          1           0      -29.940328   -6.331671   -0.416033
     62          1           0      -29.387999   -7.654834    0.622181
     63          1           0      -28.159375   -1.972952    4.805586
     64          1           0      -28.546062    0.953250    5.055892
     65          1           0      -30.668710   -1.227528    3.705068
     66          1           0      -30.416879   -0.044222    4.906778
     67          1           0      -30.458983   -1.714885    5.410501
     68          1           0      -26.979386   -0.283993    6.473652
     69          1           0      -26.074911    1.073365    5.789434
     70          1           0      -25.575128   -1.293040    4.261073
     71          1           0      -25.073417   -1.432386    5.930003
     72          1           0      -24.437516   -0.160031    4.858993
     73          1           0      -26.221821    5.743839    2.365086
     74          1           0      -24.526232    5.288486    2.674271
     75          1           0      -25.936797    4.523137    3.580766
     76          1           0      -23.129550    2.921739   -1.687750
     77          1           0      -22.948982    6.237044   -4.717866
     78          1           0      -24.762858    5.931395   -4.586898
     79          1           0      -23.825663    5.045231   -5.615947
     80         12           0       26.592874    0.506921   -0.149347
     81          6           0       25.429178   -2.748057    0.007057
     82          6           0       23.419702    1.650297    0.617091
     83          6           0       27.935769    3.549789    0.427217
     84          6           0       29.806253   -0.880716   -0.580984
     85          7           0       24.701131   -0.469975    0.547261
     86          6           0       24.466150   -1.766641    0.327576
     87          6           0       23.016087   -2.130004    0.773639
     88          6           0       22.306747   -0.696284    0.697965
     89          6           0       23.547346    0.263032    0.535869
     90          6           0       21.209769   -0.623021   -0.391430
     91          6           0       23.014184   -2.641277    2.196316
     92          6           0       22.089716   -3.817621    2.468681
     93          1           0       21.281969   -3.974830    3.811796
     94          7           0       25.702026    2.398730    0.282164
     95          6           0       24.433374    2.671096    0.633020
     96          6           0       24.334477    4.081384    0.826592
     97          6           0       25.604551    4.694474    0.603169
     98          6           0       26.503267    3.554277    0.384755
     99          6           0       23.023491    4.750847    1.014872
    100          6           0       25.880513    6.141864    0.806457
    101          8           0       24.971698    6.906120    1.085544
    102          6           0       27.274433    6.724846    0.607208
    103          7           0       28.677519    1.255328   -0.174712
    104          6           0       28.903118    2.552485    0.175640
    105          6           0       30.361277    2.793509    0.395379
    106          6           0       30.953314    1.341121    0.070688
    107          6           0       29.779808    0.480908   -0.327683
    108          6           0       30.954851    3.954870   -0.423774
    109          6           0       31.839827    0.677339    1.215427
    110          6           0       33.250745    0.128424    0.898218
    111          7           0       27.459526   -1.366552   -0.289888
    112          6           0       28.736894   -1.763392   -0.532989
    113          6           0       28.756958   -3.104387   -0.918818
    114          6           0       27.463888   -3.581939   -0.756539
    115          6           0       26.732314   -2.512570   -0.304179
    116          6           0       30.042976   -3.893432   -1.302684
    117          6           0       26.623358   -4.680066   -0.870937
    118          8           0       26.926799   -5.840649   -1.124163
    119          6           0       25.173506   -4.257018   -0.329588
    120          6           0       24.189954   -4.308813   -1.350300
    121          8           0       23.960285   -3.544169   -2.290337
    122          8           0       23.438908   -5.453190   -1.100120
    123          6           0       22.331319   -5.820284   -1.965764
    124          1           0       22.397814    2.024978    0.702843
    125          1           0       28.509838    4.466248    0.581897
    126          1           0       30.830192   -1.190485   -0.800670
    127          1           0       22.638180   -2.890296    0.090650
    128          1           0       21.896899   -0.353010    1.647300
    129          1           0       21.178569   -1.529286   -0.995934
    130          1           0       21.388810    0.242578   -1.030022
    131          1           0       20.260637   -0.442067    0.112530
    132          1           0       22.832555   -1.919213    2.992651
    133          1           0       24.060183   -2.868907    2.401595
    134          1           0       22.672838   -4.717616    2.274284
    135          1           0       21.381161   -3.720013    1.646187
    136          1           0       22.792961    5.108725    0.011611
    137          1           0       23.088553    5.562420    1.739844
    138          1           0       22.242656    4.075657    1.365062
    139          1           0       27.822179    6.493825    1.520956
    140          1           0       27.145065    7.806570    0.632516
    141          1           0       27.736420    6.323803   -0.294827
    142          1           0       30.355348    3.014039    1.462332
    143          1           0       31.684457    1.378046   -0.736901
    144          1           0       31.116780    4.766538    0.286273
    145          1           0       30.314650    4.262417   -1.251256
    146          1           0       31.934647    3.664766   -0.802390
    147          1           0       31.286563   -0.166616    1.627170
    148          1           0       32.064381    1.366094    2.030152
    149          1           0       32.988186   -0.895918    0.634172
    150          1           0       33.862347    0.111933    1.799381
    151          1           0       33.776032    0.452328   -0.000161
    152          1           0       30.607947   -4.093360   -0.393120
    153          1           0       30.758256   -3.367378   -1.935233
    154          1           0       29.790415   -4.846536   -1.768168
    155          1           0       24.975736   -4.908424    0.521820
    156          1           0       22.269426   -6.908058   -1.957271
    157          1           0       22.357503   -5.383781   -2.964556
    158          1           0       21.412471   -5.503893   -1.471886
 ---------------------------------------------------------------------

 SCF Done:  E(RwB97XD) =  -4070.58055800     A.U. after   20 cycles

 Excitation energies and oscillator strengths:

 Excited State   1:      Singlet-A      1.6375 eV  757.14 nm  f=0.3982  <S**2>=0.000
     309 -> 315       -0.19097
     311 -> 313        0.68256
     309 <- 315       -0.11967
 This state for optimization and/or second-order correction.
 Total Energy, E(TD-HF/TD-DFT) =  -4070.52037940
 Copying the excited state density for this state as the 1-particle RhoCI density.

 Excited State   2:      Singlet-A      1.7217 eV  720.11 nm  f=0.3757  <S**2>=0.000
     310 -> 316        0.19590
     312 -> 314        0.67980
     310 <- 316        0.11419

 Excited State   3:      Singlet-A      2.1723 eV  570.76 nm  f=0.0974  <S**2>=0.000
     309 -> 313        0.63451
     311 -> 315        0.29677

 Excited State   4:      Singlet-A      2.2243 eV  557.42 nm  f=0.0564  <S**2>=0.000
     310 -> 314        0.61467
     312 -> 316       -0.33872

 Excited State   5:      Singlet-A      3.2596 eV  380.36 nm  f=0.0048  <S**2>=0.000
     308 -> 313        0.67170
     311 -> 315       -0.12899

 The electronic state is 1-A.
 Alpha  occ. eigenvalues --  -46.96042 -46.94305 -19.29897 -19.29119 -19.25149
 Alpha  occ. eigenvalues --  -19.24987 -19.24336 -19.23380 -19.23273 -19.22681
 Alpha  occ. eigenvalues --  -14.46938 -14.46629 -14.46281 -14.45633 -14.44645
 Alpha  occ. eigenvalues --  -14.44434 -14.43829 -14.43324 -10.43468 -10.42091
 Alpha  occ. eigenvalues --  -10.39957 -10.39268 -10.38588 -10.37517 -10.35581
 Alpha  occ. eigenvalues --  -10.35455 -10.35402 -10.35328 -10.35166 -10.34939
 Alpha  occ. eigenvalues --  -10.34903 -10.34619 -10.34451 -10.34382 -10.34291
 Alpha  occ. eigenvalues --  -10.34235 -10.33820 -10.33447 -10.33117 -10.32990
 Alpha  occ. eigenvalues --  -10.32903 -10.32819 -10.32775 -10.32664 -10.32503
 Alpha  occ. eigenvalues --  -10.32490 -10.32405 -10.32362 -10.32258 -10.32243
 Alpha  occ. eigenvalues --  -10.32013 -10.31993 -10.31931 -10.31924 -10.31908
 Alpha  occ. eigenvalues --  -10.31904 -10.31889 -10.31746 -10.31719 -10.31644
 Alpha  occ. eigenvalues --  -10.31602 -10.31533 -10.31448 -10.31386 -10.31355
 Alpha  occ. eigenvalues --  -10.31089 -10.30752 -10.30743 -10.30719 -10.30574
 Alpha  occ. eigenvalues --  -10.30457 -10.30415 -10.30185 -10.30001 -10.29920
 Alpha  occ. eigenvalues --  -10.29905 -10.29903 -10.29738 -10.29736 -10.29714
 Alpha  occ. eigenvalues --  -10.29618 -10.29011 -10.29005 -10.28882 -10.28840
 Alpha  occ. eigenvalues --  -10.28053  -3.21832  -3.20563  -1.95429  -1.94944
 Alpha  occ. eigenvalues --   -1.94790  -1.94125  -1.93708  -1.93574  -1.17924
 Alpha  occ. eigenvalues --   -1.16998  -1.13779  -1.12299  -1.12207  -1.11208
 Alpha  occ. eigenvalues --   -1.09728  -1.08092  -1.07641  -1.07577  -1.06754
 Alpha  occ. eigenvalues --   -1.06108  -1.06102  -1.05886  -1.05011  -1.04681
 Alpha  occ. eigenvalues --   -0.95917  -0.94308  -0.91606  -0.91422  -0.91021
 Alpha  occ. eigenvalues --   -0.90352  -0.90278  -0.89890  -0.89851  -0.89849
 Alpha  occ. eigenvalues --   -0.89391  -0.88864  -0.88483  -0.88187  -0.87386
 Alpha  occ. eigenvalues --   -0.86547  -0.86287  -0.85473  -0.84965  -0.84636
 Alpha  occ. eigenvalues --   -0.84495  -0.84177  -0.83469  -0.82990  -0.82762
 Alpha  occ. eigenvalues --   -0.82482  -0.81009  -0.80149  -0.79570  -0.79375
 Alpha  occ. eigenvalues --   -0.78891  -0.78520  -0.78441  -0.77627  -0.77142
 Alpha  occ. eigenvalues --   -0.77136  -0.75518  -0.74613  -0.74400  -0.73664
 Alpha  occ. eigenvalues --   -0.71853  -0.71558  -0.71216  -0.71009  -0.70122
 Alpha  occ. eigenvalues --   -0.70110  -0.69371  -0.69314  -0.68111  -0.67861
 Alpha  occ. eigenvalues --   -0.67506  -0.67342  -0.66904  -0.66881  -0.66747
 Alpha  occ. eigenvalues --   -0.65745  -0.64725  -0.63693  -0.63159  -0.62501
 Alpha  occ. eigenvalues --   -0.61939  -0.61289  -0.61264  -0.61113  -0.61080
 Alpha  occ. eigenvalues --   -0.60184  -0.60020  -0.59875  -0.59790  -0.59528
 Alpha  occ. eigenvalues --   -0.58351  -0.58326  -0.58121  -0.57478  -0.57232
 Alpha  occ. eigenvalues --   -0.57089  -0.56805  -0.56584  -0.56398  -0.56332
 Alpha  occ. eigenvalues --   -0.55592  -0.55529  -0.55348  -0.55116  -0.54604
 Alpha  occ. eigenvalues --   -0.54591  -0.54560  -0.54333  -0.54271  -0.54175
 Alpha  occ. eigenvalues --   -0.54065  -0.54020  -0.53824  -0.53601  -0.53461
 Alpha  occ. eigenvalues --   -0.53233  -0.53192  -0.52531  -0.52417  -0.52313
 Alpha  occ. eigenvalues --   -0.52132  -0.52097  -0.51944  -0.51536  -0.51492
 Alpha  occ. eigenvalues --   -0.51436  -0.51254  -0.51007  -0.50991  -0.50938
 Alpha  occ. eigenvalues --   -0.50716  -0.50484  -0.50346  -0.50217  -0.50013
 Alpha  occ. eigenvalues --   -0.49938  -0.49713  -0.49451  -0.49093  -0.48850
 Alpha  occ. eigenvalues --   -0.48743  -0.48722  -0.48663  -0.48575  -0.48547
 Alpha  occ. eigenvalues --   -0.48429  -0.48093  -0.47911  -0.47772  -0.47617
 Alpha  occ. eigenvalues --   -0.47437  -0.47398  -0.47274  -0.47142  -0.47106
 Alpha  occ. eigenvalues --   -0.46766  -0.46678  -0.46504  -0.46450  -0.46072
 Alpha  occ. eigenvalues --   -0.45850  -0.45802  -0.45763  -0.45572  -0.45506
 Alpha  occ. eigenvalues --   -0.45391  -0.45099  -0.45069  -0.44843  -0.44839
 Alpha  occ. eigenvalues --   -0.44796  -0.44372  -0.44159  -0.44064  -0.44021
 Alpha  occ. eigenvalues --   -0.43871  -0.43816  -0.43779  -0.43507  -0.43343
 Alpha  occ. eigenvalues --   -0.43152  -0.42980  -0.42934  -0.42689  -0.42447
 Alpha  occ. eigenvalues --   -0.42217  -0.41645  -0.41490  -0.41111  -0.40378
 Alpha  occ. eigenvalues --   -0.40313  -0.40159  -0.40094  -0.39921  -0.39423
 Alpha  occ. eigenvalues --   -0.39257  -0.39025  -0.38418  -0.38304  -0.38297
 Alpha  occ. eigenvalues --   -0.37601  -0.37137  -0.36848  -0.36512  -0.36339
 Alpha  occ. eigenvalues --   -0.35778  -0.35436  -0.34946  -0.34637  -0.34050
 Alpha  occ. eigenvalues --   -0.33407  -0.33285  -0.32929  -0.32690  -0.32637
 Alpha  occ. eigenvalues --   -0.32061  -0.31859  -0.31660  -0.26497  -0.25761
 Alpha  occ. eigenvalues --   -0.23364  -0.22429
 Alpha virt. eigenvalues --   -0.07565  -0.06165  -0.00391   0.00156   0.01879
 Alpha virt. eigenvalues --    0.02300   0.04432   0.04584   0.05663   0.05876
 Alpha virt. eigenvalues --    0.06209   0.07169   0.07572   0.08114   0.08491

 Mulliken charges:
               1
     1  Mg   0.993158
     2  C    0.011023
     3  C   -0.117676
     4  C   -0.080828
     5  C   -0.116970
     6  N   -0.330599
     7  C   -0.016859
     8  C   -0.037290
     9  C   -0.154001
    10  C    0.076337
    11  C    0.047317
    12  C    0.007407
    13  C   -0.126066
    14  H    0.026413
    15  N   -0.509744
    16  C    0.179954
    17  C   -0.131314
    18  C   -0.119603
    19  C    0.182683
    20  C    0.046097
    21  C    0.071594
    22  O   -0.201874
    23  C   -0.025075
    24  N   -0.321354
    25  C    0.021029
    26  C   -0.086053
    27  C   -0.050212
    28  C   -0.008374
    29  C    0.024213
    30  C   -0.010712
    31  C   -0.046794
    32  N   -0.398943
    33  C    0.159933
    34  C   -0.186986
    35  C    0.034905
    36  C    0.091379
    37  C    0.104723
    38  C    0.050716
    39  O   -0.214256
    40  C   -0.074832
    41  C    0.264543
    42  O   -0.268211
    43  O   -0.355782
    44  C    0.151798
    45  H   -0.008493
    46  H    0.016485
    47  H   -0.010518
    48  H    0.043163
    49  H    0.031877
    50  H    0.045736
    51  H    0.038577
    52  H    0.045942
    53  H    0.033199
    54  H    0.041119
    55  H    0.049091
    56  H    0.062542
    57  H    0.060549
    58  H    0.029711
    59  H    0.066592
    60  H    0.061451
    61  H    0.069382
    62  H    0.048027
    63  H    0.035047
    64  H    0.029204
    65  H    0.038298
    66  H    0.025925
    67  H    0.050234
    68  H    0.032276
    69  H    0.032296
    70  H    0.028533
    71  H    0.041163
    72  H    0.043828
    73  H    0.059459
    74  H    0.063956
    75  H    0.019692
    76  H    0.072675
    77  H    0.061574
    78  H    0.057172
    79  H    0.029424
    80  Mg   0.938842
    81  C   -0.063526
    82  C   -0.088044
    83  C   -0.039737
    84  C   -0.124237
    85  N   -0.332172
    86  C    0.012969
    87  C   -0.124740
    88  C   -0.102966
    89  C    0.083805
    90  C    0.035829
    91  C    0.029696
    92  C   -0.116577
    93  H    0.044708
    94  N   -0.455914
    95  C    0.158258
    96  C   -0.182144
    97  C   -0.057299
    98  C    0.198418
    99  C    0.076119
   100  C    0.004709
   101  O   -0.235991
   102  C    0.002921
   103  N   -0.354024
   104  C   -0.009590
   105  C   -0.086546
   106  C   -0.051316
   107  C    0.062425
   108  C    0.022933
   109  C   -0.053261
   110  C   -0.067785
   111  N   -0.433829
   112  C    0.194250
   113  C   -0.187315
   114  C    0.053529
   115  C    0.162431
   116  C    0.075179
   117  C    0.056261
   118  O   -0.207027
   119  C   -0.077589
   120  C    0.295563
   121  O   -0.257365
   122  O   -0.388882
   123  C    0.139786
   124  H   -0.000119
   125  H   -0.030073
   126  H   -0.003604
   127  H    0.037101
   128  H    0.045713
   129  H    0.048932
   130  H    0.034016
   131  H    0.036032
   132  H    0.037199
   133  H    0.027164
   134  H    0.055789
   135  H    0.044458
   136  H    0.060721
   137  H    0.065620
   138  H    0.024418
   139  H    0.059350
   140  H    0.052012
   141  H    0.063627
   142  H    0.053046
   143  H    0.024113
   144  H    0.042387
   145  H    0.053160
   146  H    0.040444
   147  H    0.043626
   148  H    0.030925
   149  H    0.022311
   150  H    0.048000
   151  H    0.040155
   152  H    0.047483
   153  H    0.037849
   154  H    0.062250
   155  H    0.083012
   156  H    0.056846
   157  H    0.068856
   158  H    0.036421
 Sum of Mulliken charges =  -0.00000

 Dipole moment (field-independent basis, Debye):
    X=              2.8273    Y=             -4.6748    Z=             -0.1495  Tot=              5.4653
 Quadrupole moment (field-independent basis, Debye-Ang):
   XX=           -388.7443   YY=           -559.4408   ZZ=           -491.1973
   XY=            187.6397   XZ=             39.8447   YZ=             15.7041

 Normal termination of Gaussian 16 at Sat Sep 18 05:55:09 2021.
