 Gaussian 16, Revision A.03,
 Gaussian 16:  ES64L-G16RevA.03 25-Dec-2016

 --------------------------------
 #p wB97XD/Def2SVP td=(nstates=5)
 --------------------------------

 --------------------------------
 TDDFT excited states in gaussian
 --------------------------------
 Symbolic Z-matrix:
 Charge =  0 Multiplicity = 1

                         Standard orientation:
 ---------------------------------------------------------------------
 Center     Atomic      Atomic             Coordinates (Angstroms)
 Number     Number       Type             X           Y           Z
 ---------------------------------------------------------------------
      1         12           0       33.225982   -0.182100    0.144052
      2          6           0       29.862180    0.693216    0.638965
      3          6           0       32.208325   -3.355032   -0.518672
      4          6           0       36.333184   -0.739542   -0.710900
      5          6           0       33.836218    3.365574    0.054450
      6          7           0       31.284259   -1.183144    0.143897
      7          6           0       30.046374   -0.643042    0.350693
      8          6           0       28.994297   -1.671539   -0.090526
      9          6           0       29.739485   -2.986586    0.109567
     10          6           0       31.160788   -2.480011   -0.202232
     11          6           0       29.628185   -3.527841    1.553621
     12          6           0       28.564801   -1.448138   -1.587690
     13          6           0       27.057814   -0.977099   -1.888198
     14          1           0       26.822390    0.369350   -2.593691
     15          7           0       34.137028   -1.803178   -0.577677
     16          6           0       33.554677   -3.035924   -0.763473
     17          6           0       34.583999   -3.967878   -1.103170
     18          6           0       35.853793   -3.302444   -1.063141
     19          6           0       35.501895   -1.880379   -0.782117
     20          6           0       34.308201   -5.478588   -1.415575
     21          6           0       37.245052   -4.007234   -1.258741
     22          8           0       37.304506   -5.193693   -1.363039
     23          6           0       38.453545   -3.225064   -1.028384
     24          7           0       34.787546    1.152386   -0.581042
     25          6           0       36.026974    0.615503   -0.483260
     26          6           0       37.101113    1.642131   -0.165161
     27          6           0       36.364013    2.966318   -0.294899
     28          6           0       34.873065    2.480195   -0.280764
     29          6           0       37.730347    1.449481    1.264111
     30          6           0       36.679445    3.928114   -1.535304
     31          6           0       37.442996    5.215008   -1.372612
     32          7           0       32.181548    1.638967    0.502913
     33          6           0       32.546791    2.989532    0.433382
     34          6           0       31.416334    3.861302    0.669394
     35          6           0       30.357238    2.994372    0.781315
     36          6           0       30.824957    1.644983    0.654077
     37          6           0       31.457976    5.332719    0.680051
     38          6           0       28.918735    2.927520    0.988530
     39          8           0       28.115115    3.834779    1.237151
     40          6           0       28.562246    1.456108    1.014495
     41          6           0       27.994098    1.152781    2.396611
     42          8           0       28.656968    1.360532    3.410329
     43          8           0       26.647641    0.762543    2.327938
     44          6           0       26.036994    0.493143    3.602241
     45          1           0       31.866020   -4.390381   -0.570690
     46          1           0       37.386320   -1.023277   -0.681272
     47          1           0       34.051332    4.433262    0.135906
     48          1           0       28.097398   -1.472562    0.496592
     49          1           0       29.348478   -3.707898   -0.606931
     50          1           0       29.328296   -4.548918    1.320490
     51          1           0       28.840463   -2.929163    2.011846
     52          1           0       30.529301   -3.487933    2.165702
     53          1           0       28.668124   -2.405601   -2.098120
     54          1           0       29.298258   -0.784817   -2.045422
     55          1           0       26.598126   -0.849469   -0.907856
     56          1           0       26.446376   -1.713741   -2.407984
     57          1           0       34.738199   -5.900008   -2.323678
     58          1           0       33.223416   -5.569871   -1.479374
     59          1           0       34.631221   -6.140005   -0.611455
     60          1           0       38.546955   -2.343430   -1.662868
     61          1           0       39.316179   -3.870722   -1.192755
     62          1           0       38.575040   -3.027557    0.035783
     63          1           0       37.960724    1.569794   -0.832285
     64          1           0       36.484388    3.555983    0.613910
     65          1           0       38.681381    0.917407    1.248650
     66          1           0       36.982985    1.029585    1.937323
     67          1           0       37.946911    2.445643    1.652604
     68          1           0       35.880097    4.121997   -2.249721
     69          1           0       37.341440    3.224386   -2.040616
     70          1           0       38.418025    5.206462   -1.858766
     71          1           0       37.614735    5.405495   -0.312940
     72          1           0       36.788990    5.971818   -1.805150
     73          1           0       32.304459    5.644627    0.067662
     74          1           0       31.673389    5.609683    1.712424
     75          1           0       30.500391    5.760935    0.387356
     76          1           0       27.772263    1.394010    0.267273
     77          1           0       26.309942   -0.466124    4.042832
     78          1           0       24.949454    0.506753    3.536047
     79          1           0       26.251391    1.236508    4.369579
     80         12           0      -32.979991    0.346570    0.516568
     81          6           0      -30.479717   -1.878276   -0.776839
     82          6           0      -31.435510    2.826375   -1.538916
     83          6           0      -35.693525    2.317329    0.720771
     84          6           0      -34.638052   -2.365229    1.778824
     85          7           0      -31.212464    0.402032   -0.977169
     86          6           0      -30.342669   -0.593457   -1.314719
     87          6           0      -29.256492   -0.099899   -2.333127
     88          6           0      -29.405910    1.490187   -2.191371
     89          6           0      -30.805113    1.574214   -1.602499
     90          6           0      -28.402678    2.139756   -1.266036
     91          6           0      -29.392559   -0.723689   -3.712257
     92          6           0      -28.096185   -1.215113   -4.407196
     93          1           0      -27.387206   -0.336314   -5.539857
     94          7           0      -33.490447    2.403924   -0.226853
     95          6           0      -32.649507    3.254638   -0.974284
     96          6           0      -33.325511    4.545427   -1.153141
     97          6           0      -34.579697    4.410794   -0.437148
     98          6           0      -34.679398    3.025987   -0.029109
     99          6           0      -32.842270    5.707927   -1.935760
    100          6           0      -35.557443    5.531002   -0.184919
    101          8           0      -35.217414    6.658845   -0.463447
    102          6           0      -36.935543    5.344823    0.406883
    103          7           0      -34.853320   -0.053118    1.039238
    104          6           0      -35.754329    0.997233    1.190011
    105          6           0      -37.048568    0.410503    1.758332
    106          6           0      -36.625159   -1.010549    2.282043
    107          6           0      -35.258803   -1.138422    1.697924
    108          6           0      -37.870569    1.275284    2.783156
    109          6           0      -37.573227   -2.213861    1.989689
    110          6           0      -38.041168   -3.034553    3.147042
    111          7           0      -32.629705   -1.669049    0.639976
    112          6           0      -33.358904   -2.669976    1.257884
    113          6           0      -32.577485   -3.919861    1.327363
    114          6           0      -31.454201   -3.627742    0.460158
    115          6           0      -31.570435   -2.284573    0.089431
    116          6           0      -32.882030   -5.221162    2.021637
    117          6           0      -30.209991   -4.225928   -0.107405
    118          8           0      -29.792938   -5.348015   -0.060072
    119          6           0      -29.633236   -3.134230   -1.002910
    120          6           0      -28.212744   -2.900935   -0.582787
    121          8           0      -27.996672   -2.438896    0.516971
    122          8           0      -27.216714   -3.156704   -1.572507
    123          6           0      -25.822293   -2.734230   -1.240256
    124          1           0      -30.963470    3.626688   -2.112896
    125          1           0      -36.643405    2.827864    0.888023
    126          1           0      -35.111890   -3.156313    2.363225
    127          1           0      -28.246292   -0.271152   -1.962391
    128          1           0      -29.448449    1.974628   -3.166803
    129          1           0      -28.744611    2.004561   -0.240184
    130          1           0      -28.316828    3.182976   -1.569731
    131          1           0      -27.382956    1.754095   -1.241157
    132          1           0      -29.794841    0.058237   -4.355615
    133          1           0      -30.195287   -1.459590   -3.666360
    134          1           0      -28.398315   -2.170076   -4.837825
    135          1           0      -27.287008   -1.431218   -3.709499
    136          1           0      -32.395151    6.392771   -1.215858
    137          1           0      -33.699408    6.251829   -2.332850
    138          1           0      -32.148851    5.563513   -2.765130
    139          1           0      -37.562171    6.236393    0.419461
    140          1           0      -36.767979    5.040938    1.440241
    141          1           0      -37.581308    4.557658    0.019472
    142          1           0      -37.689030    0.409019    0.875865
    143          1           0      -36.394309   -0.923379    3.343325
    144          1           0      -37.239638    2.043607    3.230849
    145          1           0      -38.341931    0.636210    3.529596
    146          1           0      -38.711920    1.752667    2.281305
    147          1           0      -37.085244   -2.878094    1.276485
    148          1           0      -38.412497   -1.824357    1.413636
    149          1           0      -37.526282   -3.994954    3.133525
    150          1           0      -39.109074   -3.228919    3.048473
    151          1           0      -37.891314   -2.628578    4.147222
    152          1           0      -31.972311   -5.797000    2.190469
    153          1           0      -33.579369   -5.757250    1.377266
    154          1           0      -33.447619   -4.991093    2.924748
    155          1           0      -29.787589   -3.445893   -2.036046
    156          1           0      -25.373793   -3.474614   -0.577632
    157          1           0      -25.821779   -1.795276   -0.687068
    158          1           0      -25.231953   -2.601032   -2.146616
 ---------------------------------------------------------------------

 SCF Done:  E(RwB97XD) =  -4070.61234860     A.U. after   19 cycles

 Excitation energies and oscillator strengths:

 Excited State   1:      Singlet-A      1.6114 eV  769.42 nm  f=0.3979  <S**2>=0.000
     310 -> 316        0.17521
     311 -> 313        0.68623
     310 <- 316        0.11591
 This state for optimization and/or second-order correction.
 Total Energy, E(TD-HF/TD-DFT) =  -4070.55313093
 Copying the excited state density for this state as the 1-particle RhoCI density.

 Excited State   2:      Singlet-A      1.6668 eV  743.87 nm  f=0.3615  <S**2>=0.000
     309 -> 315       -0.19753
     312 -> 314        0.68094
     309 <- 315       -0.12066

 Excited State   3:      Singlet-A      2.1827 eV  568.03 nm  f=0.1250  <S**2>=0.000
     310 -> 313        0.63923
     311 -> 316       -0.28435

 Excited State   4:      Singlet-A      2.2261 eV  556.96 nm  f=0.0509  <S**2>=0.000
     309 -> 314        0.60367
     312 -> 315        0.35676

 Excited State   5:      Singlet-A      3.1514 eV  393.42 nm  f=0.0019  <S**2>=0.000
     306 -> 313       -0.12246
     308 -> 313        0.66849
     311 -> 316        0.10225

 The electronic state is 1-A.
 Alpha  occ. eigenvalues --  -46.95667 -46.95033 -19.31292 -19.30514 -19.25680
 Alpha  occ. eigenvalues --  -19.25559 -19.24793 -19.24070 -19.23858 -19.22971
 Alpha  occ. eigenvalues --  -14.47403 -14.46733 -14.46680 -14.46270 -14.43995
 Alpha  occ. eigenvalues --  -14.43976 -14.43944 -14.43747 -10.44156 -10.44116
 Alpha  occ. eigenvalues --  -10.39444 -10.38982 -10.38616 -10.38449 -10.36038
 Alpha  occ. eigenvalues --  -10.35424 -10.35335 -10.35260 -10.35175 -10.35143
 Alpha  occ. eigenvalues --  -10.34876 -10.34704 -10.34697 -10.34573 -10.34483
 Alpha  occ. eigenvalues --  -10.34305 -10.34287 -10.33839 -10.33548 -10.33507
 Alpha  occ. eigenvalues --  -10.33286 -10.33229 -10.33117 -10.32903 -10.32853
 Alpha  occ. eigenvalues --  -10.32789 -10.32699 -10.32629 -10.32495 -10.32200
 Alpha  occ. eigenvalues --  -10.32149 -10.32093 -10.32064 -10.31949 -10.31947
 Alpha  occ. eigenvalues --  -10.31945 -10.31922 -10.31830 -10.31660 -10.31631
 Alpha  occ. eigenvalues --  -10.31296 -10.31219 -10.31045 -10.31028 -10.30943
 Alpha  occ. eigenvalues --  -10.30939 -10.30909 -10.30855 -10.30734 -10.30604
 Alpha  occ. eigenvalues --  -10.30494 -10.30394 -10.30366 -10.30363 -10.30293
 Alpha  occ. eigenvalues --  -10.30126 -10.30089 -10.29907 -10.29863 -10.29742
 Alpha  occ. eigenvalues --  -10.29627 -10.29540 -10.29501 -10.29427 -10.29278
 Alpha  occ. eigenvalues --  -10.29206  -3.21701  -3.21078  -1.95232  -1.94823
 Alpha  occ. eigenvalues --   -1.94672  -1.94644  -1.94217  -1.94046  -1.18174
 Alpha  occ. eigenvalues --   -1.17531  -1.14106  -1.13995  -1.12401  -1.11359
 Alpha  occ. eigenvalues --   -1.10469  -1.10101  -1.06785  -1.06581  -1.06282
 Alpha  occ. eigenvalues --   -1.05594  -1.04915  -1.04804  -1.04115  -1.03538
 Alpha  occ. eigenvalues --   -0.95060  -0.94757  -0.91266  -0.91016  -0.90849
 Alpha  occ. eigenvalues --   -0.90763  -0.90459  -0.90348  -0.89577  -0.89533
 Alpha  occ. eigenvalues --   -0.89055  -0.88174  -0.87589  -0.86939  -0.86506
 Alpha  occ. eigenvalues --   -0.86402  -0.86147  -0.85854  -0.84468  -0.84448
 Alpha  occ. eigenvalues --   -0.84408  -0.83739  -0.83012  -0.82831  -0.82496
 Alpha  occ. eigenvalues --   -0.82176  -0.80086  -0.79952  -0.79437  -0.79180
 Alpha  occ. eigenvalues --   -0.78746  -0.78344  -0.78258  -0.78224  -0.77166
 Alpha  occ. eigenvalues --   -0.77047  -0.74882  -0.74646  -0.74115  -0.73753
 Alpha  occ. eigenvalues --   -0.71445  -0.70956  -0.70898  -0.70602  -0.70107
 Alpha  occ. eigenvalues --   -0.69918  -0.68759  -0.68686  -0.67857  -0.67795
 Alpha  occ. eigenvalues --   -0.67566  -0.67064  -0.66868  -0.66554  -0.66477
 Alpha  occ. eigenvalues --   -0.66322  -0.64731  -0.64346  -0.62213  -0.62055
 Alpha  occ. eigenvalues --   -0.61804  -0.61505  -0.61193  -0.61109  -0.61045
 Alpha  occ. eigenvalues --   -0.60884  -0.60489  -0.60329  -0.59712  -0.59634
 Alpha  occ. eigenvalues --   -0.58498  -0.58222  -0.58068  -0.57603  -0.57423
 Alpha  occ. eigenvalues --   -0.57254  -0.56895  -0.56234  -0.55924  -0.55832
 Alpha  occ. eigenvalues --   -0.55483  -0.55312  -0.55107  -0.55057  -0.54944
 Alpha  occ. eigenvalues --   -0.54843  -0.54720  -0.54621  -0.54168  -0.54131
 Alpha  occ. eigenvalues --   -0.53768  -0.53732  -0.53672  -0.53238  -0.53029
 Alpha  occ. eigenvalues --   -0.52958  -0.52838  -0.52818  -0.52388  -0.52341
 Alpha  occ. eigenvalues --   -0.52096  -0.51867  -0.51810  -0.51740  -0.51676
 Alpha  occ. eigenvalues --   -0.51584  -0.51258  -0.51241  -0.51046  -0.51015
 Alpha  occ. eigenvalues --   -0.50646  -0.50615  -0.50528  -0.50266  -0.50093
 Alpha  occ. eigenvalues --   -0.50022  -0.49603  -0.49443  -0.49036  -0.49009
 Alpha  occ. eigenvalues --   -0.48933  -0.48522  -0.48371  -0.48340  -0.48313
 Alpha  occ. eigenvalues --   -0.48213  -0.48131  -0.48044  -0.47983  -0.47902
 Alpha  occ. eigenvalues --   -0.47900  -0.47750  -0.47378  -0.47287  -0.47199
 Alpha  occ. eigenvalues --   -0.46903  -0.46597  -0.46391  -0.46247  -0.46100
 Alpha  occ. eigenvalues --   -0.45799  -0.45719  -0.45566  -0.45534  -0.45401
 Alpha  occ. eigenvalues --   -0.45268  -0.45244  -0.45036  -0.44815  -0.44551
 Alpha  occ. eigenvalues --   -0.44542  -0.44485  -0.44393  -0.44384  -0.44093
 Alpha  occ. eigenvalues --   -0.43891  -0.43834  -0.43654  -0.43551  -0.43530
 Alpha  occ. eigenvalues --   -0.43019  -0.43004  -0.42764  -0.42729  -0.42608
 Alpha  occ. eigenvalues --   -0.42470  -0.42294  -0.42153  -0.41958  -0.41184
 Alpha  occ. eigenvalues --   -0.40900  -0.40416  -0.39945  -0.39651  -0.39474
 Alpha  occ. eigenvalues --   -0.39353  -0.39173  -0.39157  -0.38625  -0.38610
 Alpha  occ. eigenvalues --   -0.38591  -0.37764  -0.36996  -0.36836  -0.36721
 Alpha  occ. eigenvalues --   -0.36390  -0.35743  -0.35457  -0.33632  -0.33556
 Alpha  occ. eigenvalues --   -0.33320  -0.33201  -0.32951  -0.32398  -0.32329
 Alpha  occ. eigenvalues --   -0.31861  -0.31823  -0.30913  -0.26325  -0.26225
 Alpha  occ. eigenvalues --   -0.22919  -0.22806
 Alpha virt. eigenvalues --   -0.07341  -0.06660  -0.00336   0.00435   0.02586
 Alpha virt. eigenvalues --    0.02721   0.04236   0.04600   0.04823   0.05188
 Alpha virt. eigenvalues --    0.06360   0.06514   0.06920   0.07473   0.07979

 Mulliken charges:
               1
     1  Mg   0.956823
     2  C   -0.054909
     3  C   -0.098062
     4  C   -0.052996
     5  C   -0.094284
     6  N   -0.331831
     7  C   -0.023661
     8  C   -0.114977
     9  C   -0.115656
    10  C    0.039096
    11  C    0.060837
    12  C    0.025437
    13  C   -0.134543
    14  H    0.044827
    15  N   -0.518585
    16  C    0.210444
    17  C   -0.172932
    18  C   -0.106158
    19  C    0.151573
    20  C    0.083425
    21  C    0.062070
    22  O   -0.196875
    23  C   -0.021519
    24  N   -0.326785
    25  C    0.062308
    26  C   -0.102087
    27  C   -0.070024
    28  C    0.069777
    29  C    0.021104
    30  C   -0.022405
    31  C   -0.034780
    32  N   -0.428971
    33  C    0.127741
    34  C   -0.206712
    35  C   -0.016865
    36  C    0.192945
    37  C    0.097516
    38  C    0.099141
    39  O   -0.220860
    40  C   -0.022008
    41  C    0.288756
    42  O   -0.244362
    43  O   -0.362519
    44  C    0.139838
    45  H    0.001623
    46  H   -0.029280
    47  H   -0.001544
    48  H    0.017289
    49  H    0.023672
    50  H    0.042913
    51  H    0.038776
    52  H    0.055129
    53  H    0.032696
    54  H    0.055655
    55  H    0.047919
    56  H    0.058762
    57  H    0.056025
    58  H    0.011825
    59  H    0.051541
    60  H    0.070932
    61  H    0.042028
    62  H    0.069574
    63  H    0.033441
    64  H    0.024328
    65  H    0.046126
    66  H    0.041571
    67  H    0.029652
    68  H    0.043973
    69  H    0.016341
    70  H    0.044045
    71  H    0.026341
    72  H    0.041568
    73  H    0.036643
    74  H    0.058300
    75  H    0.066030
    76  H    0.061028
    77  H    0.042323
    78  H    0.050437
    79  H    0.054024
    80  Mg   0.981482
    81  C   -0.076464
    82  C   -0.054051
    83  C   -0.079996
    84  C   -0.124287
    85  N   -0.312907
    86  C   -0.015840
    87  C   -0.066143
    88  C   -0.119671
    89  C    0.048897
    90  C    0.041511
    91  C    0.037391
    92  C   -0.107639
    93  H    0.023538
    94  N   -0.419663
    95  C    0.112404
    96  C   -0.143770
    97  C   -0.073662
    98  C    0.168668
    99  C    0.081066
   100  C    0.035390
   101  O   -0.234893
   102  C   -0.011889
   103  N   -0.451829
   104  C    0.092115
   105  C   -0.128691
   106  C   -0.033686
   107  C    0.089088
   108  C    0.013831
   109  C    0.000933
   110  C   -0.047244
   111  N   -0.442275
   112  C    0.135320
   113  C   -0.189519
   114  C   -0.106239
   115  C    0.178359
   116  C    0.090763
   117  C    0.132669
   118  O   -0.174077
   119  C   -0.015181
   120  C    0.278318
   121  O   -0.234438
   122  O   -0.404951
   123  C    0.133369
   124  H   -0.006114
   125  H   -0.037508
   126  H   -0.011868
   127  H    0.025650
   128  H    0.028730
   129  H    0.043276
   130  H    0.042629
   131  H    0.036716
   132  H    0.037366
   133  H    0.040603
   134  H    0.055488
   135  H    0.048125
   136  H    0.055544
   137  H    0.053884
   138  H    0.036864
   139  H    0.051220
   140  H    0.050056
   141  H    0.057895
   142  H    0.051501
   143  H    0.033585
   144  H    0.044838
   145  H    0.038341
   146  H    0.031052
   147  H    0.038658
   148  H    0.025388
   149  H    0.036252
   150  H    0.036907
   151  H    0.035848
   152  H    0.071580
   153  H    0.053866
   154  H    0.034429
   155  H    0.072707
   156  H    0.063783
   157  H    0.051498
   158  H    0.065102
 Sum of Mulliken charges =  -0.00000

 Dipole moment (field-independent basis, Debye):
    X=              0.5804    Y=             -0.2992    Z=              1.4140  Tot=              1.5575
 Quadrupole moment (field-independent basis, Debye-Ang):
   XX=           -212.1846   YY=           -563.3889   ZZ=           -508.6401
   XY=             65.6347   XZ=            -28.0810   YZ=            -13.7233

 Normal termination of Gaussian 16 at Mon Sep 20 17:19:00 2021.
