 Gaussian 16, Revision A.03,
 Gaussian 16:  ES64L-G16RevA.03 25-Dec-2016

 --------------------------------
 #p wB97XD/Def2SVP td=(nstates=5)
 --------------------------------

 --------------------------------
 TDDFT excited states in gaussian
 --------------------------------
 Symbolic Z-matrix:
 Charge =  0 Multiplicity = 1

                         Standard orientation:
 ---------------------------------------------------------------------
 Center     Atomic      Atomic             Coordinates (Angstroms)
 Number     Number       Type             X           Y           Z
 ---------------------------------------------------------------------
      1         12           0       20.506040   -0.803832    0.122752
      2          6           0       19.677280    2.159532   -1.599397
      3          6           0       21.935407    1.122387    2.584053
      4          6           0       21.400965   -3.580499    1.787009
      5          6           0       19.565270   -2.710504   -2.656230
      6          7           0       20.607720    1.358550    0.431053
      7          6           0       20.245925    2.407071   -0.302771
      8          6           0       20.526724    3.799796    0.298926
      9          6           0       21.501206    3.308147    1.475735
     10          6           0       21.376173    1.804152    1.471444
     11          6           0       22.933280    3.753212    1.304221
     12          6           0       19.204369    4.568901    0.855183
     13          6           0       19.348438    6.093576    0.847475
     14          1           0       18.316697    6.823557   -0.050582
     15          7           0       21.397459   -1.211455    2.044507
     16          6           0       21.968960   -0.225393    2.886326
     17          6           0       22.266515   -0.874391    4.143303
     18          6           0       22.099727   -2.243287    3.953825
     19          6           0       21.592429   -2.422708    2.557311
     20          6           0       22.883847   -0.167018    5.334926
     21          6           0       22.276642   -3.414940    4.892276
     22          8           0       21.992596   -4.517744    4.525578
     23          6           0       22.729317   -3.238797    6.307408
     24          7           0       20.680176   -2.830151   -0.414639
     25          6           0       21.007612   -3.810890    0.475675
     26          6           0       20.803243   -5.160568   -0.266861
     27          6           0       19.758449   -4.899339   -1.336950
     28          6           0       19.995118   -3.384390   -1.541126
     29          6           0       22.114927   -5.575368   -0.931894
     30          6           0       18.371335   -5.259645   -0.952109
     31          6           0       17.847733   -4.826830    0.394962
     32          7           0       19.738042   -0.423582   -1.750299
     33          6           0       19.407010   -1.271213   -2.790693
     34          6           0       18.882271   -0.469073   -3.906639
     35          6           0       18.953936    0.861086   -3.457620
     36          6           0       19.461612    0.834156   -2.187377
     37          6           0       18.441780   -0.974561   -5.212163
     38          6           0       18.578683    2.221208   -3.737174
     39          8           0       17.981943    2.728172   -4.732090
     40          6           0       19.029355    3.105741   -2.480374
     41          6           0       20.026062    4.108045   -3.002182
     42          8           0       20.940531    3.806254   -3.710256
     43          8           0       19.847948    5.443004   -2.548213
     44          6           0       21.004099    6.357276   -2.795682
     45          1           0       22.439911    1.713794    3.350217
     46          1           0       21.768685   -4.499380    2.249200
     47          1           0       19.094128   -3.246585   -3.483048
     48          1           0       20.954818    4.455108   -0.460652
     49          1           0       21.073153    3.758922    2.371948
     50          1           0       23.048951    4.642883    1.923048
     51          1           0       23.215394    3.880107    0.258821
     52          1           0       23.506545    2.991157    1.832078
     53          1           0       19.005334    4.265349    1.883435
     54          1           0       18.320274    4.267216    0.293159
     55          1           0       20.384286    6.210054    0.528135
     56          1           0       19.331399    6.512862    1.853280
     57          1           0       22.678995    0.887504    5.154133
     58          1           0       23.950574   -0.329717    5.183561
     59          1           0       22.441309   -0.480109    6.280786
     60          1           0       21.830977   -2.783506    6.724649
     61          1           0       23.565018   -2.551288    6.435097
     62          1           0       22.956738   -4.206414    6.756045
     63          1           0       20.531600   -6.003755    0.367290
     64          1           0       19.895346   -5.450292   -2.266847
     65          1           0       22.249749   -5.425624   -2.003157
     66          1           0       22.261752   -6.635171   -0.723914
     67          1           0       22.927084   -5.054148   -0.423831
     68          1           0       18.186457   -6.329477   -1.051810
     69          1           0       17.757484   -4.774222   -1.710598
     70          1           0       17.081535   -4.079869    0.185402
     71          1           0       18.472039   -4.389815    1.174860
     72          1           0       17.328072   -5.674039    0.842220
     73          1           0       19.321891   -1.315433   -5.757323
     74          1           0       17.927714   -0.123077   -5.657905
     75          1           0       17.799032   -1.849469   -5.105768
     76          1           0       18.097732    3.513007   -2.087111
     77          1           0       21.016013    6.678143   -3.837269
     78          1           0       21.967893    5.906086   -2.555456
     79          1           0       20.976584    7.313380   -2.273772
     80         12           0      -20.823190   -0.628993   -0.356021
     81          6           0      -18.927628    2.344267    0.069165
     82          6           0      -23.558775    1.226458    0.903304
     83          6           0      -22.594269   -3.368990   -0.350201
     84          6           0      -17.911656   -2.288606   -1.286205
     85          7           0      -21.205657    1.581813    0.424755
     86          6           0      -20.261628    2.578077    0.376188
     87          6           0      -20.815710    3.945292    0.739571
     88          6           0      -22.294234    3.513526    1.129173
     89          6           0      -22.389500    2.023460    0.766818
     90          6           0      -22.618835    3.909759    2.566479
     91          6           0      -20.752121    4.901208   -0.471918
     92          6           0      -20.442211    6.425064   -0.214347
     93          1           0      -20.683051    6.987522    1.206374
     94          7           0      -22.833270   -1.017946    0.125721
     95          6           0      -23.752399   -0.138124    0.698102
     96          6           0      -25.022186   -0.859363    0.879123
     97          6           0      -24.771583   -2.192202    0.416047
     98          6           0      -23.355109   -2.194830    0.002995
     99          6           0      -26.181433   -0.273674    1.488715
    100          6           0      -25.730730   -3.377350    0.368949
    101          8           0      -25.338220   -4.504965    0.029582
    102          6           0      -27.184135   -3.181134    0.554506
    103          7           0      -20.298125   -2.580878   -0.662252
    104          6           0      -21.241508   -3.525376   -0.705211
    105          6           0      -20.618216   -4.929588   -0.994302
    106          6           0      -19.185215   -4.537948   -1.476027
    107          6           0      -19.080139   -3.086593   -1.126408
    108          6           0      -20.692278   -5.931584    0.213579
    109          6           0      -19.202826   -4.751118   -3.037905
    110          6           0      -19.539070   -3.556659   -3.995808
    111          7           0      -18.849867   -0.112836   -0.677093
    112          6           0      -17.764617   -0.927697   -1.047146
    113          6           0      -16.536374   -0.094761   -1.044311
    114          6           0      -16.957864    1.139961   -0.564907
    115          6           0      -18.323970    1.146310   -0.378065
    116          6           0      -15.230167   -0.713155   -1.192084
    117          6           0      -16.425051    2.420360   -0.105849
    118          8           0      -15.252222    2.773178   -0.053977
    119          6           0      -17.694873    3.275127    0.361856
    120          6           0      -17.570761    3.688320    1.780869
    121          8           0      -18.029285    3.093235    2.751822
    122          8           0      -16.851895    4.896967    1.844796
    123          6           0      -16.522835    5.514815    3.109432
    124          1           0      -24.495380    1.770769    1.043806
    125          1           0      -23.133709   -4.318009   -0.389905
    126          1           0      -17.080596   -2.905826   -1.632973
    127          1           0      -20.293317    4.400198    1.581554
    128          1           0      -22.953779    4.153718    0.543930
    129          1           0      -23.507783    4.528657    2.683118
    130          1           0      -21.825930    4.417225    3.115968
    131          1           0      -22.880373    2.987495    3.086955
    132          1           0      -21.676915    4.859601   -1.047227
    133          1           0      -19.969416    4.419892   -1.059298
    134          1           0      -21.095214    7.051358   -0.821247
    135          1           0      -19.473456    6.598335   -0.682928
    136          1           0      -27.005876   -0.439451    0.794935
    137          1           0      -25.961655    0.724537    1.866132
    138          1           0      -26.236227   -0.867853    2.401428
    139          1           0      -27.466469   -2.964462    1.585212
    140          1           0      -27.708468   -4.099905    0.292453
    141          1           0      -27.466501   -2.280702    0.009748
    142          1           0      -21.311916   -5.244988   -1.773699
    143          1           0      -18.421748   -5.192287   -1.054492
    144          1           0      -21.558209   -6.584564    0.103775
    145          1           0      -20.667366   -5.328624    1.120704
    146          1           0      -19.777162   -6.521595    0.165908
    147          1           0      -19.735037   -5.674367   -3.267835
    148          1           0      -18.142959   -4.829063   -3.282021
    149          1           0      -20.214112   -4.004647   -4.724427
    150          1           0      -18.666572   -3.180018   -4.531205
    151          1           0      -20.066891   -2.715356   -3.547987
    152          1           0      -15.173505   -1.566760   -0.517827
    153          1           0      -14.500307    0.027488   -0.863627
    154          1           0      -14.987349   -0.868750   -2.242891
    155          1           0      -17.646872    4.159001   -0.274951
    156          1           0      -15.520839    5.271663    3.462120
    157          1           0      -17.349258    5.438682    3.816226
    158          1           0      -16.602437    6.569126    2.842956
 ---------------------------------------------------------------------

 SCF Done:  E(RwB97XD) =  -4070.60430965     A.U. after   18 cycles

 Excitation energies and oscillator strengths:

 Excited State   1:      Singlet-A      1.6527 eV  750.19 nm  f=0.3713  <S**2>=0.000
     309 -> 315       -0.17782
     311 -> 313        0.68540
     309 <- 315       -0.11379
 This state for optimization and/or second-order correction.
 Total Energy, E(TD-HF/TD-DFT) =  -4070.54357404
 Copying the excited state density for this state as the 1-particle RhoCI density.

 Excited State   2:      Singlet-A      1.6997 eV  729.46 nm  f=0.3710  <S**2>=0.000
     310 -> 316       -0.19453
     312 -> 314        0.67889
     310 <- 316       -0.11677

 Excited State   3:      Singlet-A      2.1346 eV  580.82 nm  f=0.1149  <S**2>=0.000
     309 -> 313        0.64472
     311 -> 315        0.27147

 Excited State   4:      Singlet-A      2.2204 eV  558.38 nm  f=0.0706  <S**2>=0.000
     310 -> 314        0.62145
     312 -> 316        0.32313

 Excited State   5:      Singlet-A      3.3779 eV  367.04 nm  f=0.0299  <S**2>=0.000
     299 -> 313        0.15944
     305 -> 313        0.38430
     306 -> 313       -0.36623
     308 -> 313       -0.34717
     311 -> 315       -0.19123

 The electronic state is 1-A.
 Alpha  occ. eigenvalues --  -46.94925 -46.94807 -19.29685 -19.29195 -19.24907
 Alpha  occ. eigenvalues --  -19.24782 -19.24310 -19.24120 -19.23795 -19.23245
 Alpha  occ. eigenvalues --  -14.48004 -14.46715 -14.45900 -14.45817 -14.44313
 Alpha  occ. eigenvalues --  -14.44266 -14.43597 -14.43494 -10.43298 -10.43208
 Alpha  occ. eigenvalues --  -10.39348 -10.39275 -10.39155 -10.38724 -10.35917
 Alpha  occ. eigenvalues --  -10.35422 -10.35336 -10.35070 -10.35034 -10.35032
 Alpha  occ. eigenvalues --  -10.34872 -10.34732 -10.34724 -10.34514 -10.34488
 Alpha  occ. eigenvalues --  -10.34430 -10.34417 -10.34184 -10.33633 -10.33315
 Alpha  occ. eigenvalues --  -10.33209 -10.33193 -10.33137 -10.32926 -10.32890
 Alpha  occ. eigenvalues --  -10.32749 -10.32489 -10.32291 -10.32291 -10.32283
 Alpha  occ. eigenvalues --  -10.32221 -10.32183 -10.32159 -10.32144 -10.31676
 Alpha  occ. eigenvalues --  -10.31674 -10.31561 -10.31424 -10.31401 -10.31392
 Alpha  occ. eigenvalues --  -10.31330 -10.31171 -10.31145 -10.31120 -10.31112
 Alpha  occ. eigenvalues --  -10.31043 -10.30740 -10.30674 -10.30587 -10.30471
 Alpha  occ. eigenvalues --  -10.30386 -10.30376 -10.30283 -10.30274 -10.29636
 Alpha  occ. eigenvalues --  -10.29590 -10.29349 -10.29262 -10.29183 -10.29069
 Alpha  occ. eigenvalues --  -10.28932 -10.28889 -10.28889 -10.28657 -10.28361
 Alpha  occ. eigenvalues --  -10.28241  -3.20859  -3.20796  -1.94472  -1.94393
 Alpha  occ. eigenvalues --   -1.93959  -1.93931  -1.93846  -1.93754  -1.17703
 Alpha  occ. eigenvalues --   -1.16782  -1.14353  -1.11842  -1.11433  -1.09539
 Alpha  occ. eigenvalues --   -1.09408  -1.08816  -1.07291  -1.06780  -1.06069
 Alpha  occ. eigenvalues --   -1.05605  -1.05056  -1.04892  -1.03731  -1.03339
 Alpha  occ. eigenvalues --   -0.94888  -0.93906  -0.91965  -0.91847  -0.91292
 Alpha  occ. eigenvalues --   -0.90742  -0.90508  -0.90221  -0.89782  -0.89278
 Alpha  occ. eigenvalues --   -0.88821  -0.88613  -0.88079  -0.88071  -0.86584
 Alpha  occ. eigenvalues --   -0.86037  -0.85393  -0.85179  -0.84560  -0.84559
 Alpha  occ. eigenvalues --   -0.84398  -0.83837  -0.83016  -0.82733  -0.82386
 Alpha  occ. eigenvalues --   -0.81840  -0.80937  -0.80901  -0.79228  -0.78987
 Alpha  occ. eigenvalues --   -0.78975  -0.78747  -0.78183  -0.77675  -0.76911
 Alpha  occ. eigenvalues --   -0.76711  -0.74401  -0.74071  -0.73281  -0.73259
 Alpha  occ. eigenvalues --   -0.71578  -0.71109  -0.70842  -0.70819  -0.69809
 Alpha  occ. eigenvalues --   -0.69791  -0.69068  -0.68720  -0.67754  -0.66934
 Alpha  occ. eigenvalues --   -0.66908  -0.66611  -0.66402  -0.66176  -0.66152
 Alpha  occ. eigenvalues --   -0.65307  -0.63727  -0.63495  -0.62391  -0.62342
 Alpha  occ. eigenvalues --   -0.61881  -0.61287  -0.61124  -0.61024  -0.60929
 Alpha  occ. eigenvalues --   -0.60511  -0.59991  -0.59816  -0.59567  -0.59119
 Alpha  occ. eigenvalues --   -0.58394  -0.58252  -0.57730  -0.57442  -0.57175
 Alpha  occ. eigenvalues --   -0.56677  -0.56416  -0.56151  -0.55978  -0.55917
 Alpha  occ. eigenvalues --   -0.55915  -0.55726  -0.55649  -0.55572  -0.55269
 Alpha  occ. eigenvalues --   -0.55077  -0.54960  -0.54683  -0.54329  -0.54162
 Alpha  occ. eigenvalues --   -0.53783  -0.53684  -0.53599  -0.53421  -0.53417
 Alpha  occ. eigenvalues --   -0.53202  -0.52744  -0.52719  -0.52596  -0.52470
 Alpha  occ. eigenvalues --   -0.52172  -0.51885  -0.51873  -0.51683  -0.51599
 Alpha  occ. eigenvalues --   -0.51517  -0.51516  -0.51055  -0.51002  -0.50877
 Alpha  occ. eigenvalues --   -0.50808  -0.50415  -0.50300  -0.50243  -0.50127
 Alpha  occ. eigenvalues --   -0.50001  -0.49655  -0.49560  -0.49523  -0.49276
 Alpha  occ. eigenvalues --   -0.49061  -0.48831  -0.48642  -0.48595  -0.48245
 Alpha  occ. eigenvalues --   -0.48000  -0.47911  -0.47771  -0.47433  -0.47304
 Alpha  occ. eigenvalues --   -0.47264  -0.47085  -0.46910  -0.46889  -0.46472
 Alpha  occ. eigenvalues --   -0.46209  -0.46184  -0.46127  -0.46059  -0.45963
 Alpha  occ. eigenvalues --   -0.45797  -0.45620  -0.45529  -0.45413  -0.45350
 Alpha  occ. eigenvalues --   -0.45261  -0.45106  -0.45010  -0.44880  -0.44748
 Alpha  occ. eigenvalues --   -0.44437  -0.44412  -0.44372  -0.43829  -0.43719
 Alpha  occ. eigenvalues --   -0.43662  -0.43465  -0.43324  -0.42927  -0.42868
 Alpha  occ. eigenvalues --   -0.42861  -0.42566  -0.42258  -0.42184  -0.42132
 Alpha  occ. eigenvalues --   -0.41731  -0.41624  -0.41395  -0.41255  -0.40480
 Alpha  occ. eigenvalues --   -0.40282  -0.39682  -0.39656  -0.39336  -0.39258
 Alpha  occ. eigenvalues --   -0.39077  -0.39061  -0.38594  -0.38353  -0.38198
 Alpha  occ. eigenvalues --   -0.38093  -0.37613  -0.36598  -0.36478  -0.36094
 Alpha  occ. eigenvalues --   -0.35983  -0.35496  -0.35381  -0.33883  -0.33350
 Alpha  occ. eigenvalues --   -0.33164  -0.33125  -0.32756  -0.32362  -0.32310
 Alpha  occ. eigenvalues --   -0.32120  -0.31445  -0.31425  -0.26052  -0.25785
 Alpha  occ. eigenvalues --   -0.23182  -0.22562
 Alpha virt. eigenvalues --   -0.07272  -0.06460   0.00210   0.00232   0.02322
 Alpha virt. eigenvalues --    0.02504   0.04306   0.04321   0.06289   0.06399
 Alpha virt. eigenvalues --    0.07107   0.07172   0.07694   0.07740   0.08119

 Mulliken charges:
               1
     1  Mg   0.953843
     2  C   -0.042792
     3  C   -0.110188
     4  C   -0.074430
     5  C   -0.071331
     6  N   -0.321090
     7  C   -0.004133
     8  C   -0.076326
     9  C   -0.141342
    10  C    0.116474
    11  C    0.056671
    12  C    0.009123
    13  C   -0.101777
    14  H    0.060762
    15  N   -0.444550
    16  C    0.147172
    17  C   -0.177142
    18  C   -0.058222
    19  C    0.148187
    20  C    0.068245
    21  C    0.023084
    22  O   -0.209942
    23  C   -0.009721
    24  N   -0.406285
    25  C    0.080502
    26  C   -0.094147
    27  C   -0.044074
    28  C    0.108003
    29  C    0.034270
    30  C    0.007506
    31  C   -0.069533
    32  N   -0.442700
    33  C    0.083879
    34  C   -0.209072
    35  C    0.007050
    36  C    0.127204
    37  C    0.079115
    38  C    0.099186
    39  O   -0.251479
    40  C   -0.045722
    41  C    0.263177
    42  O   -0.210408
    43  O   -0.401435
    44  C    0.135679
    45  H    0.006449
    46  H    0.021247
    47  H   -0.000378
    48  H    0.038105
    49  H    0.035959
    50  H    0.032097
    51  H    0.057739
    52  H    0.022833
    53  H    0.027435
    54  H    0.042861
    55  H    0.027432
    56  H    0.044606
    57  H    0.032546
    58  H    0.076059
    59  H    0.059641
    60  H    0.059863
    61  H    0.052641
    62  H    0.061933
    63  H    0.025014
    64  H    0.018241
    65  H    0.044978
    66  H    0.032928
    67  H    0.031252
    68  H    0.032129
    69  H    0.016212
    70  H    0.030726
    71  H    0.056710
    72  H    0.029957
    73  H    0.053909
    74  H    0.066213
    75  H    0.035096
    76  H    0.077706
    77  H    0.056920
    78  H    0.049862
    79  H    0.051787
    80  Mg   0.958795
    81  C    0.014215
    82  C   -0.115895
    83  C   -0.071745
    84  C   -0.091911
    85  N   -0.268411
    86  C   -0.050209
    87  C   -0.080448
    88  C   -0.081156
    89  C    0.061241
    90  C    0.017862
    91  C   -0.000836
    92  C   -0.101155
    93  H    0.041840
    94  N   -0.420404
    95  C    0.160426
    96  C   -0.187197
    97  C   -0.089544
    98  C    0.146001
    99  C    0.087431
   100  C    0.060779
   101  O   -0.251546
   102  C   -0.004298
   103  N   -0.411483
   104  C    0.041789
   105  C   -0.106431
   106  C   -0.056916
   107  C    0.053463
   108  C    0.041992
   109  C   -0.057136
   110  C   -0.040347
   111  N   -0.481792
   112  C    0.164298
   113  C   -0.192624
   114  C   -0.021582
   115  C    0.159909
   116  C    0.077984
   117  C    0.119465
   118  O   -0.196956
   119  C   -0.104501
   120  C    0.295982
   121  O   -0.245673
   122  O   -0.393123
   123  C    0.148820
   124  H    0.010762
   125  H    0.016618
   126  H   -0.005052
   127  H    0.045952
   128  H    0.028863
   129  H    0.025200
   130  H    0.045286
   131  H    0.027058
   132  H    0.030851
   133  H    0.034399
   134  H    0.044120
   135  H    0.052246
   136  H    0.062335
   137  H    0.037717
   138  H    0.061550
   139  H    0.050525
   140  H    0.063424
   141  H    0.049815
   142  H    0.039323
   143  H    0.036123
   144  H    0.056254
   145  H    0.049481
   146  H    0.029620
   147  H    0.044652
   148  H    0.027455
   149  H    0.033427
   150  H    0.043585
   151  H    0.047361
   152  H    0.057798
   153  H    0.044379
   154  H    0.045885
   155  H    0.075008
   156  H    0.071685
   157  H    0.047316
   158  H    0.040004
 Sum of Mulliken charges =  -0.00000

 Dipole moment (field-independent basis, Debye):
    X=             -2.0239    Y=              1.3510    Z=              6.1878  Tot=              6.6491
 Quadrupole moment (field-independent basis, Debye-Ang):
   XX=           -225.7058   YY=           -480.3539   ZZ=           -514.7426
   XY=            -28.6061   XZ=            145.4930   YZ=             40.9034

 Normal termination of Gaussian 16 at Sat Sep 18 07:41:15 2021.
