 Gaussian 16, Revision A.03,
 Gaussian 16:  ES64L-G16RevA.03 25-Dec-2016

 --------------------------------
 #p wB97XD/Def2SVP td=(nstates=5)
 --------------------------------

 --------------------------------
 TDDFT excited states in gaussian
 --------------------------------
 Symbolic Z-matrix:
 Charge =  0 Multiplicity = 1

                         Standard orientation:
 ---------------------------------------------------------------------
 Center     Atomic      Atomic             Coordinates (Angstroms)
 Number     Number       Type             X           Y           Z
 ---------------------------------------------------------------------
      1         12           0       23.712799    0.698070   -0.137982
      2          6           0       22.683716   -2.582814   -1.027363
      3          6           0       23.735385   -0.477530    3.198104
      4          6           0       24.307092    3.746014    0.862614
      5          6           0       23.326412    1.661499   -3.457485
      6          7           0       23.242403   -1.342297    0.984150
      7          6           0       22.948273   -2.515848    0.334258
      8          6           0       22.894231   -3.716747    1.263369
      9          6           0       23.114127   -2.965483    2.645936
     10          6           0       23.423068   -1.508122    2.269999
     11          6           0       21.945778   -3.214182    3.595316
     12          6           0       24.016045   -4.722521    0.923546
     13          6           0       23.718118   -6.263082    1.073322
     14          1           0       22.538080   -6.692503    1.976604
     15          7           0       24.063685    1.523716    1.764377
     16          6           0       23.945189    0.885622    2.999408
     17          6           0       24.260235    1.865526    4.051001
     18          6           0       24.528797    3.091776    3.359709
     19          6           0       24.337547    2.776576    1.931041
     20          6           0       24.192149    1.566909    5.452672
     21          6           0       24.908809    4.448281    3.944723
     22          8           0       25.015568    5.450343    3.220000
     23          6           0       25.330921    4.571132    5.356121
     24          7           0       23.702344    2.478758   -1.142158
     25          6           0       24.082060    3.597168   -0.518564
     26          6           0       24.038823    4.823268   -1.487422
     27          6           0       23.919856    4.116264   -2.874839
     28          6           0       23.617045    2.694022   -2.520949
     29          6           0       22.922636    5.876062   -1.149470
     30          6           0       25.347116    4.252055   -3.530356
     31          6           0       26.407295    3.109724   -3.361624
     32          7           0       23.234885   -0.236236   -1.916234
     33          6           0       23.104198    0.313372   -3.204472
     34          6           0       22.642200   -0.757916   -4.121682
     35          6           0       22.423342   -1.851654   -3.292310
     36          6           0       22.801460   -1.561688   -1.998423
     37          6           0       22.227418   -0.435757   -5.476153
     38          6           0       21.841603   -3.191518   -3.312015
     39          8           0       21.337404   -3.779958   -4.261869
     40          6           0       21.958727   -3.736552   -1.811668
     41          6           0       20.627550   -4.096994   -1.265978
     42          8           0       19.899174   -3.372282   -0.594129
     43          8           0       20.329627   -5.425133   -1.625100
     44          6           0       19.065705   -6.035998   -1.280620
     45          1           0       24.005319   -0.805371    4.204535
     46          1           0       24.521376    4.784114    1.126509
     47          1           0       23.284604    2.072666   -4.467961
     48          1           0       21.932657   -4.229714    1.231598
     49          1           0       23.940624   -3.480510    3.134815
     50          1           0       22.221443   -3.626032    4.565501
     51          1           0       21.145268   -3.849560    3.216320
     52          1           0       21.537032   -2.233325    3.841720
     53          1           0       24.912176   -4.515577    1.508422
     54          1           0       24.219334   -4.445614   -0.111491
     55          1           0       24.561234   -6.766968    1.544744
     56          1           0       23.764708   -6.658664    0.058717
     57          1           0       25.151282    1.868242    5.874313
     58          1           0       23.799330    0.564394    5.619489
     59          1           0       23.354906    2.203063    5.741513
     60          1           0       24.510242    4.469084    6.066815
     61          1           0       25.743788    5.565693    5.523832
     62          1           0       25.979486    3.724704    5.580158
     63          1           0       25.017652    5.239058   -1.248326
     64          1           0       23.200801    4.615296   -3.524964
     65          1           0       23.344293    6.690285   -0.559961
     66          1           0       22.107357    5.326236   -0.680353
     67          1           0       22.574542    6.257562   -2.109215
     68          1           0       25.733576    5.254209   -3.343697
     69          1           0       25.141496    4.093562   -4.589405
     70          1           0       27.326762    3.653533   -3.146887
     71          1           0       26.561982    2.532533   -4.274141
     72          1           0       26.243985    2.420948   -2.533465
     73          1           0       21.552962    0.418683   -5.437187
     74          1           0       21.663966   -1.296337   -5.838166
     75          1           0       23.084855   -0.386022   -6.146745
     76          1           0       22.558113   -4.640717   -1.922501
     77          1           0       18.330600   -5.991949   -2.083856
     78          1           0       18.747973   -5.753576   -0.276820
     79          1           0       19.384510   -7.061739   -1.093173
     80         12           0      -23.624345    0.729655   -0.040565
     81          6           0      -21.628020   -2.049713    1.099443
     82          6           0      -25.868579   -1.642080   -1.319475
     83          6           0      -25.515820    3.242949   -0.981613
     84          6           0      -21.112951    2.913552    1.029305
     85          7           0      -23.670571   -1.630822   -0.094499
     86          6           0      -22.892100   -2.502720    0.599063
     87          6           0      -23.495757   -3.897144    0.639390
     88          6           0      -24.702663   -3.834136   -0.453559
     89          6           0      -24.745994   -2.292877   -0.663273
     90          6           0      -24.485435   -4.700791   -1.719227
     91          6           0      -23.973413   -4.308221    2.073071
     92          6           0      -23.332658   -5.618642    2.599286
     93          1           0      -24.408668   -6.827318    2.839703
     94          7           0      -25.388581    0.788026   -0.980411
     95          6           0      -26.209675   -0.273889   -1.490604
     96          6           0      -27.458896    0.202899   -2.129855
     97          6           0      -27.345011    1.621522   -1.959395
     98          6           0      -26.067632    1.925339   -1.292776
     99          6           0      -28.508426   -0.696425   -2.786115
    100          6           0      -28.258772    2.682988   -2.441642
    101          8           0      -28.248078    3.854148   -2.078288
    102          6           0      -29.413343    2.270173   -3.375590
    103          7           0      -23.415126    2.741636    0.178986
    104          6           0      -24.329167    3.602182   -0.324522
    105          6           0      -23.850567    5.027369   -0.334971
    106          6           0      -22.460790    4.970569    0.345693
    107          6           0      -22.309259    3.454096    0.601478
    108          6           0      -23.890343    5.699718   -1.691253
    109          6           0      -22.473127    5.807655    1.756438
    110          6           0      -21.322138    6.943175    1.911641
    111          7           0      -21.622050    0.506723    0.639356
    112          6           0      -20.764256    1.530410    1.108931
    113          6           0      -19.578100    0.887639    1.686011
    114          6           0      -19.969526   -0.471570    1.808557
    115          6           0      -21.134747   -0.661806    1.064216
    116          6           0      -18.254208    1.498217    2.135833
    117          6           0      -19.410770   -1.802869    2.177618
    118          8           0      -18.316546   -2.219608    2.649263
    119          6           0      -20.552928   -2.833330    1.827596
    120          6           0      -19.965844   -3.922900    0.979652
    121          8           0      -19.219668   -3.735943    0.060600
    122          8           0      -20.317686   -5.140637    1.492260
    123          6           0      -19.510647   -6.250574    0.925443
    124          1           0      -26.461580   -2.413908   -1.814122
    125          1           0      -26.096469    4.121169   -1.272513
    126          1           0      -20.332025    3.577481    1.405245
    127          1           0      -22.728330   -4.566820    0.251116
    128          1           0      -25.669492   -4.097157   -0.023579
    129          1           0      -24.383689   -4.074528   -2.606021
    130          1           0      -25.314069   -5.397874   -1.850506
    131          1           0      -23.639695   -5.387662   -1.686222
    132          1           0      -25.052314   -4.460981    2.110637
    133          1           0      -23.729268   -3.544812    2.812267
    134          1           0      -22.950406   -5.529736    3.616517
    135          1           0      -22.474612   -5.976955    2.031410
    136          1           0      -28.487507   -1.755095   -2.525580
    137          1           0      -28.565076   -0.635713   -3.872902
    138          1           0      -29.464470   -0.314943   -2.426156
    139          1           0      -29.020729    1.844703   -4.299091
    140          1           0      -30.096391    3.095199   -3.580579
    141          1           0      -29.997908    1.506073   -2.863234
    142          1           0      -24.562936    5.623538    0.236906
    143          1           0      -21.674985    5.305896   -0.330547
    144          1           0      -24.680733    6.445046   -1.784117
    145          1           0      -24.108156    5.037857   -2.529386
    146          1           0      -22.911496    6.144238   -1.872333
    147          1           0      -22.382140    5.181716    2.643546
    148          1           0      -23.407359    6.346147    1.913414
    149          1           0      -21.007552    7.177209    0.894413
    150          1           0      -20.483711    6.591999    2.514561
    151          1           0      -21.738459    7.884245    2.270087
    152          1           0      -17.813978    0.956024    2.972461
    153          1           0      -18.478415    2.474828    2.566436
    154          1           0      -17.699379    1.610377    1.204226
    155          1           0      -20.817623   -3.307438    2.772380
    156          1           0      -19.593195   -6.189711   -0.159552
    157          1           0      -20.059073   -7.141571    1.230752
    158          1           0      -18.443351   -6.297671    1.141515
 ---------------------------------------------------------------------

 SCF Done:  E(RwB97XD) =  -4070.59902889     A.U. after   19 cycles

 Excitation energies and oscillator strengths:

 Excited State   1:      Singlet-A      1.6155 eV  767.47 nm  f=0.3705  <S**2>=0.000
     309 -> 315        0.19318
     311 -> 313        0.68205
     309 <- 315        0.12122
 This state for optimization and/or second-order correction.
 Total Energy, E(TD-HF/TD-DFT) =  -4070.53966076
 Copying the excited state density for this state as the 1-particle RhoCI density.

 Excited State   2:      Singlet-A      1.6997 eV  729.43 nm  f=0.3716  <S**2>=0.000
     310 -> 316        0.19453
     312 -> 314        0.67892
     310 <- 316        0.11677

 Excited State   3:      Singlet-A      2.1191 eV  585.07 nm  f=0.1299  <S**2>=0.000
     309 -> 313        0.64519
     311 -> 315       -0.27990

 Excited State   4:      Singlet-A      2.2204 eV  558.39 nm  f=0.0706  <S**2>=0.000
     310 -> 314        0.62144
     312 -> 316       -0.32313

 Excited State   5:      Singlet-A      3.3518 eV  369.91 nm  f=0.0005  <S**2>=0.000
     304 -> 319        0.10245
     305 -> 313        0.13851
     307 -> 313        0.64948
     307 -> 317       -0.12990

 The electronic state is 1-A.
 Alpha  occ. eigenvalues --  -46.94853 -46.94798 -19.30857 -19.29181 -19.24769
 Alpha  occ. eigenvalues --  -19.24654 -19.24301 -19.24006 -19.23784 -19.23735
 Alpha  occ. eigenvalues --  -14.47238 -14.46704 -14.46492 -14.45809 -14.45360
 Alpha  occ. eigenvalues --  -14.44256 -14.43820 -14.43484 -10.43285 -10.42644
 Alpha  occ. eigenvalues --  -10.39338 -10.39264 -10.39172 -10.39112 -10.35902
 Alpha  occ. eigenvalues --  -10.35677 -10.35664 -10.35616 -10.35288 -10.35023
 Alpha  occ. eigenvalues --  -10.34906 -10.34895 -10.34857 -10.34765 -10.34722
 Alpha  occ. eigenvalues --  -10.34505 -10.34421 -10.34407 -10.34174 -10.33966
 Alpha  occ. eigenvalues --  -10.33282 -10.33199 -10.33183 -10.33127 -10.33113
 Alpha  occ. eigenvalues --  -10.32947 -10.32908 -10.32879 -10.32702 -10.32521
 Alpha  occ. eigenvalues --  -10.32496 -10.32363 -10.32221 -10.32173 -10.32133
 Alpha  occ. eigenvalues --  -10.32019 -10.31857 -10.31667 -10.31552 -10.31412
 Alpha  occ. eigenvalues --  -10.31390 -10.31382 -10.31318 -10.31273 -10.31180
 Alpha  occ. eigenvalues --  -10.31162 -10.31151 -10.31033 -10.30731 -10.30708
 Alpha  occ. eigenvalues --  -10.30451 -10.30375 -10.30367 -10.30276 -10.30180
 Alpha  occ. eigenvalues --  -10.29942 -10.29927 -10.29718 -10.29580 -10.29340
 Alpha  occ. eigenvalues --  -10.29339 -10.29198 -10.29169 -10.29064 -10.28882
 Alpha  occ. eigenvalues --  -10.28647  -3.20929  -3.20787  -1.94518  -1.94383
 Alpha  occ. eigenvalues --   -1.94054  -1.93922  -1.93918  -1.93744  -1.19109
 Alpha  occ. eigenvalues --   -1.16768  -1.12204  -1.11833  -1.11423  -1.10863
 Alpha  occ. eigenvalues --   -1.09395  -1.09279  -1.06770  -1.06059  -1.05971
 Alpha  occ. eigenvalues --   -1.05263  -1.05047  -1.04620  -1.04057  -1.03330
 Alpha  occ. eigenvalues --   -0.93896  -0.93530  -0.91837  -0.90601  -0.90497
 Alpha  occ. eigenvalues --   -0.90352  -0.90213  -0.89992  -0.89348  -0.89268
 Alpha  occ. eigenvalues --   -0.88935  -0.88604  -0.88062  -0.87538  -0.86027
 Alpha  occ. eigenvalues --   -0.85933  -0.85169  -0.85048  -0.84549  -0.83828
 Alpha  occ. eigenvalues --   -0.83688  -0.83327  -0.82723  -0.82607  -0.82375
 Alpha  occ. eigenvalues --   -0.81702  -0.81075  -0.80927  -0.79004  -0.78978
 Alpha  occ. eigenvalues --   -0.78736  -0.78694  -0.77953  -0.77663  -0.77158
 Alpha  occ. eigenvalues --   -0.76701  -0.74539  -0.74061  -0.73391  -0.73249
 Alpha  occ. eigenvalues --   -0.71148  -0.71102  -0.70831  -0.70648  -0.69799
 Alpha  occ. eigenvalues --   -0.69522  -0.69094  -0.68710  -0.67817  -0.67593
 Alpha  occ. eigenvalues --   -0.66898  -0.66602  -0.66399  -0.66393  -0.66141
 Alpha  occ. eigenvalues --   -0.66006  -0.64332  -0.63483  -0.62830  -0.62332
 Alpha  occ. eigenvalues --   -0.61277  -0.61209  -0.61014  -0.60726  -0.60319
 Alpha  occ. eigenvalues --   -0.59981  -0.59913  -0.59806  -0.59120  -0.59109
 Alpha  occ. eigenvalues --   -0.58243  -0.58140  -0.57432  -0.57246  -0.57163
 Alpha  occ. eigenvalues --   -0.56935  -0.56451  -0.56142  -0.55907  -0.55715
 Alpha  occ. eigenvalues --   -0.55709  -0.55336  -0.55258  -0.55067  -0.54671
 Alpha  occ. eigenvalues --   -0.54617  -0.54509  -0.54154  -0.54129  -0.53674
 Alpha  occ. eigenvalues --   -0.53602  -0.53406  -0.53324  -0.53276  -0.53192
 Alpha  occ. eigenvalues --   -0.52763  -0.52733  -0.52461  -0.52400  -0.51965
 Alpha  occ. eigenvalues --   -0.51881  -0.51863  -0.51696  -0.51673  -0.51507
 Alpha  occ. eigenvalues --   -0.51397  -0.51150  -0.50867  -0.50797  -0.50718
 Alpha  occ. eigenvalues --   -0.50404  -0.50290  -0.50199  -0.50037  -0.49991
 Alpha  occ. eigenvalues --   -0.49932  -0.49527  -0.49513  -0.49404  -0.49265
 Alpha  occ. eigenvalues --   -0.48966  -0.48820  -0.48762  -0.48585  -0.48473
 Alpha  occ. eigenvalues --   -0.48118  -0.47990  -0.47901  -0.47862  -0.47476
 Alpha  occ. eigenvalues --   -0.47256  -0.46898  -0.46893  -0.46731  -0.46666
 Alpha  occ. eigenvalues --   -0.46464  -0.46327  -0.46174  -0.46118  -0.46019
 Alpha  occ. eigenvalues --   -0.45954  -0.45787  -0.45774  -0.45709  -0.45520
 Alpha  occ. eigenvalues --   -0.45339  -0.45260  -0.45251  -0.44870  -0.44756
 Alpha  occ. eigenvalues --   -0.44530  -0.44402  -0.44176  -0.44000  -0.43818
 Alpha  occ. eigenvalues --   -0.43653  -0.43495  -0.43314  -0.43248  -0.42853
 Alpha  occ. eigenvalues --   -0.42695  -0.42592  -0.42553  -0.42370  -0.42175
 Alpha  occ. eigenvalues --   -0.42056  -0.41724  -0.41293  -0.41244  -0.40503
 Alpha  occ. eigenvalues --   -0.40470  -0.40159  -0.39672  -0.39433  -0.39326
 Alpha  occ. eigenvalues --   -0.39321  -0.39068  -0.38585  -0.38510  -0.38079
 Alpha  occ. eigenvalues --   -0.37603  -0.37497  -0.36628  -0.36380  -0.36083
 Alpha  occ. eigenvalues --   -0.35972  -0.35486  -0.35240  -0.33848  -0.33154
 Alpha  occ. eigenvalues --   -0.33115  -0.32955  -0.32747  -0.32585  -0.32467
 Alpha  occ. eigenvalues --   -0.32353  -0.31490  -0.31435  -0.25807  -0.25776
 Alpha  occ. eigenvalues --   -0.23100  -0.22553
 Alpha virt. eigenvalues --   -0.07334  -0.06450   0.00082   0.00241   0.02184
 Alpha virt. eigenvalues --    0.02332   0.04162   0.04316   0.06407   0.06576
 Alpha virt. eigenvalues --    0.06802   0.07119   0.07705   0.07734   0.07914

 Mulliken charges:
               1
     1  Mg   0.959002
     2  C    0.014163
     3  C   -0.115910
     4  C   -0.071670
     5  C   -0.091819
     6  N   -0.268512
     7  C   -0.050303
     8  C   -0.080394
     9  C   -0.081155
    10  C    0.061283
    11  C    0.017823
    12  C   -0.000836
    13  C   -0.101184
    14  H    0.041910
    15  N   -0.420414
    16  C    0.160525
    17  C   -0.187114
    18  C   -0.089528
    19  C    0.145922
    20  C    0.087274
    21  C    0.060769
    22  O   -0.251549
    23  C   -0.004277
    24  N   -0.411491
    25  C    0.041643
    26  C   -0.106415
    27  C   -0.056760
    28  C    0.053287
    29  C    0.041986
    30  C   -0.057144
    31  C   -0.040261
    32  N   -0.481856
    33  C    0.164162
    34  C   -0.192741
    35  C   -0.021596
    36  C    0.160137
    37  C    0.077986
    38  C    0.119459
    39  O   -0.196986
    40  C   -0.104433
    41  C    0.295951
    42  O   -0.245620
    43  O   -0.393144
    44  C    0.148803
    45  H    0.010763
    46  H    0.016612
    47  H   -0.005094
    48  H    0.046007
    49  H    0.028849
    50  H    0.025218
    51  H    0.045330
    52  H    0.027095
    53  H    0.030824
    54  H    0.034368
    55  H    0.044099
    56  H    0.052219
    57  H    0.062375
    58  H    0.037779
    59  H    0.061605
    60  H    0.050563
    61  H    0.063419
    62  H    0.049793
    63  H    0.039299
    64  H    0.036129
    65  H    0.056257
    66  H    0.049528
    67  H    0.029622
    68  H    0.044636
    69  H    0.027415
    70  H    0.033390
    71  H    0.043529
    72  H    0.047342
    73  H    0.057822
    74  H    0.044363
    75  H    0.045801
    76  H    0.074992
    77  H    0.071714
    78  H    0.047373
    79  H    0.039988
    80  Mg   0.990436
    81  C   -0.017390
    82  C   -0.078608
    83  C   -0.086363
    84  C   -0.079761
    85  N   -0.298178
    86  C   -0.019947
    87  C   -0.052916
    88  C   -0.107219
    89  C    0.010941
    90  C    0.015723
    91  C    0.042987
    92  C   -0.139088
    93  H   -0.009648
    94  N   -0.512350
    95  C    0.177393
    96  C   -0.130282
    97  C   -0.070914
    98  C    0.182070
    99  C    0.070250
   100  C    0.029588
   101  O   -0.236666
   102  C   -0.016421
   103  N   -0.420618
   104  C    0.093791
   105  C   -0.078853
   106  C   -0.074208
   107  C    0.102029
   108  C    0.012627
   109  C   -0.031830
   110  C   -0.079625
   111  N   -0.424348
   112  C    0.112437
   113  C   -0.186409
   114  C   -0.110862
   115  C    0.145480
   116  C    0.092648
   117  C    0.193640
   118  O   -0.247682
   119  C   -0.086689
   120  C    0.237103
   121  O   -0.214966
   122  O   -0.372149
   123  C    0.133734
   124  H   -0.004478
   125  H    0.020919
   126  H   -0.003310
   127  H    0.041536
   128  H    0.042922
   129  H    0.048270
   130  H    0.034622
   131  H    0.041320
   132  H    0.049072
   133  H    0.046154
   134  H    0.054715
   135  H    0.060371
   136  H    0.047035
   137  H    0.062955
   138  H    0.044830
   139  H    0.052794
   140  H    0.053675
   141  H    0.038453
   142  H    0.046246
   143  H    0.048451
   144  H    0.040257
   145  H    0.042101
   146  H    0.029158
   147  H    0.043044
   148  H    0.034659
   149  H    0.027528
   150  H    0.051968
   151  H    0.040917
   152  H    0.063931
   153  H    0.026443
   154  H    0.068724
   155  H    0.067066
   156  H    0.050170
   157  H    0.052095
   158  H    0.076502
 Sum of Mulliken charges =  -0.00000

 Dipole moment (field-independent basis, Debye):
    X=             -2.0031    Y=             -1.0141    Z=              2.2345  Tot=              3.1677
 Quadrupole moment (field-independent basis, Debye-Ang):
   XX=           -210.4329   YY=           -482.0596   ZZ=           -489.9853
   XY=             34.8666   XZ=            132.1516   YZ=            -12.4943

 Normal termination of Gaussian 16 at Sun Sep 19 05:56:16 2021.
