 Gaussian 16, Revision A.03,
 Gaussian 16:  ES64L-G16RevA.03 25-Dec-2016

 --------------------------------
 #p wB97XD/Def2SVP td=(nstates=5)
 --------------------------------

 --------------------------------
 TDDFT excited states in gaussian
 --------------------------------
 Symbolic Z-matrix:
 Charge =  0 Multiplicity = 1

                         Standard orientation:
 ---------------------------------------------------------------------
 Center     Atomic      Atomic             Coordinates (Angstroms)
 Number     Number       Type             X           Y           Z
 ---------------------------------------------------------------------
      1         12           0      -24.919943   -0.354663    0.508221
      2          6           0      -23.539304    1.902381   -1.667819
      3          6           0      -24.861138   -2.706926   -1.871437
      4          6           0      -26.502394   -2.381808    2.687598
      5          6           0      -25.431444    2.370752    2.859763
      6          7           0      -24.498194   -0.286472   -1.666488
      7          6           0      -23.845036    0.685646   -2.314508
      8          6           0      -23.484972    0.225284   -3.819206
      9          6           0      -23.949490   -1.277932   -3.759662
     10          6           0      -24.527756   -1.468595   -2.342958
     11          6           0      -24.879180   -1.685495   -4.919196
     12          6           0      -21.984054    0.399596   -4.186864
     13          6           0      -21.442573   -0.330588   -5.459085
     14          1           0      -21.207809    0.534377   -6.755238
     15          7           0      -25.638888   -2.284983    0.398930
     16          6           0      -25.435596   -3.115974   -0.602119
     17          6           0      -25.987392   -4.414658   -0.246976
     18          6           0      -26.586218   -4.351105    1.047103
     19          6           0      -26.249950   -2.964590    1.438589
     20          6           0      -26.080156   -5.616837   -1.172077
     21          6           0      -27.397292   -5.384961    1.821297
     22          8           0      -28.078227   -5.059773    2.789599
     23          6           0      -27.354291   -6.805663    1.378699
     24          7           0      -25.878549   -0.025452    2.482313
     25          6           0      -26.406075   -1.030941    3.170446
     26          6           0      -26.782172   -0.616582    4.602702
     27          6           0      -26.228146    0.805212    4.643496
     28          6           0      -25.857652    1.066673    3.231367
     29          6           0      -28.252939   -0.741706    5.027260
     30          6           0      -25.220614    1.042930    5.739726
     31          6           0      -25.625232    2.088920    6.838916
     32          7           0      -24.536866    1.649615    0.633387
     33          6           0      -24.712439    2.630693    1.666172
     34          6           0      -24.110581    3.892688    1.295778
     35          6           0      -23.636908    3.589696   -0.011062
     36          6           0      -23.927120    2.261134   -0.346137
     37          6           0      -23.862523    5.135964    2.074903
     38          6           0      -22.787878    4.176773   -1.016749
     39          8           0      -22.087790    5.199036   -1.068808
     40          6           0      -22.762981    3.226069   -2.187390
     41          6           0      -23.602285    3.838597   -3.330309
     42          8           0      -24.697858    4.413713   -3.240936
     43          8           0      -22.924427    3.630069   -4.494598
     44          6           0      -23.523565    4.170831   -5.755771
     45          1           0      -24.786097   -3.588536   -2.511444
     46          1           0      -27.185205   -2.896478    3.366822
     47          1           0      -25.496546    3.102380    3.667111
     48          1           0      -24.151425    0.824789   -4.438253
     49          1           0      -23.053444   -1.897678   -3.792350
     50          1           0      -24.547700   -2.665958   -5.259388
     51          1           0      -24.787518   -1.012218   -5.771555
     52          1           0      -25.917902   -1.722872   -4.590704
     53          1           0      -21.438721   -0.109593   -3.392249
     54          1           0      -21.752448    1.456989   -4.314344
     55          1           0      -22.222496   -1.021869   -5.780035
     56          1           0      -20.485663   -0.790911   -5.215489
     57          1           0      -25.643206   -5.402770   -2.147424
     58          1           0      -27.125942   -5.888157   -1.314296
     59          1           0      -25.574906   -6.488163   -0.757345
     60          1           0      -26.294538   -7.034763    1.263272
     61          1           0      -27.834979   -7.158731    0.466856
     62          1           0      -27.790869   -7.488163    2.107076
     63          1           0      -26.212617   -1.245362    5.286207
     64          1           0      -27.060943    1.467105    4.880420
     65          1           0      -28.199459   -1.099414    6.055207
     66          1           0      -28.798141   -1.386881    4.338498
     67          1           0      -28.828511    0.179025    4.932538
     68          1           0      -24.379179    1.498170    5.218349
     69          1           0      -24.937286    0.138287    6.276957
     70          1           0      -26.603237    2.512139    6.608256
     71          1           0      -24.891033    2.894312    6.802300
     72          1           0      -25.573408    1.731278    7.867367
     73          1           0      -24.088499    4.970096    3.127912
     74          1           0      -24.620639    5.840220    1.734233
     75          1           0      -22.811804    5.369505    1.897037
     76          1           0      -21.707190    3.155496   -2.449658
     77          1           0      -24.586635    3.968366   -5.888388
     78          1           0      -22.999682    3.877193   -6.664800
     79          1           0      -23.466527    5.254865   -5.658675
     80         12           0       25.513595    0.394516   -0.128700
     81          6           0       23.219659   -2.245356   -0.531656
     82          6           0       22.780620    2.539908   -0.276865
     83          6           0       27.508846    2.933204    0.687144
     84          6           0       27.861342   -1.948991    0.890834
     85          7           0       23.229261    0.088755   -0.216322
     86          6           0       22.496653   -1.046248   -0.504323
     87          6           0       21.080006   -0.801586   -0.980020
     88          6           0       20.947574    0.738909   -0.920273
     89          6           0       22.366121    1.184252   -0.435379
     90          6           0       20.528952    1.411690   -2.290192
     91          6           0       19.917882   -1.504953   -0.146423
     92          6           0       20.139530   -1.719704    1.359684
     93          1           0       19.402548   -0.777172    2.356713
     94          7           0       25.191834    2.406363    0.148136
     95          6           0       24.028175    3.103035   -0.013956
     96          6           0       24.280757    4.542718    0.139321
     97          6           0       25.674268    4.681577    0.421383
     98          6           0       26.186109    3.276828    0.437544
     99          6           0       23.203686    5.609902   -0.014970
    100          6           0       26.253050    6.110206    0.740992
    101          8           0       25.472046    7.051070    0.770313
    102          6           0       27.787311    6.288602    1.103291
    103          7           0       27.331589    0.465094    0.777003
    104          6           0       28.057748    1.649832    0.874633
    105          6           0       29.582126    1.351004    1.374039
    106          6           0       29.519924   -0.261514    1.553316
    107          6           0       28.156628   -0.587355    1.033905
    108          6           0       30.653865    1.835279    0.353545
    109          6           0       29.721709   -0.787497    3.038869
    110          6           0       30.770034   -1.878620    3.306207
    111          7           0       25.622396   -1.708527    0.027754
    112          6           0       26.616177   -2.547912    0.461903
    113          6           0       26.112866   -3.936803    0.410800
    114          6           0       24.791351   -3.835016   -0.100729
    115          6           0       24.551468   -2.441739   -0.261599
    116          6           0       26.829573   -5.190951    0.828259
    117          6           0       23.597590   -4.645746   -0.406488
    118          8           0       23.400594   -5.868564   -0.459112
    119          6           0       22.590943   -3.614403   -0.894133
    120          6           0       22.240811   -3.785292   -2.263954
    121          8           0       22.986987   -3.391253   -3.197367
    122          8           0       20.979077   -4.397014   -2.402419
    123          6           0       20.402090   -4.496041   -3.739226
    124          1           0       21.995467    3.269178   -0.485443
    125          1           0       28.226661    3.747285    0.803881
    126          1           0       28.673690   -2.623532    1.167692
    127          1           0       21.101398   -1.197208   -1.994758
    128          1           0       20.299353    0.941914   -0.068574
    129          1           0       19.517523    1.808829   -2.204666
    130          1           0       20.579939    0.620739   -3.038935
    131          1           0       21.191654    2.238886   -2.546666
    132          1           0       19.891821   -2.489549   -0.615039
    133          1           0       18.976627   -0.992073   -0.345469
    134          1           0       21.201866   -1.673777    1.601632
    135          1           0       19.874490   -2.749417    1.595911
    136          1           0       22.837172    6.028130    0.922528
    137          1           0       22.436578    5.293327   -0.721782
    138          1           0       23.582010    6.460455   -0.581737
    139          1           0       28.353724    5.738184    0.351696
    140          1           0       27.935088    5.876089    2.100982
    141          1           0       28.081862    7.321497    1.288946
    142          1           0       29.734376    1.977431    2.252460
    143          1           0       30.254547   -0.683846    0.867328
    144          1           0       30.911369    0.984027   -0.276318
    145          1           0       31.512974    2.304963    0.832673
    146          1           0       30.320972    2.650135   -0.289122
    147          1           0       28.738162   -1.097036    3.393764
    148          1           0       30.043002    0.123034    3.544625
    149          1           0       30.589596   -2.398318    4.247596
    150          1           0       31.694927   -1.303577    3.344855
    151          1           0       30.679771   -2.548141    2.450557
    152          1           0       27.544826   -4.848548    1.575618
    153          1           0       27.375652   -5.455977   -0.077073
    154          1           0       26.185463   -6.025427    1.107079
    155          1           0       21.745833   -3.814198   -0.235738
    156          1           0       20.919894   -5.124690   -4.463691
    157          1           0       20.303298   -3.501837   -4.175987
    158          1           0       19.354340   -4.763281   -3.600763
 ---------------------------------------------------------------------

 SCF Done:  E(RwB97XD) =  -4070.60388911     A.U. after   19 cycles

 Excitation energies and oscillator strengths:

 Excited State   1:      Singlet-A      1.6633 eV  745.40 nm  f=0.0330  <S**2>=0.000
     309 -> 315       -0.12007
     310 -> 316       -0.13917
     311 -> 313        0.52218
     312 -> 314        0.43896
 This state for optimization and/or second-order correction.
 Total Energy, E(TD-HF/TD-DFT) =  -4070.54276336
 Copying the excited state density for this state as the 1-particle RhoCI density.

 Excited State   2:      Singlet-A      1.6639 eV  745.14 nm  f=0.7413  <S**2>=0.000
     309 -> 315       -0.14322
     310 -> 316        0.11686
     311 -> 313       -0.43813
     312 -> 314        0.52311

 Excited State   3:      Singlet-A      2.2222 eV  557.93 nm  f=0.1095  <S**2>=0.000
     310 -> 313        0.63693
     311 -> 316        0.28924

 Excited State   4:      Singlet-A      2.2612 eV  548.31 nm  f=0.0697  <S**2>=0.000
     309 -> 314        0.61503
     312 -> 315        0.33676

 Excited State   5:      Singlet-A      3.4333 eV  361.12 nm  f=0.0043  <S**2>=0.000
     306 -> 313        0.28738
     306 -> 318       -0.17395
     306 -> 320        0.20715
     307 -> 313        0.51241
     307 -> 318       -0.16054
     307 -> 320        0.14534

 The electronic state is 1-A.
 Alpha  occ. eigenvalues --  -46.95534 -46.95294 -19.31035 -19.30835 -19.25212
 Alpha  occ. eigenvalues --  -19.24654 -19.24578 -19.24393 -19.24269 -19.22740
 Alpha  occ. eigenvalues --  -14.47303 -14.46670 -14.46665 -14.46269 -14.44685
 Alpha  occ. eigenvalues --  -14.44571 -14.43903 -14.43880 -10.43902 -10.43410
 Alpha  occ. eigenvalues --  -10.40517 -10.40079 -10.39397 -10.37352 -10.35985
 Alpha  occ. eigenvalues --  -10.35923 -10.35858 -10.35724 -10.35432 -10.35018
 Alpha  occ. eigenvalues --  -10.35002 -10.34629 -10.34594 -10.34487 -10.34435
 Alpha  occ. eigenvalues --  -10.34350 -10.34114 -10.34027 -10.33980 -10.33909
 Alpha  occ. eigenvalues --  -10.33375 -10.33344 -10.32981 -10.32791 -10.32735
 Alpha  occ. eigenvalues --  -10.32570 -10.32529 -10.32434 -10.32369 -10.32359
 Alpha  occ. eigenvalues --  -10.32273 -10.32186 -10.32157 -10.32140 -10.32127
 Alpha  occ. eigenvalues --  -10.31896 -10.31816 -10.31806 -10.31665 -10.31624
 Alpha  occ. eigenvalues --  -10.31577 -10.31370 -10.31263 -10.31050 -10.31032
 Alpha  occ. eigenvalues --  -10.30973 -10.30766 -10.30724 -10.30715 -10.30690
 Alpha  occ. eigenvalues --  -10.30676 -10.30609 -10.30496 -10.30452 -10.30408
 Alpha  occ. eigenvalues --  -10.30244 -10.30188 -10.30119 -10.30040 -10.29870
 Alpha  occ. eigenvalues --  -10.29711 -10.29540 -10.29509 -10.29427 -10.29237
 Alpha  occ. eigenvalues --  -10.28432  -3.21501  -3.21360  -1.95082  -1.94906
 Alpha  occ. eigenvalues --   -1.94616  -1.94499  -1.94483  -1.94334  -1.17723
 Alpha  occ. eigenvalues --   -1.17154  -1.12653  -1.12616  -1.11304  -1.10187
 Alpha  occ. eigenvalues --   -1.09230  -1.08722  -1.07733  -1.06409  -1.06162
 Alpha  occ. eigenvalues --   -1.05907  -1.05606  -1.04985  -1.04617  -1.03913
 Alpha  occ. eigenvalues --   -0.95141  -0.93239  -0.91778  -0.91068  -0.90725
 Alpha  occ. eigenvalues --   -0.90586  -0.90101  -0.89964  -0.89500  -0.89083
 Alpha  occ. eigenvalues --   -0.88950  -0.88735  -0.88023  -0.87547  -0.86470
 Alpha  occ. eigenvalues --   -0.86107  -0.85794  -0.85221  -0.84697  -0.84286
 Alpha  occ. eigenvalues --   -0.84061  -0.83582  -0.83033  -0.82962  -0.82056
 Alpha  occ. eigenvalues --   -0.82003  -0.80495  -0.80105  -0.79474  -0.79166
 Alpha  occ. eigenvalues --   -0.78707  -0.78668  -0.78456  -0.78013  -0.77286
 Alpha  occ. eigenvalues --   -0.76870  -0.74631  -0.74331  -0.73738  -0.73663
 Alpha  occ. eigenvalues --   -0.71363  -0.71245  -0.71062  -0.70881  -0.70378
 Alpha  occ. eigenvalues --   -0.69698  -0.69577  -0.68835  -0.67773  -0.67702
 Alpha  occ. eigenvalues --   -0.67198  -0.66893  -0.66593  -0.66414  -0.66196
 Alpha  occ. eigenvalues --   -0.65904  -0.64620  -0.64444  -0.62731  -0.62250
 Alpha  occ. eigenvalues --   -0.61621  -0.61610  -0.61038  -0.60869  -0.60655
 Alpha  occ. eigenvalues --   -0.60617  -0.59981  -0.59730  -0.59367  -0.59210
 Alpha  occ. eigenvalues --   -0.58310  -0.58120  -0.57642  -0.57542  -0.57080
 Alpha  occ. eigenvalues --   -0.56890  -0.56464  -0.56375  -0.56160  -0.56061
 Alpha  occ. eigenvalues --   -0.55724  -0.55683  -0.55346  -0.54997  -0.54738
 Alpha  occ. eigenvalues --   -0.54507  -0.54481  -0.54310  -0.54115  -0.54065
 Alpha  occ. eigenvalues --   -0.53623  -0.53493  -0.53164  -0.53124  -0.53047
 Alpha  occ. eigenvalues --   -0.52893  -0.52664  -0.52647  -0.52450  -0.52245
 Alpha  occ. eigenvalues --   -0.51953  -0.51861  -0.51733  -0.51599  -0.51328
 Alpha  occ. eigenvalues --   -0.51274  -0.51262  -0.51192  -0.50994  -0.50913
 Alpha  occ. eigenvalues --   -0.50881  -0.50487  -0.50480  -0.50273  -0.50125
 Alpha  occ. eigenvalues --   -0.50083  -0.49757  -0.49618  -0.49279  -0.49237
 Alpha  occ. eigenvalues --   -0.49199  -0.48733  -0.48559  -0.48386  -0.48322
 Alpha  occ. eigenvalues --   -0.48176  -0.48090  -0.48073  -0.47878  -0.47689
 Alpha  occ. eigenvalues --   -0.47303  -0.46910  -0.46905  -0.46733  -0.46674
 Alpha  occ. eigenvalues --   -0.46580  -0.46474  -0.46435  -0.46327  -0.46128
 Alpha  occ. eigenvalues --   -0.46062  -0.45932  -0.45879  -0.45773  -0.45534
 Alpha  occ. eigenvalues --   -0.45165  -0.45024  -0.44890  -0.44840  -0.44714
 Alpha  occ. eigenvalues --   -0.44655  -0.44362  -0.44184  -0.44175  -0.44056
 Alpha  occ. eigenvalues --   -0.43974  -0.43894  -0.43756  -0.43556  -0.43451
 Alpha  occ. eigenvalues --   -0.43101  -0.42966  -0.42721  -0.42496  -0.42348
 Alpha  occ. eigenvalues --   -0.42154  -0.41770  -0.41606  -0.41186  -0.40988
 Alpha  occ. eigenvalues --   -0.40851  -0.40181  -0.39783  -0.39608  -0.39469
 Alpha  occ. eigenvalues --   -0.39178  -0.39164  -0.38995  -0.38683  -0.38649
 Alpha  occ. eigenvalues --   -0.38207  -0.37885  -0.36749  -0.36321  -0.36270
 Alpha  occ. eigenvalues --   -0.35993  -0.35569  -0.35482  -0.33923  -0.33545
 Alpha  occ. eigenvalues --   -0.33331  -0.33244  -0.33026  -0.32790  -0.32452
 Alpha  occ. eigenvalues --   -0.31954  -0.31816  -0.31773  -0.26077  -0.25838
 Alpha  occ. eigenvalues --   -0.22919  -0.22645
 Alpha virt. eigenvalues --   -0.06902  -0.06514   0.00105   0.00153   0.02334
 Alpha virt. eigenvalues --    0.02625   0.04097   0.04613   0.04915   0.05071
 Alpha virt. eigenvalues --    0.05570   0.07478   0.07484   0.07797   0.07829

 Mulliken charges:
               1
     1  Mg   0.970238
     2  C   -0.074927
     3  C   -0.078878
     4  C   -0.049437
     5  C   -0.066361
     6  N   -0.355634
     7  C   -0.026019
     8  C   -0.008900
     9  C   -0.153418
    10  C    0.120029
    11  C    0.024337
    12  C   -0.009617
    13  C   -0.131320
    14  H    0.015013
    15  N   -0.438174
    16  C    0.116823
    17  C   -0.187093
    18  C   -0.059051
    19  C    0.130835
    20  C    0.069725
    21  C    0.087612
    22  O   -0.227287
    23  C   -0.033182
    24  N   -0.274099
    25  C   -0.007269
    26  C   -0.114792
    27  C   -0.055372
    28  C    0.009642
    29  C    0.036088
    30  C    0.000429
    31  C   -0.068114
    32  N   -0.456944
    33  C    0.123415
    34  C   -0.170428
    35  C   -0.077013
    36  C    0.206111
    37  C    0.109154
    38  C    0.102754
    39  O   -0.239424
    40  C   -0.055708
    41  C    0.293676
    42  O   -0.266033
    43  O   -0.365213
    44  C    0.138534
    45  H   -0.019859
    46  H    0.029523
    47  H    0.004091
    48  H    0.040444
    49  H    0.037079
    50  H    0.034007
    51  H    0.041469
    52  H    0.049656
    53  H    0.031933
    54  H    0.073400
    55  H    0.048339
    56  H    0.065646
    57  H    0.031734
    58  H    0.051451
    59  H    0.041204
    60  H    0.048745
    61  H    0.063150
    62  H    0.052452
    63  H    0.038874
    64  H    0.021336
    65  H    0.046532
    66  H    0.044289
    67  H    0.029777
    68  H    0.030504
    69  H    0.036925
    70  H    0.033091
    71  H    0.033431
    72  H    0.041979
    73  H    0.019315
    74  H    0.065418
    75  H    0.081082
    76  H    0.069637
    77  H    0.058578
    78  H    0.063584
    79  H    0.056476
    80  Mg   0.987089
    81  C   -0.108791
    82  C   -0.085652
    83  C   -0.110646
    84  C   -0.095992
    85  N   -0.341991
    86  C   -0.038588
    87  C   -0.062286
    88  C   -0.058561
    89  C    0.026645
    90  C    0.027373
    91  C   -0.015010
    92  C   -0.118745
    93  H    0.036890
    94  N   -0.448605
    95  C    0.153510
    96  C   -0.157759
    97  C   -0.113696
    98  C    0.206993
    99  C    0.095469
   100  C    0.069666
   101  O   -0.226541
   102  C   -0.026005
   103  N   -0.422011
   104  C    0.079337
   105  C   -0.103163
   106  C   -0.075618
   107  C    0.085819
   108  C    0.009852
   109  C   -0.024318
   110  C   -0.038131
   111  N   -0.406586
   112  C    0.119538
   113  C   -0.211612
   114  C   -0.096356
   115  C    0.263642
   116  C    0.092520
   117  C    0.145427
   118  O   -0.217886
   119  C   -0.059405
   120  C    0.315789
   121  O   -0.277617
   122  O   -0.382218
   123  C    0.152229
   124  H   -0.009074
   125  H   -0.035058
   126  H   -0.015891
   127  H    0.049461
   128  H    0.045660
   129  H    0.043706
   130  H    0.040413
   131  H    0.046398
   132  H    0.038196
   133  H    0.048326
   134  H    0.063119
   135  H    0.056395
   136  H    0.065384
   137  H    0.023011
   138  H    0.044090
   139  H    0.073603
   140  H    0.060895
   141  H    0.052782
   142  H    0.044448
   143  H    0.036126
   144  H    0.037586
   145  H    0.038522
   146  H    0.031789
   147  H    0.048513
   148  H    0.025126
   149  H    0.051612
   150  H    0.041621
   151  H    0.037715
   152  H    0.034743
   153  H    0.054928
   154  H    0.066659
   155  H    0.059842
   156  H    0.069364
   157  H    0.033793
   158  H    0.052198
 Sum of Mulliken charges =  -0.00000

 Dipole moment (field-independent basis, Debye):
    X=              2.0547    Y=             -3.1179    Z=             -0.5993  Tot=              3.7818
 Quadrupole moment (field-independent basis, Debye-Ang):
   XX=           -434.4119   YY=           -562.8427   ZZ=           -472.8904
   XY=            167.7213   XZ=             21.1639   YZ=             15.6226

 Normal termination of Gaussian 16 at Sun Sep 19 06:58:28 2021.
