 Gaussian 16, Revision A.03,
 Gaussian 16:  ES64L-G16RevA.03 25-Dec-2016

 --------------------------------
 #p wB97XD/Def2SVP td=(nstates=5)
 --------------------------------

 --------------------------------
 TDDFT excited states in gaussian
 --------------------------------
 Symbolic Z-matrix:
 Charge =  0 Multiplicity = 1

                         Standard orientation:
 ---------------------------------------------------------------------
 Center     Atomic      Atomic             Coordinates (Angstroms)
 Number     Number       Type             X           Y           Z
 ---------------------------------------------------------------------
      1         12           0       31.322558    0.317660    0.458788
      2          6           0       28.026654    0.330107   -1.154433
      3          6           0       29.649762   -0.977443    3.198157
      4          6           0       34.166207   -0.693060    1.489307
      5          6           0       32.601894    1.253034   -2.766138
      6          7           0       29.004673   -0.396159    0.874298
      7          6           0       27.871705   -0.283489    0.098444
      8          6           0       26.661672   -0.957126    0.843297
      9          6           0       27.136704   -1.100734    2.299637
     10          6           0       28.676333   -0.812252    2.125881
     11          6           0       26.534776   -0.123734    3.393274
     12          6           0       26.175863   -2.290647    0.178769
     13          6           0       24.680121   -2.519683    0.145427
     14          1           0       24.097620   -3.507666    1.204268
     15          7           0       31.864633   -0.571111    2.142102
     16          6           0       31.084004   -0.938195    3.204361
     17          6           0       31.933016   -1.532117    4.273113
     18          6           0       33.251446   -1.467012    3.751801
     19          6           0       33.126590   -0.934672    2.397192
     20          6           0       31.459618   -2.152197    5.597918
     21          6           0       34.536167   -2.066671    4.330620
     22          8           0       34.462134   -2.587652    5.440217
     23          6           0       35.796918   -2.035806    3.700742
     24          7           0       33.110927    0.050054   -0.649831
     25          6           0       34.200625   -0.156678    0.172562
     26          6           0       35.507340    0.056273   -0.685609
     27          6           0       34.957492    0.373376   -2.122461
     28          6           0       33.474007    0.672415   -1.798808
     29          6           0       36.496016    1.129236   -0.152416
     30          6           0       35.145977   -0.701524   -3.267619
     31          6           0       36.515995   -0.785274   -3.962813
     32          7           0       30.568153    0.775116   -1.573829
     33          6           0       31.207603    1.253729   -2.699889
     34          6           0       30.270593    1.655277   -3.720958
     35          6           0       28.989511    1.320298   -3.142167
     36          6           0       29.168252    0.726002   -1.844285
     37          6           0       30.665955    2.186591   -5.064227
     38          6           0       27.623158    1.282623   -3.417787
     39          8           0       27.006886    1.475084   -4.457176
     40          6           0       26.943921    0.536500   -2.233030
     41          6           0       25.886677    1.495577   -1.737874
     42          8           0       24.715287    1.168354   -1.532058
     43          8           0       26.367908    2.811234   -1.352542
     44          6           0       25.389579    3.552386   -0.558130
     45          1           0       29.139792   -1.318109    4.101122
     46          1           0       35.212594   -0.818100    1.775466
     47          1           0       33.136140    1.604233   -3.651306
     48          1           0       25.861784   -0.221084    0.935820
     49          1           0       27.076661   -2.132596    2.645681
     50          1           0       25.851660   -0.746802    3.970157
     51          1           0       25.935744    0.661503    2.933031
     52          1           0       27.264814    0.397185    4.012694
     53          1           0       26.483241   -3.197251    0.700635
     54          1           0       26.495503   -2.332971   -0.862673
     55          1           0       24.424667   -2.791379   -0.878808
     56          1           0       24.198069   -1.562232    0.345500
     57          1           0       32.144285   -1.875378    6.400047
     58          1           0       31.421181   -3.220512    5.385335
     59          1           0       30.488609   -1.755091    5.890665
     60          1           0       36.126680   -0.997245    3.658728
     61          1           0       35.838158   -2.534753    2.732472
     62          1           0       36.368013   -2.691561    4.358854
     63          1           0       36.118281   -0.840463   -0.783551
     64          1           0       35.340840    1.323746   -2.493077
     65          1           0       36.609693    1.841413   -0.969835
     66          1           0       37.448527    0.642338    0.054426
     67          1           0       35.995222    1.515181    0.736319
     68          1           0       34.390118   -0.419903   -4.001467
     69          1           0       35.013985   -1.711771   -2.879658
     70          1           0       37.031621    0.050677   -3.489273
     71          1           0       36.442347   -0.509400   -5.015718
     72          1           0       37.079833   -1.709744   -3.840507
     73          1           0       31.304025    1.418410   -5.499130
     74          1           0       31.310638    3.063794   -5.012489
     75          1           0       29.829866    2.243483   -5.761337
     76          1           0       26.445032   -0.335691   -2.655076
     77          1           0       26.121292    4.180048   -0.048059
     78          1           0       24.728527    2.891566    0.002569
     79          1           0       24.858783    4.200075   -1.255989
     80         12           0      -31.208420   -0.401523   -0.260867
     81          6           0      -28.364175    1.666519   -0.132630
     82          6           0      -32.765694    1.835496    1.898123
     83          6           0      -33.741750   -2.545951   -0.154859
     84          6           0      -29.195754   -2.980443   -1.740337
     85          7           0      -30.630847    1.488868    0.769508
     86          6           0      -29.440112    2.196457    0.552844
     87          6           0      -29.630681    3.636641    0.991400
     88          6           0      -30.906922    3.621437    1.880043
     89          6           0      -31.478991    2.225538    1.488835
     90          6           0      -30.694455    3.881237    3.404543
     91          6           0      -29.673438    4.677494   -0.180603
     92          6           0      -29.103244    6.113828    0.202210
     93          1           0      -28.639396    6.337812    1.643975
     94          7           0      -32.991310   -0.296559    0.604057
     95          6           0      -33.483815    0.731637    1.389168
     96          6           0      -34.860346    0.502633    1.721501
     97          6           0      -35.141541   -0.819875    1.250871
     98          6           0      -33.962995   -1.241374    0.514815
     99          6           0      -35.715054    1.479125    2.585873
    100          6           0      -36.375914   -1.638845    1.443123
    101          8           0      -36.420757   -2.845994    1.105844
    102          6           0      -37.721200   -1.244715    2.120917
    103          7           0      -31.381270   -2.553921   -0.606296
    104          6           0      -32.578235   -3.170217   -0.587839
    105          6           0      -32.492912   -4.542035   -1.303031
    106          6           0      -31.047945   -4.699592   -1.789870
    107          6           0      -30.500750   -3.260706   -1.383318
    108          6           0      -33.077443   -5.642863   -0.471489
    109          6           0      -30.840404   -5.041951   -3.280862
    110          6           0      -31.428099   -4.018295   -4.283321
    111          7           0      -29.159560   -0.699542   -0.794617
    112          6           0      -28.580986   -1.698382   -1.501265
    113          6           0      -27.258015   -1.218891   -1.898171
    114          6           0      -27.087213    0.112887   -1.426850
    115          6           0      -28.272943    0.383277   -0.701356
    116          6           0      -26.274151   -1.962812   -2.797333
    117          6           0      -26.204049    1.233738   -1.370720
    118          8           0      -25.128274    1.498895   -1.900594
    119          6           0      -27.015175    2.333457   -0.419867
    120          6           0      -26.121027    2.750635    0.732567
    121          8           0      -25.965412    2.085492    1.737842
    122          8           0      -25.606620    4.009940    0.522788
    123          6           0      -24.446635    4.437037    1.298400
    124          1           0      -33.195959    2.661861    2.467402
    125          1           0      -34.639228   -3.167398   -0.169846
    126          1           0      -28.690719   -3.764184   -2.308271
    127          1           0      -28.783898    3.940268    1.606752
    128          1           0      -31.573947    4.388838    1.488326
    129          1           0      -31.144535    2.997312    3.855185
    130          1           0      -31.293814    4.729460    3.737467
    131          1           0      -29.684108    3.984443    3.800262
    132          1           0      -30.697327    4.892718   -0.484692
    133          1           0      -29.157417    4.252386   -1.040521
    134          1           0      -29.927683    6.821896    0.116869
    135          1           0      -28.292114    6.333717   -0.491493
    136          1           0      -36.347015    0.873146    3.236262
    137          1           0      -36.381024    2.097343    1.984829
    138          1           0      -35.247796    2.232390    3.220016
    139          1           0      -38.140775   -0.353747    1.652906
    140          1           0      -37.624159   -1.118108    3.199148
    141          1           0      -38.561717   -1.884669    1.855043
    142          1           0      -33.231466   -4.496599   -2.102359
    143          1           0      -30.582258   -5.362077   -1.059394
    144          1           0      -34.076957   -5.933176   -0.795741
    145          1           0      -33.069665   -5.357459    0.580578
    146          1           0      -32.486610   -6.559490   -0.464317
    147          1           0      -31.385986   -5.978667   -3.396711
    148          1           0      -29.781805   -5.204829   -3.485360
    149          1           0      -30.575750   -3.669027   -4.865733
    150          1           0      -31.873784   -3.219371   -3.690647
    151          1           0      -32.250575   -4.401803   -4.887305
    152          1           0      -25.812280   -1.313629   -3.540657
    153          1           0      -26.780899   -2.700798   -3.418511
    154          1           0      -25.570074   -2.496411   -2.158270
    155          1           0      -27.138492    3.202649   -1.066436
    156          1           0      -24.599641    4.066546    2.312362
    157          1           0      -24.310357    5.516686    1.361706
    158          1           0      -23.581798    4.030926    0.773715
 ---------------------------------------------------------------------

 SCF Done:  E(RwB97XD) =  -4070.56505560     A.U. after   18 cycles

 Excitation energies and oscillator strengths:

 Excited State   1:      Singlet-A      1.6019 eV  773.98 nm  f=0.4028  <S**2>=0.000
     310 -> 316        0.17291
     312 -> 313        0.68565
     310 <- 316        0.11419
 This state for optimization and/or second-order correction.
 Total Energy, E(TD-HF/TD-DFT) =  -4070.50618646
 Copying the excited state density for this state as the 1-particle RhoCI density.

 Excited State   2:      Singlet-A      1.6685 eV  743.09 nm  f=0.3524  <S**2>=0.000
     309 -> 315        0.20210
     311 -> 314        0.67714
     309 <- 315        0.11957

 Excited State   3:      Singlet-A      2.1364 eV  580.33 nm  f=0.1500  <S**2>=0.000
     310 -> 313        0.65486
     312 -> 316       -0.24834

 Excited State   4:      Singlet-A      2.1894 eV  566.29 nm  f=0.0673  <S**2>=0.000
     309 -> 314        0.61434
     311 -> 315       -0.33149

 Excited State   5:      Singlet-A      3.2141 eV  385.76 nm  f=0.0156  <S**2>=0.000
     308 -> 314        0.61823
     308 -> 317       -0.12005
     311 -> 315        0.24306

 The electronic state is 1-A.
 Alpha  occ. eigenvalues --  -46.97089 -46.95242 -19.29468 -19.28924 -19.25017
 Alpha  occ. eigenvalues --  -19.24388 -19.24168 -19.23820 -19.23412 -19.22887
 Alpha  occ. eigenvalues --  -14.47336 -14.47167 -14.46553 -14.45971 -14.45403
 Alpha  occ. eigenvalues --  -14.44887 -14.43942 -14.43727 -10.43258 -10.42943
 Alpha  occ. eigenvalues --  -10.39592 -10.39478 -10.38882 -10.37474 -10.36400
 Alpha  occ. eigenvalues --  -10.35953 -10.35634 -10.35630 -10.35593 -10.35445
 Alpha  occ. eigenvalues --  -10.35111 -10.34993 -10.34945 -10.34785 -10.34754
 Alpha  occ. eigenvalues --  -10.34537 -10.34478 -10.34329 -10.33861 -10.33821
 Alpha  occ. eigenvalues --  -10.33719 -10.33353 -10.33234 -10.33221 -10.33053
 Alpha  occ. eigenvalues --  -10.33004 -10.32967 -10.32889 -10.32667 -10.32434
 Alpha  occ. eigenvalues --  -10.32359 -10.32311 -10.32291 -10.32287 -10.32259
 Alpha  occ. eigenvalues --  -10.32187 -10.32102 -10.32093 -10.32025 -10.31806
 Alpha  occ. eigenvalues --  -10.31613 -10.31580 -10.31557 -10.31460 -10.31409
 Alpha  occ. eigenvalues --  -10.31386 -10.30880 -10.30857 -10.30836 -10.30764
 Alpha  occ. eigenvalues --  -10.30717 -10.30633 -10.30605 -10.30567 -10.30501
 Alpha  occ. eigenvalues --  -10.30196 -10.30113 -10.30107 -10.30106 -10.30024
 Alpha  occ. eigenvalues --  -10.29641 -10.29421 -10.29406 -10.29302 -10.29242
 Alpha  occ. eigenvalues --  -10.28730  -3.22991  -3.21255  -1.96515  -1.96157
 Alpha  occ. eigenvalues --   -1.95911  -1.94814  -1.94377  -1.94234  -1.17596
 Alpha  occ. eigenvalues --   -1.16068  -1.12674  -1.11664  -1.11182  -1.10627
 Alpha  occ. eigenvalues --   -1.09627  -1.08537  -1.07096  -1.06343  -1.05466
 Alpha  occ. eigenvalues --   -1.05351  -1.05342  -1.05219  -1.04114  -1.03077
 Alpha  occ. eigenvalues --   -0.94863  -0.94133  -0.91029  -0.90885  -0.90811
 Alpha  occ. eigenvalues --   -0.90398  -0.90395  -0.90097  -0.89265  -0.88974
 Alpha  occ. eigenvalues --   -0.88874  -0.88769  -0.87844  -0.87233  -0.86914
 Alpha  occ. eigenvalues --   -0.85758  -0.85688  -0.85589  -0.85211  -0.84471
 Alpha  occ. eigenvalues --   -0.84074  -0.83103  -0.82979  -0.82561  -0.81951
 Alpha  occ. eigenvalues --   -0.81836  -0.80657  -0.80230  -0.79269  -0.78948
 Alpha  occ. eigenvalues --   -0.78839  -0.78662  -0.77755  -0.77748  -0.77220
 Alpha  occ. eigenvalues --   -0.76922  -0.74817  -0.74495  -0.73910  -0.73026
 Alpha  occ. eigenvalues --   -0.71810  -0.71104  -0.71091  -0.70542  -0.70311
 Alpha  occ. eigenvalues --   -0.69702  -0.69507  -0.68991  -0.67501  -0.67318
 Alpha  occ. eigenvalues --   -0.67195  -0.66991  -0.66842  -0.66129  -0.66044
 Alpha  occ. eigenvalues --   -0.66022  -0.63876  -0.63616  -0.62921  -0.62406
 Alpha  occ. eigenvalues --   -0.61802  -0.61435  -0.61254  -0.60899  -0.60780
 Alpha  occ. eigenvalues --   -0.60032  -0.59378  -0.59177  -0.58990  -0.58902
 Alpha  occ. eigenvalues --   -0.58657  -0.57881  -0.57658  -0.57582  -0.56770
 Alpha  occ. eigenvalues --   -0.56740  -0.56722  -0.56289  -0.55836  -0.55827
 Alpha  occ. eigenvalues --   -0.55673  -0.55467  -0.55383  -0.55218  -0.54974
 Alpha  occ. eigenvalues --   -0.54841  -0.54667  -0.54476  -0.54431  -0.54261
 Alpha  occ. eigenvalues --   -0.53900  -0.53897  -0.53670  -0.53411  -0.53257
 Alpha  occ. eigenvalues --   -0.52961  -0.52940  -0.52592  -0.52514  -0.51981
 Alpha  occ. eigenvalues --   -0.51806  -0.51788  -0.51501  -0.51479  -0.51145
 Alpha  occ. eigenvalues --   -0.51099  -0.51093  -0.50918  -0.50890  -0.50654
 Alpha  occ. eigenvalues --   -0.50556  -0.50539  -0.50326  -0.50119  -0.50078
 Alpha  occ. eigenvalues --   -0.49889  -0.49811  -0.49656  -0.49654  -0.49338
 Alpha  occ. eigenvalues --   -0.49231  -0.48648  -0.48595  -0.48459  -0.48300
 Alpha  occ. eigenvalues --   -0.48241  -0.48034  -0.47843  -0.47766  -0.47371
 Alpha  occ. eigenvalues --   -0.47307  -0.47125  -0.46897  -0.46656  -0.46599
 Alpha  occ. eigenvalues --   -0.46430  -0.46398  -0.46309  -0.46131  -0.46016
 Alpha  occ. eigenvalues --   -0.45970  -0.45885  -0.45715  -0.45555  -0.45370
 Alpha  occ. eigenvalues --   -0.45146  -0.45098  -0.44950  -0.44550  -0.44506
 Alpha  occ. eigenvalues --   -0.44376  -0.44283  -0.44251  -0.44034  -0.43898
 Alpha  occ. eigenvalues --   -0.43851  -0.43775  -0.43553  -0.43492  -0.43415
 Alpha  occ. eigenvalues --   -0.43248  -0.42632  -0.42508  -0.42161  -0.42110
 Alpha  occ. eigenvalues --   -0.41972  -0.41823  -0.41499  -0.41206  -0.41136
 Alpha  occ. eigenvalues --   -0.40769  -0.40550  -0.39803  -0.39736  -0.39607
 Alpha  occ. eigenvalues --   -0.39573  -0.39154  -0.38885  -0.38277  -0.38249
 Alpha  occ. eigenvalues --   -0.37957  -0.37333  -0.36537  -0.36017  -0.35928
 Alpha  occ. eigenvalues --   -0.35687  -0.35258  -0.35236  -0.33831  -0.33665
 Alpha  occ. eigenvalues --   -0.33518  -0.33197  -0.32951  -0.32749  -0.32232
 Alpha  occ. eigenvalues --   -0.32109  -0.31630  -0.30858  -0.26393  -0.26022
 Alpha  occ. eigenvalues --   -0.23260  -0.23173
 Alpha virt. eigenvalues --   -0.07590  -0.07128  -0.00795   0.00534   0.01886
 Alpha virt. eigenvalues --    0.02022   0.03649   0.04097   0.04326   0.04690
 Alpha virt. eigenvalues --    0.06824   0.06991   0.07388   0.07785   0.08161

 Mulliken charges:
               1
     1  Mg   0.966262
     2  C   -0.023736
     3  C   -0.063241
     4  C   -0.091993
     5  C   -0.100951
     6  N   -0.282670
     7  C   -0.034057
     8  C    0.018280
     9  C   -0.119675
    10  C   -0.008153
    11  C    0.015372
    12  C    0.017583
    13  C   -0.125830
    14  H    0.022230
    15  N   -0.499271
    16  C    0.163131
    17  C   -0.190134
    18  C   -0.055687
    19  C    0.215133
    20  C    0.096987
    21  C    0.017704
    22  O   -0.245763
    23  C    0.020326
    24  N   -0.384766
    25  C    0.048358
    26  C   -0.125689
    27  C   -0.090126
    28  C    0.045062
    29  C    0.037753
    30  C   -0.003803
    31  C   -0.042740
    32  N   -0.423478
    33  C    0.155339
    34  C   -0.159501
    35  C   -0.021085
    36  C    0.158897
    37  C    0.093590
    38  C    0.074422
    39  O   -0.216332
    40  C   -0.098812
    41  C    0.286770
    42  O   -0.256840
    43  O   -0.417839
    44  C    0.139191
    45  H   -0.001262
    46  H   -0.023777
    47  H   -0.001931
    48  H    0.034660
    49  H    0.044283
    50  H    0.048584
    51  H    0.036658
    52  H    0.049365
    53  H    0.048462
    54  H    0.043914
    55  H    0.057369
    56  H    0.052632
    57  H    0.068248
    58  H    0.069352
    59  H    0.030876
    60  H    0.075395
    61  H    0.063962
    62  H    0.054803
    63  H    0.035885
    64  H    0.019927
    65  H    0.037837
    66  H    0.042219
    67  H    0.042232
    68  H    0.028951
    69  H    0.036389
    70  H    0.015395
    71  H    0.040183
    72  H    0.050249
    73  H    0.034115
    74  H    0.047811
    75  H    0.062834
    76  H    0.072095
    77  H    0.050720
    78  H    0.068773
    79  H    0.052575
    80  Mg   0.971983
    81  C    0.006919
    82  C   -0.061686
    83  C   -0.062999
    84  C   -0.062952
    85  N   -0.337812
    86  C   -0.003188
    87  C   -0.035378
    88  C   -0.097896
    89  C    0.010259
    90  C    0.027412
    91  C   -0.006699
    92  C   -0.129110
    93  H    0.034089
    94  N   -0.494953
    95  C    0.189765
    96  C   -0.136926
    97  C   -0.054461
    98  C    0.137848
    99  C    0.059102
   100  C    0.036243
   101  O   -0.271638
   102  C   -0.007129
   103  N   -0.340773
   104  C    0.077567
   105  C   -0.129596
   106  C   -0.020181
   107  C    0.012642
   108  C    0.021365
   109  C   -0.019470
   110  C   -0.045923
   111  N   -0.429013
   112  C    0.150690
   113  C   -0.205225
   114  C    0.004387
   115  C    0.123016
   116  C    0.072289
   117  C    0.116774
   118  O   -0.207600
   119  C   -0.128553
   120  C    0.274786
   121  O   -0.237545
   122  O   -0.379790
   123  C    0.133602
   124  H   -0.002966
   125  H    0.023049
   126  H   -0.004372
   127  H    0.030754
   128  H    0.033132
   129  H    0.030643
   130  H    0.034871
   131  H    0.058470
   132  H    0.029793
   133  H    0.037226
   134  H    0.054505
   135  H    0.069168
   136  H    0.037138
   137  H    0.051117
   138  H    0.045641
   139  H    0.030993
   140  H    0.073555
   141  H    0.048606
   142  H    0.037203
   143  H    0.038776
   144  H    0.043475
   145  H    0.041852
   146  H    0.022287
   147  H    0.033275
   148  H    0.039396
   149  H    0.046941
   150  H    0.038539
   151  H    0.043013
   152  H    0.057635
   153  H    0.018516
   154  H    0.059414
   155  H    0.065575
   156  H    0.060229
   157  H    0.053715
   158  H    0.064595
 Sum of Mulliken charges =  -0.00000

 Dipole moment (field-independent basis, Debye):
    X=              0.8125    Y=              3.9623    Z=              1.8281  Tot=              4.4387
 Quadrupole moment (field-independent basis, Debye-Ang):
   XX=             34.6262   YY=           -481.9984   ZZ=           -526.8140
   XY=            -72.7036   XZ=             49.4470   YZ=             34.0275

 Normal termination of Gaussian 16 at Mon Sep 20 06:04:24 2021.
