 Gaussian 16, Revision A.03,
 Gaussian 16:  ES64L-G16RevA.03 25-Dec-2016

 --------------------------------
 #p wB97XD/Def2SVP td=(nstates=5)
 --------------------------------

 --------------------------------
 TDDFT excited states in gaussian
 --------------------------------
 Symbolic Z-matrix:
 Charge =  0 Multiplicity = 1

                         Standard orientation:
 ---------------------------------------------------------------------
 Center     Atomic      Atomic             Coordinates (Angstroms)
 Number     Number       Type             X           Y           Z
 ---------------------------------------------------------------------
      1         12           0        0.728870    0.048121   -0.249134
      2          6           0       -2.805671    0.198349   -0.269140
      3          6           0        0.519065   -3.396701   -0.219809
      4          6           0        4.100832   -0.064877    0.065070
      5          6           0        0.887103    3.545265   -0.063801
      6          7           0       -0.998981   -1.332135   -0.142167
      7          6           0       -2.346409   -1.073865   -0.382529
      8          6           0       -3.182135   -2.414606   -0.489258
      9          6           0       -2.101340   -3.487165   -0.189236
     10          6           0       -0.764976   -2.714488   -0.122144
     11          6           0       -2.285839   -4.389947    1.087510
     12          6           0       -4.068563   -2.598408   -1.788551
     13          6           0       -5.538048   -2.759366   -1.541426
     14          1           0       -6.297121   -3.761453   -2.498568
     15          7           0        2.042219   -1.507699   -0.095732
     16          6           0        1.803472   -2.865054   -0.168777
     17          6           0        3.057888   -3.585608   -0.017312
     18          6           0        4.136348   -2.660095    0.067210
     19          6           0        3.449906   -1.318218   -0.009448
     20          6           0        3.190235   -5.118528   -0.118839
     21          6           0        5.638429   -2.906487    0.164899
     22          8           0        6.471122   -2.023586    0.142907
     23          6           0        6.305152   -4.342569    0.198586
     24          7           0        2.280383    1.553258    0.068515
     25          6           0        3.568026    1.247609    0.160366
     26          6           0        4.468037    2.526024    0.307835
     27          6           0        3.434823    3.697018    0.068102
     28          6           0        2.098439    2.898659   -0.009258
     29          6           0        5.268728    2.524802    1.642130
     30          6           0        3.785956    4.529617   -1.149033
     31          6           0        3.608133    6.033497   -0.947914
     32          7           0       -0.605791    1.633691   -0.039457
     33          6           0       -0.417857    3.002112   -0.074918
     34          6           0       -1.700290    3.612431    0.096500
     35          6           0       -2.677110    2.592174   -0.015857
     36          6           0       -1.969828    1.360128   -0.094531
     37          6           0       -1.960653    5.061923    0.259484
     38          6           0       -4.122255    2.325994   -0.122642
     39          8           0       -5.113318    3.037675    0.012266
     40          6           0       -4.220501    0.628680   -0.344293
     41          6           0       -5.034409    0.055861    0.682023
     42          8           0       -4.610682   -0.567459    1.631073
     43          8           0       -6.370404    0.190619    0.378826
     44          6           0       -7.255681   -0.340163    1.445248
     45          1           0        0.503810   -4.482738   -0.334368
     46          1           0        5.181645   -0.042380    0.215906
     47          1           0        1.028801    4.628200   -0.094323
     48          1           0       -3.779849   -2.425975    0.421538
     49          1           0       -2.009855   -4.184105   -1.022359
     50          1           0       -1.984837   -5.397957    0.800477
     51          1           0       -3.330510   -4.343237    1.394071
     52          1           0       -1.679851   -4.089212    1.942396
     53          1           0       -3.646458   -3.453794   -2.316220
     54          1           0       -3.949974   -1.689574   -2.378763
     55          1           0       -6.037771   -1.796983   -1.659434
     56          1           0       -5.585056   -3.079916   -0.501069
     57          1           0        3.756168   -5.291132   -1.033590
     58          1           0        2.208643   -5.545482   -0.325847
     59          1           0        3.715658   -5.606498    0.703025
     60          1           0        5.984079   -4.881337   -0.693549
     61          1           0        6.224944   -4.823455    1.173928
     62          1           0        7.374988   -4.141425    0.245446
     63          1           0        5.208087    2.630283   -0.485358
     64          1           0        3.416135    4.269443    0.995717
     65          1           0        5.109416    3.483028    2.137440
     66          1           0        6.324218    2.283720    1.513448
     67          1           0        4.883449    1.745931    2.298132
     68          1           0        3.220236    4.228774   -2.030216
     69          1           0        4.803670    4.382356   -1.513841
     70          1           0        3.088827    6.252400   -0.014849
     71          1           0        2.981118    6.377649   -1.770897
     72          1           0        4.543080    6.582683   -1.060243
     73          1           0       -1.098285    5.728430    0.269216
     74          1           0       -2.692264    5.147865    1.063794
     75          1           0       -2.343746    5.346197   -0.720874
     76          1           0       -4.662057    0.424799   -1.320190
     77          1           0       -7.068390    0.190216    2.379169
     78          1           0       -7.076992   -1.414943    1.476088
     79          1           0       -8.313008   -0.179624    1.238206
 ---------------------------------------------------------------------

 SCF Done:  E(RwB97XD) =  -2035.30482919     A.U. after   20 cycles

 Excitation energies and oscillator strengths:

 Excited State   1:      Singlet-A      1.7609 eV  704.11 nm  f=0.3715  <S**2>=0.000
     155 ->158         0.17867
     156 ->157         0.68334
     155 <-158         0.10773
 This state for optimization and/or second-order correction.
 Total Energy, E(TD-HF/TD-DFT) =  -2035.24011844
 Copying the excited state density for this state as the 1-particle RhoCI density.

 Excited State   2:      Singlet-A      2.2095 eV  561.13 nm  f=0.1123  <S**2>=0.000
     155 ->157         0.63740
     156 ->158        -0.28425

 Excited State   3:      Singlet-A      3.4492 eV  359.46 nm  f=0.0261  <S**2>=0.000
     152 ->157        -0.29741
     154 ->157         0.60873

 Excited State   4:      Singlet-A      3.5297 eV  351.26 nm  f=0.3229  <S**2>=0.000
     150 ->157         0.17372
     152 ->157         0.27566
     154 ->157         0.23324
     155 ->157         0.18797
     156 ->158         0.51902

 Excited State   5:      Singlet-A      3.5624 eV  348.03 nm  f=0.0366  <S**2>=0.000
     151 ->157         0.52788
     151 ->158        -0.15303
     151 ->159         0.33396
     151 ->160         0.17873
     156 ->158        -0.15621

 The electronic state is 1-A.
 Alpha  occ. eigenvalues --  -46.94585 -19.29490 -19.24969 -19.24362 -19.24083
 Alpha  occ. eigenvalues --  -14.46901 -14.46343 -14.45020 -14.43281 -10.42075
 Alpha  occ. eigenvalues --  -10.40460 -10.39972 -10.36672 -10.36177 -10.35366
 Alpha  occ. eigenvalues --  -10.35290 -10.34964 -10.34467 -10.34152 -10.33751
 Alpha  occ. eigenvalues --  -10.33084 -10.32669 -10.32592 -10.32391 -10.32093
 Alpha  occ. eigenvalues --  -10.32019 -10.31913 -10.31860 -10.31671 -10.31644
 Alpha  occ. eigenvalues --  -10.31400 -10.31172 -10.30888 -10.30697 -10.30661
 Alpha  occ. eigenvalues --  -10.30598 -10.30307 -10.30134 -10.29881 -10.29689
 Alpha  occ. eigenvalues --  -10.29087 -10.28921 -10.28848  -3.20550  -1.94148
 Alpha  occ. eigenvalues --   -1.93666  -1.93528  -1.17959  -1.13800  -1.11439
 Alpha  occ. eigenvalues --   -1.09560  -1.06087  -1.04547  -1.03968  -1.02945
 Alpha  occ. eigenvalues --   -0.93759  -0.90990  -0.90298  -0.90015  -0.89265
 Alpha  occ. eigenvalues --   -0.88827  -0.87477  -0.86283  -0.85505  -0.84418
 Alpha  occ. eigenvalues --   -0.83002  -0.82665  -0.82059  -0.80456  -0.78833
 Alpha  occ. eigenvalues --   -0.78358  -0.77660  -0.76683  -0.74216  -0.73293
 Alpha  occ. eigenvalues --   -0.71098  -0.70744  -0.69434  -0.69150  -0.67533
 Alpha  occ. eigenvalues --   -0.66747  -0.66607  -0.66352  -0.63128  -0.62093
 Alpha  occ. eigenvalues --   -0.61159  -0.60773  -0.59946  -0.59753  -0.59011
 Alpha  occ. eigenvalues --   -0.57950  -0.57668  -0.56719  -0.56134  -0.55620
 Alpha  occ. eigenvalues --   -0.55239  -0.55171  -0.54953  -0.54500  -0.54052
 Alpha  occ. eigenvalues --   -0.53616  -0.53319  -0.53046  -0.52780  -0.52506
 Alpha  occ. eigenvalues --   -0.52049  -0.51524  -0.51456  -0.51358  -0.50636
 Alpha  occ. eigenvalues --   -0.50567  -0.49965  -0.49916  -0.49678  -0.49477
 Alpha  occ. eigenvalues --   -0.48695  -0.48335  -0.48126  -0.47919  -0.47468
 Alpha  occ. eigenvalues --   -0.47102  -0.46754  -0.46661  -0.46416  -0.45964
 Alpha  occ. eigenvalues --   -0.45878  -0.45479  -0.45194  -0.45159  -0.44984
 Alpha  occ. eigenvalues --   -0.44302  -0.44194  -0.43894  -0.43407  -0.43136
 Alpha  occ. eigenvalues --   -0.42465  -0.42205  -0.41938  -0.41567  -0.41313
 Alpha  occ. eigenvalues --   -0.40603  -0.39653  -0.39208  -0.38898  -0.38227
 Alpha  occ. eigenvalues --   -0.37840  -0.36167  -0.35783  -0.35334  -0.33918
 Alpha  occ. eigenvalues --   -0.33497  -0.32884  -0.32183  -0.30753  -0.26021
 Alpha  occ. eigenvalues --   -0.23156
 Alpha virt. eigenvalues --   -0.06839   0.00149   0.02091   0.04210   0.06015
 Alpha virt. eigenvalues --    0.06921   0.07910   0.08212   0.09612   0.10627
 Alpha virt. eigenvalues --    0.11559   0.12306   0.12950   0.13336   0.13635

 Mulliken charges:
               1
     1  Mg   0.955406
     2  C    0.013575
     3  C   -0.100383
     4  C   -0.065510
     5  C   -0.066991
     6  N   -0.380812
     7  C   -0.011742
     8  C   -0.052109
     9  C   -0.156810
    10  C    0.113169
    11  C    0.022936
    12  C    0.049744
    13  C   -0.135315
    14  H    0.029599
    15  N   -0.509983
    16  C    0.184464
    17  C   -0.168030
    18  C   -0.051427
    19  C    0.184716
    20  C    0.065810
    21  C    0.037391
    22  O   -0.218194
    23  C   -0.018979
    24  N   -0.317976
    25  C    0.037522
    26  C   -0.121233
    27  C   -0.060527
    28  C    0.021280
    29  C    0.018086
    30  C    0.000704
    31  C   -0.057011
    32  N   -0.463972
    33  C    0.166442
    34  C   -0.208616
    35  C   -0.042157
    36  C    0.161561
    37  C    0.091204
    38  C    0.152357
    39  O   -0.199077
    40  C   -0.162849
    41  C    0.269609
    42  O   -0.250534
    43  O   -0.372322
    44  C    0.150476
    45  H   -0.008637
    46  H    0.020402
    47  H   -0.018284
    48  H    0.051663
    49  H    0.032776
    50  H    0.036886
    51  H    0.043462
    52  H    0.050789
    53  H    0.038832
    54  H    0.034479
    55  H    0.065970
    56  H    0.050608
    57  H    0.052558
    58  H    0.034067
    59  H    0.066420
    60  H    0.061585
    61  H    0.055627
    62  H    0.047362
    63  H    0.040340
    64  H    0.034391
    65  H    0.035216
    66  H    0.050597
    67  H    0.041482
    68  H    0.030945
    69  H    0.027959
    70  H    0.041062
    71  H    0.031090
    72  H    0.041230
    73  H    0.019054
    74  H    0.070170
    75  H    0.044832
    76  H    0.079933
    77  H    0.060086
    78  H    0.049454
    79  H    0.052094
 Sum of Mulliken charges =  -0.00000

 Dipole moment (field-independent basis, Debye):
    X=              3.1306    Y=             -3.8131    Z=             -1.3528  Tot=              5.1157
 Quadrupole moment (field-independent basis, Debye-Ang):
   XX=           -265.3893   YY=           -225.7379   ZZ=           -255.7221
   XY=             17.4911   XZ=             -1.6889   YZ=             -0.3257

 Normal termination of Gaussian 16 at Mon Sep 20 15:05:49 2021.
