 Gaussian 16, Revision A.03,
 Gaussian 16:  ES64L-G16RevA.03 25-Dec-2016

 --------------------------------
 #p wB97XD/Def2SVP td=(nstates=5)
 --------------------------------

 --------------------------------
 TDDFT excited states in gaussian
 --------------------------------
 Symbolic Z-matrix:
 Charge =  0 Multiplicity = 1

                         Standard orientation:
 ---------------------------------------------------------------------
 Center     Atomic      Atomic             Coordinates (Angstroms)
 Number     Number       Type             X           Y           Z
 ---------------------------------------------------------------------
      1         12           0      -27.133054    0.582882    0.351963
      2          6           0      -25.348090   -2.243445    1.189706
      3          6           0      -29.147571   -1.419605   -1.555604
      4          6           0      -28.708150    3.377063   -0.704463
      5          6           0      -24.693377    2.567196    1.835069
      6          7           0      -27.082534   -1.621537   -0.194760
      7          6           0      -26.437437   -2.555961    0.390219
      8          6           0      -26.825877   -4.068725   -0.020926
      9          6           0      -27.871939   -3.725141   -1.153761
     10          6           0      -28.020140   -2.133365   -1.051019
     11          6           0      -27.395341   -4.080622   -2.658279
     12          6           0      -27.416713   -4.965397    1.151763
     13          6           0      -27.132603   -6.508702    1.105848
     14          1           0      -26.550683   -7.047140   -0.166189
     15          7           0      -28.711688    0.928732   -0.851780
     16          6           0      -29.522754   -0.064102   -1.529737
     17          6           0      -30.606021    0.643923   -2.203917
     18          6           0      -30.428297    2.042599   -2.060498
     19          6           0      -29.273863    2.170859   -1.142645
     20          6           0      -31.648592   -0.186603   -2.861580
     21          6           0      -31.267318    3.234296   -2.578347
     22          8           0      -30.972697    4.388617   -2.483695
     23          6           0      -32.490802    2.844311   -3.432203
     24          7           0      -26.745393    2.715247    0.416223
     25          6           0      -27.497782    3.652010   -0.068192
     26          6           0      -26.807479    5.043290    0.009626
     27          6           0      -25.580883    4.797124    0.920500
     28          6           0      -25.656515    3.263289    1.105946
     29          6           0      -26.449199    5.564392   -1.398416
     30          6           0      -25.636626    5.631645    2.236797
     31          6           0      -25.400675    7.140318    2.059564
     32          7           0      -25.347616    0.270365    1.337472
     33          6           0      -24.524282    1.184390    1.970656
     34          6           0      -23.496916    0.422184    2.630189
     35          6           0      -23.709786   -0.960180    2.346867
     36          6           0      -24.900781   -0.940769    1.571013
     37          6           0      -22.423427    0.975385    3.371161
     38          6           0      -23.312671   -2.313784    2.570203
     39          8           0      -22.283053   -2.743676    3.170752
     40          6           0      -24.314306   -3.182532    1.714730
     41          6           0      -23.529522   -3.914127    0.743304
     42          8           0      -23.132281   -3.447084   -0.323852
     43          8           0      -23.205452   -5.119754    1.311604
     44          6           0      -22.190659   -5.869520    0.541430
     45          1           0      -29.791145   -2.029110   -2.192671
     46          1           0      -29.282486    4.233781   -1.064997
     47          1           0      -23.993678    3.232561    2.346038
     48          1           0      -25.906933   -4.453108   -0.464255
     49          1           0      -28.799975   -4.270728   -0.984082
     50          1           0      -26.308772   -4.171441   -2.653262
     51          1           0      -27.696617   -3.282515   -3.336600
     52          1           0      -27.802637   -4.994697   -3.091573
     53          1           0      -28.493372   -4.824287    1.060737
     54          1           0      -27.314204   -4.569358    2.162669
     55          1           0      -28.007483   -7.123140    1.317989
     56          1           0      -26.365153   -6.748789    1.841759
     57          1           0      -31.336350   -0.470130   -3.867084
     58          1           0      -32.647631    0.242429   -2.783145
     59          1           0      -31.738465   -1.099659   -2.273542
     60          1           0      -33.330528    2.440395   -2.865824
     61          1           0      -32.051416    2.114837   -4.111826
     62          1           0      -32.889936    3.627493   -4.076044
     63          1           0      -27.558587    5.647332    0.518055
     64          1           0      -24.666536    5.004896    0.364761
     65          1           0      -26.324166    4.802164   -2.167802
     66          1           0      -25.503691    6.093023   -1.523990
     67          1           0      -27.269268    6.226888   -1.675191
     68          1           0      -24.846737    5.286991    2.902734
     69          1           0      -26.592573    5.468866    2.735711
     70          1           0      -25.333969    7.338807    0.989856
     71          1           0      -24.382303    7.374644    2.369944
     72          1           0      -26.051948    7.841709    2.580539
     73          1           0      -22.886707    1.749180    3.983421
     74          1           0      -21.639233    1.465112    2.794064
     75          1           0      -21.913516    0.167015    3.896225
     76          1           0      -24.714095   -3.882738    2.448673
     77          1           0      -21.271513   -5.286718    0.607813
     78          1           0      -22.538470   -6.112834   -0.461978
     79          1           0      -22.028614   -6.815598    1.058171
     80         12           0       27.092599    0.631697   -0.017509
     81          6           0       25.540761   -2.252018   -1.360090
     82          6           0       27.912498   -1.192573    2.700774
     83          6           0       28.390831    3.364388    1.233611
     84          6           0       25.482139    2.506943   -2.617070
     85          7           0       26.679874   -1.499649    0.683147
     86          6           0       26.256004   -2.504257   -0.170593
     87          6           0       26.558916   -3.799240    0.502516
     88          6           0       26.774733   -3.434029    1.971482
     89          6           0       27.179867   -1.945820    1.825879
     90          6           0       25.434267   -3.566725    2.787111
     91          6           0       27.803109   -4.656531   -0.088773
     92          6           0       27.689208   -6.202730   -0.256557
     93          1           0       27.167233   -7.004054    0.970994
     94          7           0       28.022331    1.001716    1.770152
     95          6           0       28.264472    0.133442    2.707459
     96          6           0       28.926130    0.831516    3.823340
     97          6           0       29.285955    2.131497    3.355024
     98          6           0       28.537320    2.233083    2.070161
     99          6           0       29.255831    0.292049    5.262673
    100          6           0       30.176247    3.218702    3.956049
    101          8           0       30.303593    4.363107    3.480362
    102          6           0       30.755693    2.988225    5.270424
    103          7           0       26.784738    2.720955   -0.561434
    104          6           0       27.567126    3.672295    0.087874
    105          6           0       27.474313    5.034508   -0.702069
    106          6           0       26.664698    4.657089   -1.967633
    107          6           0       26.310744    3.186267   -1.736764
    108          6           0       26.944474    6.186125    0.152695
    109          6           0       27.330946    4.982433   -3.328179
    110          6           0       26.427757    5.520802   -4.462271
    111          7           0       25.772892    0.268743   -1.649982
    112          6           0       25.168498    1.113180   -2.575903
    113          6           0       24.492553    0.305784   -3.559351
    114          6           0       24.565822   -1.006384   -3.089465
    115          6           0       25.370676   -1.013730   -1.916955
    116          6           0       23.900718    0.745264   -4.753864
    117          6           0       24.224967   -2.409117   -3.369028
    118          8           0       23.632749   -2.951207   -4.288700
    119          6           0       24.880609   -3.279728   -2.247621
    120          6           0       23.770941   -4.084597   -1.594885
    121          8           0       22.969626   -3.841174   -0.721246
    122          8           0       23.934497   -5.307408   -2.178960
    123          6           0       23.252784   -6.466532   -1.555114
    124          1           0       28.261375   -1.790127    3.546017
    125          1           0       29.008337    4.195610    1.580139
    126          1           0       25.175760    3.021409   -3.529753
    127          1           0       25.767572   -4.548757    0.475700
    128          1           0       27.646821   -3.924321    2.403436
    129          1           0       25.576455   -3.866297    3.824897
    130          1           0       24.786729   -4.365010    2.423605
    131          1           0       25.005358   -2.565250    2.783063
    132          1           0       28.710986   -4.392198    0.452433
    133          1           0       28.058770   -4.287575   -1.082750
    134          1           0       28.733433   -6.496934   -0.368169
    135          1           0       27.059630   -6.280138   -1.143009
    136          1           0       30.314540    0.145310    5.475256
    137          1           0       28.733525   -0.658990    5.370429
    138          1           0       29.003031    0.966518    6.080813
    139          1           0       31.320278    2.055658    5.289365
    140          1           0       29.980349    2.960826    6.036160
    141          1           0       31.531194    3.741114    5.407908
    142          1           0       28.480510    5.233705   -1.071142
    143          1           0       25.666936    5.093702   -1.928056
    144          1           0       25.857193    6.216292    0.074624
    145          1           0       27.254137    7.176735   -0.178796
    146          1           0       27.074183    5.934559    1.204789
    147          1           0       27.940608    4.172802   -3.729016
    148          1           0       28.117690    5.728343   -3.207514
    149          1           0       26.208547    4.640032   -5.066013
    150          1           0       27.077009    6.175559   -5.044423
    151          1           0       25.532513    5.980325   -4.044268
    152          1           0       23.123886    0.147512   -5.230116
    153          1           0       24.715826    0.946941   -5.449576
    154          1           0       23.396684    1.676378   -4.497404
    155          1           0       25.640731   -3.931534   -2.677881
    156          1           0       24.000161   -7.259411   -1.562024
    157          1           0       22.372460   -6.844636   -2.074271
    158          1           0       22.999034   -6.236195   -0.520722
 ---------------------------------------------------------------------

 SCF Done:  E(RwB97XD) =  -4070.61654125     A.U. after   20 cycles

 Excitation energies and oscillator strengths:

 Excited State   1:      Singlet-A      1.6742 eV  740.54 nm  f=0.3825  <S**2>=0.000
     309 -> 315       -0.19698
     312 -> 314        0.67926
     309 <- 315       -0.11759
 This state for optimization and/or second-order correction.
 Total Energy, E(TD-HF/TD-DFT) =  -4070.55501446
 Copying the excited state density for this state as the 1-particle RhoCI density.

 Excited State   2:      Singlet-A      1.7222 eV  719.93 nm  f=0.3797  <S**2>=0.000
     310 -> 316        0.20375
     311 -> 313        0.67764
     310 <- 316        0.11868

 Excited State   3:      Singlet-A      2.1614 eV  573.64 nm  f=0.1079  <S**2>=0.000
     310 -> 313        0.64084
     311 -> 316       -0.28355

 Excited State   4:      Singlet-A      2.2066 eV  561.89 nm  f=0.0674  <S**2>=0.000
     309 -> 314        0.62034
     312 -> 315        0.32387

 Excited State   5:      Singlet-A      3.4056 eV  364.06 nm  f=0.1374  <S**2>=0.000
     307 -> 314        0.57129
     309 -> 314        0.13893
     312 -> 315       -0.36083

 The electronic state is 1-A.
 Alpha  occ. eigenvalues --  -46.95690 -46.94715 -19.29977 -19.29584 -19.25177
 Alpha  occ. eigenvalues --  -19.24953 -19.24286 -19.24205 -19.23709 -19.23259
 Alpha  occ. eigenvalues --  -14.46765 -14.46350 -14.46082 -14.45985 -14.44412
 Alpha  occ. eigenvalues --  -14.44312 -14.43533 -14.43472 -10.43067 -10.42349
 Alpha  occ. eigenvalues --  -10.40244 -10.39477 -10.38812 -10.38751 -10.35905
 Alpha  occ. eigenvalues --  -10.35758 -10.35179 -10.34957 -10.34813 -10.34802
 Alpha  occ. eigenvalues --  -10.34784 -10.34737 -10.34438 -10.34412 -10.34309
 Alpha  occ. eigenvalues --  -10.34281 -10.34025 -10.33972 -10.33817 -10.33632
 Alpha  occ. eigenvalues --  -10.33598 -10.33543 -10.33125 -10.33036 -10.32978
 Alpha  occ. eigenvalues --  -10.32856 -10.32217 -10.32180 -10.32106 -10.31944
 Alpha  occ. eigenvalues --  -10.31911 -10.31820 -10.31813 -10.31706 -10.31622
 Alpha  occ. eigenvalues --  -10.31614 -10.31599 -10.31564 -10.31562 -10.31557
 Alpha  occ. eigenvalues --  -10.31331 -10.31281 -10.31233 -10.31125 -10.31122
 Alpha  occ. eigenvalues --  -10.31118 -10.31006 -10.30748 -10.30641 -10.30550
 Alpha  occ. eigenvalues --  -10.30456 -10.30286 -10.30209 -10.30142 -10.30002
 Alpha  occ. eigenvalues --  -10.29905 -10.29614 -10.29542 -10.29495 -10.29452
 Alpha  occ. eigenvalues --  -10.29349 -10.29171 -10.29073 -10.28818 -10.28439
 Alpha  occ. eigenvalues --  -10.28432  -3.21536  -3.20759  -1.95119  -1.94656
 Alpha  occ. eigenvalues --   -1.94494  -1.94344  -1.93890  -1.93732  -1.18268
 Alpha  occ. eigenvalues --   -1.17642  -1.14738  -1.11806  -1.11564  -1.09946
 Alpha  occ. eigenvalues --   -1.09367  -1.08914  -1.07366  -1.07168  -1.06275
 Alpha  occ. eigenvalues --   -1.05926  -1.05443  -1.05030  -1.04072  -1.02914
 Alpha  occ. eigenvalues --   -0.94725  -0.94462  -0.91166  -0.90746  -0.90347
 Alpha  occ. eigenvalues --   -0.90245  -0.89858  -0.89693  -0.89469  -0.89360
 Alpha  occ. eigenvalues --   -0.89055  -0.88865  -0.88787  -0.88766  -0.86118
 Alpha  occ. eigenvalues --   -0.85822  -0.85463  -0.85317  -0.84593  -0.84388
 Alpha  occ. eigenvalues --   -0.84194  -0.83619  -0.83425  -0.82959  -0.82547
 Alpha  occ. eigenvalues --   -0.82212  -0.80506  -0.80327  -0.79353  -0.79268
 Alpha  occ. eigenvalues --   -0.78931  -0.78260  -0.77766  -0.77632  -0.77028
 Alpha  occ. eigenvalues --   -0.76739  -0.74475  -0.74162  -0.73770  -0.73414
 Alpha  occ. eigenvalues --   -0.71284  -0.70842  -0.70704  -0.70649  -0.70131
 Alpha  occ. eigenvalues --   -0.69675  -0.69306  -0.68976  -0.67720  -0.67409
 Alpha  occ. eigenvalues --   -0.67279  -0.67266  -0.66948  -0.66738  -0.66305
 Alpha  occ. eigenvalues --   -0.66048  -0.63917  -0.63506  -0.62467  -0.62017
 Alpha  occ. eigenvalues --   -0.61539  -0.61338  -0.61211  -0.61054  -0.60270
 Alpha  occ. eigenvalues --   -0.60236  -0.59875  -0.59824  -0.59597  -0.59477
 Alpha  occ. eigenvalues --   -0.58141  -0.57960  -0.57838  -0.57561  -0.57136
 Alpha  occ. eigenvalues --   -0.57115  -0.56418  -0.56383  -0.55857  -0.55620
 Alpha  occ. eigenvalues --   -0.55489  -0.55286  -0.55164  -0.55117  -0.55088
 Alpha  occ. eigenvalues --   -0.54881  -0.54857  -0.54655  -0.54313  -0.54015
 Alpha  occ. eigenvalues --   -0.53984  -0.53773  -0.53584  -0.53484  -0.53219
 Alpha  occ. eigenvalues --   -0.53132  -0.53044  -0.52822  -0.52699  -0.52627
 Alpha  occ. eigenvalues --   -0.52332  -0.52327  -0.51877  -0.51575  -0.51310
 Alpha  occ. eigenvalues --   -0.51291  -0.51035  -0.50913  -0.50812  -0.50712
 Alpha  occ. eigenvalues --   -0.50459  -0.50346  -0.50101  -0.50080  -0.49727
 Alpha  occ. eigenvalues --   -0.49673  -0.49552  -0.49292  -0.49009  -0.48943
 Alpha  occ. eigenvalues --   -0.48835  -0.48554  -0.48545  -0.48340  -0.48171
 Alpha  occ. eigenvalues --   -0.48124  -0.47931  -0.47838  -0.47508  -0.47445
 Alpha  occ. eigenvalues --   -0.47047  -0.46947  -0.46796  -0.46738  -0.46586
 Alpha  occ. eigenvalues --   -0.46284  -0.46283  -0.46180  -0.46052  -0.45981
 Alpha  occ. eigenvalues --   -0.45747  -0.45711  -0.45598  -0.45433  -0.45139
 Alpha  occ. eigenvalues --   -0.44926  -0.44870  -0.44857  -0.44667  -0.44644
 Alpha  occ. eigenvalues --   -0.44527  -0.44208  -0.44186  -0.44070  -0.43902
 Alpha  occ. eigenvalues --   -0.43629  -0.43601  -0.43480  -0.43355  -0.43182
 Alpha  occ. eigenvalues --   -0.43062  -0.42779  -0.42498  -0.42418  -0.42105
 Alpha  occ. eigenvalues --   -0.42087  -0.41743  -0.41675  -0.41463  -0.41240
 Alpha  occ. eigenvalues --   -0.40652  -0.40106  -0.39862  -0.39671  -0.39503
 Alpha  occ. eigenvalues --   -0.39308  -0.39023  -0.38555  -0.38524  -0.38451
 Alpha  occ. eigenvalues --   -0.38205  -0.37817  -0.36628  -0.36262  -0.35895
 Alpha  occ. eigenvalues --   -0.35842  -0.35588  -0.35293  -0.33791  -0.33666
 Alpha  occ. eigenvalues --   -0.33344  -0.33318  -0.32711  -0.32414  -0.32413
 Alpha  occ. eigenvalues --   -0.32242  -0.31401  -0.31275  -0.25871  -0.25566
 Alpha  occ. eigenvalues --   -0.23026  -0.22755
 Alpha virt. eigenvalues --   -0.06737  -0.06602  -0.00125   0.00251   0.01946
 Alpha virt. eigenvalues --    0.02055   0.04231   0.04305   0.05038   0.05730
 Alpha virt. eigenvalues --    0.07683   0.07873   0.08064   0.08318   0.08326

 Mulliken charges:
               1
     1  Mg   0.972986
     2  C    0.036759
     3  C   -0.076452
     4  C   -0.083456
     5  C   -0.099864
     6  N   -0.274807
     7  C   -0.097106
     8  C   -0.014350
     9  C   -0.137573
    10  C    0.065928
    11  C    0.000621
    12  C    0.023621
    13  C   -0.131705
    14  H    0.035237
    15  N   -0.532108
    16  C    0.160527
    17  C   -0.146774
    18  C   -0.100037
    19  C    0.147692
    20  C    0.050328
    21  C    0.084766
    22  O   -0.192566
    23  C   -0.045340
    24  N   -0.332473
    25  C    0.040071
    26  C   -0.054413
    27  C   -0.067571
    28  C    0.054785
    29  C    0.016566
    30  C   -0.022544
    31  C   -0.039123
    32  N   -0.427758
    33  C    0.163561
    34  C   -0.180273
    35  C    0.016151
    36  C    0.116645
    37  C    0.057404
    38  C    0.086151
    39  O   -0.253836
    40  C   -0.075552
    41  C    0.268005
    42  O   -0.262114
    43  O   -0.366903
    44  C    0.144971
    45  H   -0.003040
    46  H    0.012713
    47  H   -0.006241
    48  H    0.049131
    49  H    0.040255
    50  H    0.048199
    51  H    0.038268
    52  H    0.039836
    53  H    0.016285
    54  H    0.039528
    55  H    0.057642
    56  H    0.064736
    57  H    0.067837
    58  H    0.043781
    59  H    0.042645
    60  H    0.070906
    61  H    0.053274
    62  H    0.049666
    63  H    0.038208
    64  H    0.035347
    65  H    0.043612
    66  H    0.034041
    67  H    0.050528
    68  H    0.028772
    69  H    0.032074
    70  H    0.024465
    71  H    0.026133
    72  H    0.050551
    73  H    0.038266
    74  H    0.050055
    75  H    0.057920
    76  H    0.063329
    77  H    0.068122
    78  H    0.056060
    79  H    0.049014
    80  Mg   0.942319
    81  C   -0.052053
    82  C   -0.101110
    83  C   -0.067645
    84  C   -0.090825
    85  N   -0.320458
    86  C    0.052361
    87  C   -0.094491
    88  C   -0.080780
    89  C   -0.005958
    90  C    0.041930
    91  C   -0.020855
    92  C   -0.113935
    93  H    0.029619
    94  N   -0.428057
    95  C    0.194896
    96  C   -0.167399
    97  C   -0.071061
    98  C    0.113744
    99  C    0.058891
   100  C    0.067033
   101  O   -0.250777
   102  C   -0.004394
   103  N   -0.356434
   104  C    0.033202
   105  C   -0.062102
   106  C   -0.056378
   107  C    0.068690
   108  C    0.048390
   109  C   -0.039067
   110  C   -0.040868
   111  N   -0.439386
   112  C    0.135181
   113  C   -0.196766
   114  C   -0.015767
   115  C    0.167681
   116  C    0.061193
   117  C    0.109523
   118  O   -0.199660
   119  C   -0.077082
   120  C    0.279415
   121  O   -0.226397
   122  O   -0.373849
   123  C    0.131575
   124  H   -0.012463
   125  H    0.026172
   126  H   -0.012870
   127  H    0.024526
   128  H    0.020071
   129  H    0.029361
   130  H    0.045942
   131  H    0.057443
   132  H    0.021556
   133  H    0.024516
   134  H    0.065195
   135  H    0.071825
   136  H    0.043629
   137  H    0.041000
   138  H    0.041475
   139  H    0.037746
   140  H    0.075252
   141  H    0.054594
   142  H    0.039194
   143  H    0.033369
   144  H    0.015979
   145  H    0.046687
   146  H    0.047942
   147  H    0.025301
   148  H    0.022950
   149  H    0.043227
   150  H    0.039835
   151  H    0.045447
   152  H    0.060029
   153  H    0.054165
   154  H    0.037963
   155  H    0.081370
   156  H    0.047530
   157  H    0.063839
   158  H    0.058110
 Sum of Mulliken charges =  -0.00000

 Dipole moment (field-independent basis, Debye):
    X=             -0.6903    Y=             -1.3434    Z=              0.7069  Tot=              1.6676
 Quadrupole moment (field-independent basis, Debye-Ang):
   XX=            -60.1179   YY=           -472.0175   ZZ=           -503.3051
   XY=              8.1497   XZ=             76.8474   YZ=            -10.4996

 Normal termination of Gaussian 16 at Mon Sep 20 10:08:37 2021.
