 Gaussian 16, Revision A.03,
 Gaussian 16:  ES64L-G16RevA.03 25-Dec-2016

 --------------------------------
 #p wB97XD/Def2SVP td=(nstates=5)
 --------------------------------

 --------------------------------
 TDDFT excited states in gaussian
 --------------------------------
 Symbolic Z-matrix:
 Charge =  0 Multiplicity = 1

                         Standard orientation:
 ---------------------------------------------------------------------
 Center     Atomic      Atomic             Coordinates (Angstroms)
 Number     Number       Type             X           Y           Z
 ---------------------------------------------------------------------
      1         12           0      -27.287087   -0.409312   -0.113145
      2          6           0      -25.492939    2.479718   -0.862858
      3          6           0      -28.733337    1.210643    2.554992
      4          6           0      -28.737800   -3.363582    0.641886
      5          6           0      -25.425580   -2.091834   -2.657476
      6          7           0      -27.023067    1.560366    0.771251
      7          6           0      -26.272447    2.593675    0.301920
      8          6           0      -26.512581    3.873914    1.112480
      9          6           0      -27.454639    3.338790    2.279745
     10          6           0      -27.766419    1.914180    1.809468
     11          6           0      -26.751236    3.343186    3.631622
     12          6           0      -27.290070    5.019775    0.372102
     13          6           0      -27.018542    6.435528    0.810094
     14          1           0      -26.339367    6.681110    2.082549
     15          7           0      -28.603906   -0.952026    1.311905
     16          6           0      -29.078761   -0.119254    2.344852
     17          6           0      -30.111546   -0.862698    3.017672
     18          6           0      -30.189327   -2.168745    2.471343
     19          6           0      -29.143874   -2.217246    1.419693
     20          6           0      -30.803861   -0.370236    4.270499
     21          6           0      -31.089766   -3.293768    2.768020
     22          8           0      -30.908171   -4.419110    2.354506
     23          6           0      -32.269482   -3.119880    3.792004
     24          7           0      -27.259460   -2.468772   -0.998915
     25          6           0      -27.917075   -3.462428   -0.480362
     26          6           0      -27.628411   -4.793760   -1.237178
     27          6           0      -26.645908   -4.405420   -2.327064
     28          6           0      -26.344983   -2.900859   -1.989181
     29          6           0      -27.173958   -5.934057   -0.209360
     30          6           0      -27.187414   -4.658662   -3.749923
     31          6           0      -26.776707   -6.009550   -4.446566
     32          7           0      -26.014714    0.071886   -1.613589
     33          6           0      -25.328007   -0.705827   -2.578774
     34          6           0      -24.499142    0.100656   -3.391106
     35          6           0      -24.490511    1.365671   -2.663204
     36          6           0      -25.464058    1.251127   -1.629992
     37          6           0      -23.543445   -0.395556   -4.460705
     38          6           0      -23.843584    2.625582   -2.680713
     39          8           0      -23.012329    3.113445   -3.436143
     40          6           0      -24.595040    3.486978   -1.466518
     41          6           0      -23.479414    4.005553   -0.607434
     42          8           0      -22.648801    3.293000   -0.034025
     43          8           0      -23.387732    5.428977   -0.625290
     44          6           0      -22.288978    6.020327    0.200729
     45          1           0      -29.150925    1.785777    3.384895
     46          1           0      -29.097996   -4.304407    1.062409
     47          1           0      -24.868098   -2.543624   -3.480182
     48          1           0      -25.536031    4.183263    1.485641
     49          1           0      -28.355551    3.938856    2.407053
     50          1           0      -25.844193    3.946347    3.602648
     51          1           0      -26.568486    2.339173    4.015553
     52          1           0      -27.286369    3.895127    4.404374
     53          1           0      -28.353975    4.803645    0.463087
     54          1           0      -27.104164    4.879648   -0.692972
     55          1           0      -27.987988    6.911568    0.955621
     56          1           0      -26.439959    6.941558    0.037217
     57          1           0      -30.559606   -0.958052    5.155258
     58          1           0      -31.877604   -0.358632    4.078678
     59          1           0      -30.551577    0.639897    4.592719
     60          1           0      -31.821621   -3.229976    4.779968
     61          1           0      -32.951546   -3.967600    3.725333
     62          1           0      -32.708712   -2.126020    3.714940
     63          1           0      -28.607147   -5.063049   -1.634680
     64          1           0      -25.673199   -4.872324   -2.180197
     65          1           0      -26.202098   -6.339056   -0.491096
     66          1           0      -27.812474   -6.817474   -0.228382
     67          1           0      -27.108501   -5.421764    0.751407
     68          1           0      -26.817872   -3.834858   -4.361583
     69          1           0      -28.271817   -4.564729   -3.690170
     70          1           0      -25.811148   -5.851038   -4.928144
     71          1           0      -27.477966   -6.484411   -5.133012
     72          1           0      -26.574222   -6.625969   -3.571357
     73          1           0      -24.180257   -0.477594   -5.341135
     74          1           0      -23.142098   -1.377229   -4.211824
     75          1           0      -22.599377    0.142416   -4.555964
     76          1           0      -25.198751    4.274913   -1.918541
     77          1           0      -21.307173    5.717272   -0.161242
     78          1           0      -22.289251    5.833716    1.274966
     79          1           0      -22.440916    7.071209   -0.045562
     80         12           0       26.270363   -0.762882    0.215691
     81          6           0       26.840614    2.554132   -1.017936
     82          6           0       25.565749    0.505109    3.161417
     83          6           0       26.587184   -3.865417    1.337445
     84          6           0       27.466736   -1.914668   -3.066201
     85          7           0       26.169409    1.305435    0.956069
     86          6           0       26.467163    2.524985    0.316079
     87          6           0       26.298025    3.787510    1.243202
     88          6           0       25.800712    3.006023    2.608335
     89          6           0       25.818124    1.520422    2.262372
     90          6           0       26.744310    3.303996    3.851432
     91          6           0       25.336316    4.904805    0.707734
     92          6           0       24.847399    5.910364    1.743333
     93          1           0       25.356893    7.348104    1.533809
     94          7           0       25.999831   -1.577083    1.997073
     95          6           0       25.677266   -0.934531    3.169248
     96          6           0       25.504056   -1.854609    4.273466
     97          6           0       25.802573   -3.151112    3.694163
     98          6           0       26.082624   -2.888131    2.237656
     99          6           0       25.058345   -1.528321    5.620780
    100          6           0       25.794099   -4.530100    4.330714
    101          8           0       25.944411   -5.552268    3.722194
    102          6           0       25.668190   -4.529858    5.831079
    103          7           0       26.996950   -2.626169   -0.717241
    104          6           0       26.981048   -3.779353   -0.002387
    105          6           0       27.388902   -4.987445   -0.887418
    106          6           0       27.525642   -4.332675   -2.305908
    107          6           0       27.266334   -2.862065   -2.041231
    108          6           0       28.661507   -5.805931   -0.481026
    109          6           0       26.552286   -4.871157   -3.413083
    110          6           0       26.981137   -6.237009   -3.993378
    111          7           0       27.021344    0.052911   -1.647447
    112          6           0       27.373179   -0.503039   -2.855808
    113          6           0       27.612260    0.530204   -3.783186
    114          6           0       27.486114    1.710530   -3.151949
    115          6           0       27.135629    1.407432   -1.801360
    116          6           0       27.884974    0.226090   -5.250523
    117          6           0       27.594616    3.172208   -3.196688
    118          8           0       27.905208    3.907002   -4.098479
    119          6           0       27.188683    3.760590   -1.762137
    120          6           0       28.428197    4.332108   -1.151124
    121          8           0       29.306776    3.828695   -0.488018
    122          8           0       28.381107    5.677100   -1.460000
    123          6           0       29.490707    6.522446   -0.958579
    124          1           0       25.369266    0.827453    4.185969
    125          1           0       26.816259   -4.828662    1.799594
    126          1           0       27.696746   -2.418159   -4.008050
    127          1           0       27.294385    4.172077    1.461716
    128          1           0       24.811494    3.384026    2.867579
    129          1           0       26.131102    3.499468    4.730993
    130          1           0       27.497502    4.087156    3.769262
    131          1           0       27.280385    2.401099    4.142225
    132          1           0       24.560482    4.281266    0.261553
    133          1           0       25.656173    5.497942   -0.149274
    134          1           0       25.166270    5.584312    2.732939
    135          1           0       23.770470    6.030737    1.629006
    136          1           0       24.104651   -2.056065    5.622274
    137          1           0       24.988211   -0.449637    5.761704
    138          1           0       25.641583   -1.908495    6.459225
    139          1           0       24.618704   -4.639082    6.104155
    140          1           0       26.339964   -3.828268    6.326490
    141          1           0       26.297365   -5.369372    6.125466
    142          1           0       26.473929   -5.568403   -1.007015
    143          1           0       28.573773   -4.353656   -2.605195
    144          1           0       29.459635   -5.858144   -1.222111
    145          1           0       28.326600   -6.841461   -0.425174
    146          1           0       29.143247   -5.492056    0.444986
    147          1           0       26.529712   -4.167842   -4.244759
    148          1           0       25.570545   -4.886668   -2.937709
    149          1           0       28.044824   -6.405407   -3.823995
    150          1           0       26.710000   -6.208749   -5.048673
    151          1           0       26.501869   -7.094170   -3.519488
    152          1           0       27.584483    1.057707   -5.887970
    153          1           0       27.369759   -0.696406   -5.518400
    154          1           0       28.934757   -0.029635   -5.395964
    155          1           0       26.388364    4.496892   -1.839694
    156          1           0       29.713712    7.218252   -1.767323
    157          1           0       30.391096    5.969583   -0.691143
    158          1           0       28.984880    6.989501   -0.112966
 ---------------------------------------------------------------------

 SCF Done:  E(RwB97XD) =  -4070.64664151     A.U. after   19 cycles

 Excitation energies and oscillator strengths:

 Excited State   1:      Singlet-A      1.6367 eV  757.54 nm  f=0.3948  <S**2>=0.000
     310 -> 316       -0.18394
     312 -> 314        0.68418
     310 <- 316       -0.11742
 This state for optimization and/or second-order correction.
 Total Energy, E(TD-HF/TD-DFT) =  -4070.58649485
 Copying the excited state density for this state as the 1-particle RhoCI density.

 Excited State   2:      Singlet-A      1.6919 eV  732.82 nm  f=0.3738  <S**2>=0.000
     309 -> 315        0.17800
     311 -> 313        0.68410
     309 <- 315        0.11255

 Excited State   3:      Singlet-A      2.1545 eV  575.46 nm  f=0.1342  <S**2>=0.000
     310 -> 314        0.64887
     312 -> 316        0.26857

 Excited State   4:      Singlet-A      2.1734 eV  570.47 nm  f=0.1440  <S**2>=0.000
     309 -> 313        0.64712
     311 -> 315       -0.26330

 Excited State   5:      Singlet-A      3.4572 eV  358.62 nm  f=0.0012  <S**2>=0.000
     305 -> 314        0.14284
     306 -> 314        0.67101

 The electronic state is 1-A.
 Alpha  occ. eigenvalues --  -46.94884 -46.94347 -19.29370 -19.29069 -19.24831
 Alpha  occ. eigenvalues --  -19.24387 -19.24374 -19.24151 -19.23953 -19.23219
 Alpha  occ. eigenvalues --  -14.47299 -14.46805 -14.46261 -14.45884 -14.44870
 Alpha  occ. eigenvalues --  -14.44199 -14.43920 -14.43439 -10.42920 -10.42800
 Alpha  occ. eigenvalues --  -10.39527 -10.39285 -10.38708 -10.38316 -10.35895
 Alpha  occ. eigenvalues --  -10.35720 -10.35354 -10.34949 -10.34929 -10.34922
 Alpha  occ. eigenvalues --  -10.34883 -10.34870 -10.34849 -10.34684 -10.34366
 Alpha  occ. eigenvalues --  -10.34223 -10.34123 -10.34094 -10.33984 -10.33339
 Alpha  occ. eigenvalues --  -10.33095 -10.32960 -10.32929 -10.32891 -10.32825
 Alpha  occ. eigenvalues --  -10.32799 -10.32500 -10.32410 -10.32216 -10.32070
 Alpha  occ. eigenvalues --  -10.32070 -10.32012 -10.31882 -10.31852 -10.31796
 Alpha  occ. eigenvalues --  -10.31788 -10.31681 -10.31680 -10.31534 -10.31517
 Alpha  occ. eigenvalues --  -10.31127 -10.31027 -10.30910 -10.30872 -10.30841
 Alpha  occ. eigenvalues --  -10.30835 -10.30831 -10.30819 -10.30795 -10.30770
 Alpha  occ. eigenvalues --  -10.30633 -10.30476 -10.30296 -10.30292 -10.30022
 Alpha  occ. eigenvalues --  -10.29898 -10.29753 -10.29715 -10.29693 -10.29618
 Alpha  occ. eigenvalues --  -10.29579 -10.29577 -10.29463 -10.29364 -10.28734
 Alpha  occ. eigenvalues --  -10.28509  -3.20874  -3.20457  -1.94461  -1.94066
 Alpha  occ. eigenvalues --   -1.93976  -1.93864  -1.93578  -1.93447  -1.17841
 Alpha  occ. eigenvalues --   -1.15580  -1.13569  -1.13431  -1.13031  -1.10814
 Alpha  occ. eigenvalues --   -1.09647  -1.08014  -1.07217  -1.05960  -1.05805
 Alpha  occ. eigenvalues --   -1.05409  -1.05325  -1.04556  -1.04483  -1.03598
 Alpha  occ. eigenvalues --   -0.94985  -0.94045  -0.91232  -0.90854  -0.90812
 Alpha  occ. eigenvalues --   -0.90366  -0.90124  -0.89953  -0.89803  -0.89418
 Alpha  occ. eigenvalues --   -0.89081  -0.88746  -0.88203  -0.87958  -0.86253
 Alpha  occ. eigenvalues --   -0.85806  -0.85068  -0.84895  -0.84156  -0.84053
 Alpha  occ. eigenvalues --   -0.83947  -0.83461  -0.82644  -0.82347  -0.82024
 Alpha  occ. eigenvalues --   -0.81993  -0.80812  -0.80064  -0.79193  -0.78868
 Alpha  occ. eigenvalues --   -0.78781  -0.78551  -0.77808  -0.77456  -0.77011
 Alpha  occ. eigenvalues --   -0.76744  -0.75127  -0.74744  -0.73621  -0.73263
 Alpha  occ. eigenvalues --   -0.71579  -0.71553  -0.70920  -0.70652  -0.69963
 Alpha  occ. eigenvalues --   -0.69710  -0.69325  -0.68950  -0.67733  -0.67196
 Alpha  occ. eigenvalues --   -0.66991  -0.66978  -0.66628  -0.66551  -0.66339
 Alpha  occ. eigenvalues --   -0.65879  -0.63451  -0.63395  -0.62443  -0.62058
 Alpha  occ. eigenvalues --   -0.61615  -0.61451  -0.61344  -0.60791  -0.60553
 Alpha  occ. eigenvalues --   -0.60246  -0.59812  -0.59754  -0.59325  -0.58886
 Alpha  occ. eigenvalues --   -0.58297  -0.58080  -0.57652  -0.57015  -0.56972
 Alpha  occ. eigenvalues --   -0.56578  -0.56358  -0.56183  -0.56043  -0.55967
 Alpha  occ. eigenvalues --   -0.55595  -0.55393  -0.55164  -0.54902  -0.54603
 Alpha  occ. eigenvalues --   -0.54452  -0.54292  -0.54291  -0.54239  -0.53965
 Alpha  occ. eigenvalues --   -0.53881  -0.53544  -0.53501  -0.53271  -0.52922
 Alpha  occ. eigenvalues --   -0.52913  -0.52522  -0.52434  -0.52152  -0.52083
 Alpha  occ. eigenvalues --   -0.51785  -0.51711  -0.51659  -0.51600  -0.51503
 Alpha  occ. eigenvalues --   -0.51402  -0.51221  -0.51048  -0.51020  -0.50751
 Alpha  occ. eigenvalues --   -0.50592  -0.50328  -0.50317  -0.50070  -0.49901
 Alpha  occ. eigenvalues --   -0.49725  -0.49646  -0.49613  -0.49435  -0.49215
 Alpha  occ. eigenvalues --   -0.49081  -0.48951  -0.48856  -0.48661  -0.48628
 Alpha  occ. eigenvalues --   -0.48271  -0.47812  -0.47764  -0.47652  -0.47343
 Alpha  occ. eigenvalues --   -0.47203  -0.47101  -0.47050  -0.46951  -0.46948
 Alpha  occ. eigenvalues --   -0.46767  -0.46669  -0.46638  -0.46513  -0.46241
 Alpha  occ. eigenvalues --   -0.46096  -0.45945  -0.45828  -0.45764  -0.45445
 Alpha  occ. eigenvalues --   -0.45296  -0.45086  -0.44961  -0.44834  -0.44663
 Alpha  occ. eigenvalues --   -0.44581  -0.44519  -0.44464  -0.43980  -0.43940
 Alpha  occ. eigenvalues --   -0.43782  -0.43774  -0.43568  -0.43472  -0.43199
 Alpha  occ. eigenvalues --   -0.43034  -0.42795  -0.42701  -0.42680  -0.42378
 Alpha  occ. eigenvalues --   -0.42190  -0.41792  -0.41340  -0.41207  -0.40691
 Alpha  occ. eigenvalues --   -0.40561  -0.39975  -0.39821  -0.39661  -0.39261
 Alpha  occ. eigenvalues --   -0.38980  -0.38980  -0.38496  -0.38442  -0.38119
 Alpha  occ. eigenvalues --   -0.37786  -0.37721  -0.36554  -0.36469  -0.35926
 Alpha  occ. eigenvalues --   -0.35915  -0.35564  -0.34857  -0.33864  -0.33461
 Alpha  occ. eigenvalues --   -0.33175  -0.32820  -0.32764  -0.32560  -0.32278
 Alpha  occ. eigenvalues --   -0.31909  -0.31761  -0.31608  -0.26157  -0.25487
 Alpha  occ. eigenvalues --   -0.23401  -0.22749
 Alpha virt. eigenvalues --   -0.07431  -0.06878   0.00239   0.00814   0.02227
 Alpha virt. eigenvalues --    0.02953   0.04475   0.04740   0.05669   0.06827
 Alpha virt. eigenvalues --    0.06883   0.07508   0.07874   0.08155   0.08575

 Mulliken charges:
               1
     1  Mg   0.981333
     2  C   -0.071184
     3  C   -0.108053
     4  C   -0.077229
     5  C   -0.077082
     6  N   -0.334133
     7  C    0.003620
     8  C   -0.040088
     9  C   -0.140279
    10  C    0.072843
    11  C    0.018703
    12  C    0.018218
    13  C   -0.105816
    14  H    0.036512
    15  N   -0.531959
    16  C    0.234400
    17  C   -0.151191
    18  C   -0.045566
    19  C    0.152473
    20  C    0.052165
    21  C    0.017233
    22  O   -0.224856
    23  C   -0.005393
    24  N   -0.321129
    25  C    0.055668
    26  C   -0.094139
    27  C   -0.043659
    28  C    0.027624
    29  C    0.014731
    30  C   -0.005401
    31  C   -0.042792
    32  N   -0.449065
    33  C    0.125192
    34  C   -0.138852
    35  C   -0.084684
    36  C    0.187691
    37  C    0.059657
    38  C    0.113511
    39  O   -0.211595
    40  C   -0.083843
    41  C    0.288709
    42  O   -0.260483
    43  O   -0.404777
    44  C    0.141034
    45  H    0.004090
    46  H    0.032128
    47  H    0.000450
    48  H    0.043795
    49  H    0.038843
    50  H    0.033319
    51  H    0.049260
    52  H    0.023053
    53  H    0.024378
    54  H    0.025368
    55  H    0.048839
    56  H    0.067398
    57  H    0.063444
    58  H    0.049913
    59  H    0.030802
    60  H    0.053353
    61  H    0.056031
    62  H    0.038237
    63  H    0.048307
    64  H    0.027360
    65  H    0.030056
    66  H    0.045676
    67  H    0.051198
    68  H    0.026162
    69  H    0.026675
    70  H    0.037030
    71  H    0.054586
    72  H    0.027400
    73  H    0.054146
    74  H    0.037465
    75  H    0.064145
    76  H    0.072269
    77  H    0.058579
    78  H    0.054404
    79  H    0.053771
    80  Mg   0.977083
    81  C   -0.038729
    82  C   -0.071917
    83  C   -0.068480
    84  C   -0.096314
    85  N   -0.383177
    86  C   -0.009850
    87  C   -0.026750
    88  C   -0.121386
    89  C    0.109320
    90  C   -0.013728
    91  C   -0.019448
    92  C   -0.123093
    93  H    0.029465
    94  N   -0.491500
    95  C    0.111747
    96  C   -0.136169
    97  C   -0.128151
    98  C    0.164593
    99  C    0.081630
   100  C    0.041309
   101  O   -0.208223
   102  C   -0.027656
   103  N   -0.338912
   104  C    0.031406
   105  C   -0.031742
   106  C   -0.109777
   107  C    0.026855
   108  C    0.019855
   109  C   -0.035689
   110  C   -0.029322
   111  N   -0.401611
   112  C    0.165267
   113  C   -0.241984
   114  C    0.014019
   115  C    0.138425
   116  C    0.096236
   117  C    0.119953
   118  O   -0.173071
   119  C   -0.118276
   120  C    0.285108
   121  O   -0.233274
   122  O   -0.386709
   123  C    0.128202
   124  H   -0.028682
   125  H    0.025115
   126  H    0.001874
   127  H    0.050839
   128  H    0.047827
   129  H    0.031106
   130  H    0.050463
   131  H    0.042787
   132  H    0.033709
   133  H    0.059773
   134  H    0.061087
   135  H    0.063959
   136  H    0.057834
   137  H    0.039864
   138  H    0.047082
   139  H    0.079774
   140  H    0.047416
   141  H    0.039933
   142  H    0.038816
   143  H    0.032530
   144  H    0.032678
   145  H    0.039117
   146  H    0.051676
   147  H    0.028448
   148  H    0.032745
   149  H    0.031887
   150  H    0.042775
   151  H    0.037466
   152  H    0.058704
   153  H    0.027647
   154  H    0.045764
   155  H    0.081039
   156  H    0.063688
   157  H    0.072751
   158  H    0.054974
 Sum of Mulliken charges =  -0.00000

 Dipole moment (field-independent basis, Debye):
    X=             -6.6359    Y=              0.0016    Z=              6.6906  Tot=              9.4234
 Quadrupole moment (field-independent basis, Debye-Ang):
   XX=           -390.5031   YY=           -494.3272   ZZ=           -483.8827
   XY=            -34.2486   XZ=            -22.3525   YZ=             56.8952

 Normal termination of Gaussian 16 at Mon Sep 20 09:56:21 2021.
