 Gaussian 16, Revision A.03,
 Gaussian 16:  ES64L-G16RevA.03 25-Dec-2016

 --------------------------------
 #p wB97XD/Def2SVP td=(nstates=5)
 --------------------------------

 --------------------------------
 TDDFT excited states in gaussian
 --------------------------------
 Symbolic Z-matrix:
 Charge =  0 Multiplicity = 1

                         Standard orientation:
 ---------------------------------------------------------------------
 Center     Atomic      Atomic             Coordinates (Angstroms)
 Number     Number       Type             X           Y           Z
 ---------------------------------------------------------------------
      1         12           0      -31.258982    0.651058    0.342201
      2          6           0      -28.939227   -2.192241    0.339064
      3          6           0      -28.512870    2.513454   -0.642703
      4          6           0      -33.338913    2.840667   -0.682184
      5          6           0      -33.823895   -1.793091    0.941472
      6          7           0      -28.933083    0.101351   -0.243286
      7          6           0      -28.235198   -1.083377   -0.155885
      8          6           0      -26.780517   -0.873021   -0.714833
      9          6           0      -26.597115    0.654218   -0.748184
     10          6           0      -28.086406    1.123784   -0.535124
     11          6           0      -25.667228    1.330161    0.343281
     12          6           0      -26.520261   -1.593520   -2.081959
     13          6           0      -25.160927   -2.236045   -2.255690
     14          1           0      -24.122813   -1.458263   -3.123986
     15          7           0      -30.989055    2.459446   -0.415546
     16          6           0      -29.814125    3.117716   -0.657918
     17          6           0      -30.098583    4.479365   -1.187813
     18          6           0      -31.515431    4.555677   -1.219138
     19          6           0      -32.002038    3.242576   -0.803301
     20          6           0      -29.075388    5.520314   -1.670733
     21          6           0      -32.397933    5.656590   -1.814380
     22          8           0      -31.833346    6.663701   -2.232801
     23          6           0      -33.805045    5.612581   -1.887108
     24          7           0      -33.321969    0.413624   -0.089794
     25          6           0      -33.954584    1.628359   -0.265089
     26          6           0      -35.511082    1.385251   -0.178350
     27          6           0      -35.630918   -0.166750    0.032270
     28          6           0      -34.172326   -0.514463    0.415038
     29          6           0      -36.263370    2.214176    0.898669
     30          6           0      -36.200145   -1.056407   -1.145362
     31          6           0      -37.725285   -1.106470   -1.342085
     32          7           0      -31.450391   -1.535199    0.648086
     33          6           0      -32.531680   -2.317534    1.001275
     34          6           0      -32.133886   -3.660623    1.347226
     35          6           0      -30.707810   -3.652025    1.113531
     36          6           0      -30.289189   -2.363769    0.628986
     37          6           0      -33.087615   -4.745345    1.743151
     38          6           0      -29.579999   -4.471940    1.104081
     39          8           0      -29.465823   -5.683864    1.228038
     40          6           0      -28.419173   -3.636074    0.491280
     41          6           0      -27.323218   -3.691863    1.529809
     42          8           0      -26.151901   -3.975582    1.266921
     43          8           0      -27.693848   -3.225007    2.854835
     44          6           0      -26.529795   -2.962802    3.699674
     45          1           0      -27.651417    3.139214   -0.883099
     46          1           0      -34.160490    3.546383   -0.821546
     47          1           0      -34.700740   -2.393229    1.192986
     48          1           0      -26.069094   -1.171388    0.056525
     49          1           0      -26.325454    1.008209   -1.742658
     50          1           0      -24.763801    1.606017   -0.200207
     51          1           0      -25.370793    0.612214    1.107440
     52          1           0      -26.109725    2.163953    0.888242
     53          1           0      -26.517908   -0.934272   -2.950372
     54          1           0      -27.239159   -2.400068   -2.227667
     55          1           0      -25.334634   -3.253436   -2.606225
     56          1           0      -24.709015   -2.317898   -1.266655
     57          1           0      -29.383518    6.516120   -1.350990
     58          1           0      -29.052428    5.379744   -2.751325
     59          1           0      -28.101492    5.353159   -1.212650
     60          1           0      -34.195749    5.646567   -0.869604
     61          1           0      -34.208453    4.784712   -2.470282
     62          1           0      -34.003311    6.489775   -2.503952
     63          1           0      -36.041883    1.609756   -1.102918
     64          1           0      -36.200230   -0.402294    0.931112
     65          1           0      -36.756377    1.476119    1.531525
     66          1           0      -37.006855    2.831768    0.395739
     67          1           0      -35.468014    2.784595    1.379951
     68          1           0      -35.838981   -2.055796   -0.900515
     69          1           0      -35.847374   -0.695986   -2.111893
     70          1           0      -38.056284   -0.514742   -0.488140
     71          1           0      -38.114895   -2.108517   -1.157027
     72          1           0      -38.120024   -0.700467   -2.273136
     73          1           0      -33.791968   -4.822841    0.915952
     74          1           0      -33.713583   -4.484171    2.596223
     75          1           0      -32.622392   -5.730768    1.770589
     76          1           0      -28.079412   -4.171841   -0.394861
     77          1           0      -27.026787   -2.234146    4.341231
     78          1           0      -25.650402   -2.689950    3.116344
     79          1           0      -26.383996   -3.858590    4.303462
     80         12           0       30.818217   -0.535444   -0.510512
     81          6           0       30.534453    1.963258    1.937146
     82          6           0       30.767566   -2.921163    1.819142
     83          6           0       31.164948   -2.688810   -2.901415
     84          6           0       31.876960    2.118826   -2.729202
     85          7           0       30.771155   -0.422789    1.640622
     86          6           0       30.492080    0.622386    2.429633
     87          6           0       30.477544    0.240489    3.887295
     88          6           0       30.966336   -1.262961    3.848766
     89          6           0       30.817665   -1.572698    2.371757
     90          6           0       32.390526   -1.597765    4.399349
     91          6           0       28.977094    0.313321    4.476169
     92          6           0       28.879705    1.075175    5.838462
     93          1           0       27.337949    1.395261    6.234597
     94          7           0       30.697788   -2.475105   -0.559526
     95          6           0       30.633673   -3.339906    0.519719
     96          6           0       30.326592   -4.655910    0.030951
     97          6           0       30.394228   -4.668320   -1.422286
     98          6           0       30.653328   -3.209944   -1.731089
     99          6           0       30.164682   -5.818165    1.052365
    100          6           0       30.233791   -5.718880   -2.515217
    101          8           0       30.240062   -5.514506   -3.742594
    102          6           0       29.940277   -7.070975   -1.968401
    103          7           0       31.585664   -0.257699   -2.451147
    104          6           0       31.606556   -1.396096   -3.218518
    105          6           0       32.230757   -1.121811   -4.587209
    106          6           0       32.159912    0.426590   -4.649125
    107          6           0       31.922344    0.815068   -3.188526
    108          6           0       33.644132   -1.821540   -4.686696
    109          6           0       31.060287    1.036698   -5.618230
    110          6           0       31.312248    2.459643   -6.142008
    111          7           0       31.118089    1.618331   -0.470858
    112          6           0       31.532259    2.491938   -1.430168
    113          6           0       31.444717    3.858388   -0.966004
    114          6           0       30.980225    3.669146    0.348476
    115          6           0       30.857024    2.300676    0.628334
    116          6           0       31.752751    5.208778   -1.652845
    117          6           0       30.578899    4.388130    1.525324
    118          8           0       30.354211    5.548697    1.749353
    119          6           0       30.431204    3.260484    2.673475
    120          6           0       29.189038    3.691740    3.320096
    121          8           0       27.999987    3.466681    2.980161
    122          8           0       29.584423    4.416577    4.380820
    123          6           0       28.556478    5.030042    5.222867
    124          1           0       30.660026   -3.710258    2.566479
    125          1           0       31.209545   -3.402016   -3.727368
    126          1           0       32.112602    2.886825   -3.468868
    127          1           0       31.084476    0.870217    4.538408
    128          1           0       30.316325   -1.990436    4.335307
    129          1           0       33.017237   -1.871354    3.550554
    130          1           0       32.245453   -2.460084    5.049853
    131          1           0       32.940190   -0.823160    4.932951
    132          1           0       28.457632   -0.640546    4.575138
    133          1           0       28.368164    0.766816    3.694010
    134          1           0       29.421163    2.019607    5.788002
    135          1           0       29.234639    0.520672    6.706835
    136          1           0       29.114432   -5.869550    1.336160
    137          1           0       30.580215   -5.597543    2.036372
    138          1           0       30.673057   -6.754460    0.823321
    139          1           0       29.017036   -7.138177   -1.393981
    140          1           0       30.839420   -7.278014   -1.386794
    141          1           0       29.901853   -7.852124   -2.728157
    142          1           0       31.562070   -1.596289   -5.305543
    143          1           0       33.106748    0.813424   -5.025794
    144          1           0       34.437860   -1.076290   -4.636297
    145          1           0       33.880100   -2.399914   -5.579574
    146          1           0       33.927889   -2.473211   -3.860050
    147          1           0       30.199122    1.148496   -4.958889
    148          1           0       30.775708    0.450214   -6.492081
    149          1           0       30.580124    3.173103   -5.761541
    150          1           0       31.335608    2.633856   -7.217938
    151          1           0       32.244984    2.774569   -5.676219
    152          1           0       32.476172    4.982109   -2.436036
    153          1           0       32.159882    5.927843   -0.940776
    154          1           0       30.816830    5.543744   -2.099879
    155          1           0       31.242269    3.364929    3.394362
    156          1           0       28.549984    4.519661    6.185812
    157          1           0       27.593213    5.093964    4.717888
    158          1           0       28.876522    6.043636    5.464003
 ---------------------------------------------------------------------

 SCF Done:  E(RwB97XD) =  -4070.54999428     A.U. after   18 cycles

 Excitation energies and oscillator strengths:

 Excited State   1:      Singlet-A      1.6686 eV  743.07 nm  f=0.3081  <S**2>=0.000
     309 -> 315        0.20168
     311 -> 313        0.67573
     309 <- 315        0.11932
 This state for optimization and/or second-order correction.
 Total Energy, E(TD-HF/TD-DFT) =  -4070.48867618
 Copying the excited state density for this state as the 1-particle RhoCI density.

 Excited State   2:      Singlet-A      1.6707 eV  742.09 nm  f=0.4215  <S**2>=0.000
     310 -> 316       -0.20259
     312 -> 314        0.67738
     310 <- 316       -0.11976

 Excited State   3:      Singlet-A      2.1894 eV  566.28 nm  f=0.0674  <S**2>=0.000
     309 -> 313        0.61434
     311 -> 315       -0.33148

 Excited State   4:      Singlet-A      2.1931 eV  565.34 nm  f=0.0609  <S**2>=0.000
     310 -> 314        0.61592
     312 -> 316        0.33609

 Excited State   5:      Singlet-A      3.2142 eV  385.74 nm  f=0.0156  <S**2>=0.000
     308 -> 313        0.61822
     308 -> 318       -0.12004
     311 -> 315        0.24309

 The electronic state is 1-A.
 Alpha  occ. eigenvalues --  -46.97094 -46.93915 -19.30077 -19.28931 -19.25025
 Alpha  occ. eigenvalues --  -19.24727 -19.24063 -19.23825 -19.23397 -19.22892
 Alpha  occ. eigenvalues --  -14.47340 -14.47176 -14.46562 -14.46310 -14.45407
 Alpha  occ. eigenvalues --  -14.44089 -14.43732 -14.42991 -10.43266 -10.42417
 Alpha  occ. eigenvalues --  -10.39984 -10.38887 -10.38656 -10.37480 -10.36406
 Alpha  occ. eigenvalues --  -10.35958 -10.35753 -10.35639 -10.35598 -10.35450
 Alpha  occ. eigenvalues --  -10.35193 -10.34998 -10.34819 -10.34735 -10.34665
 Alpha  occ. eigenvalues --  -10.34485 -10.34251 -10.34245 -10.34146 -10.33866
 Alpha  occ. eigenvalues --  -10.33454 -10.33358 -10.33226 -10.33219 -10.33058
 Alpha  occ. eigenvalues --  -10.32972 -10.32893 -10.32787 -10.32687 -10.32671
 Alpha  occ. eigenvalues --  -10.32439 -10.32410 -10.32365 -10.32292 -10.32265
 Alpha  occ. eigenvalues --  -10.32107 -10.31986 -10.31879 -10.31788 -10.31770
 Alpha  occ. eigenvalues --  -10.31751 -10.31676 -10.31646 -10.31585 -10.31391
 Alpha  occ. eigenvalues --  -10.31329 -10.30863 -10.30842 -10.30769 -10.30758
 Alpha  occ. eigenvalues --  -10.30723 -10.30610 -10.30515 -10.30506 -10.30350
 Alpha  occ. eigenvalues --  -10.30349 -10.30258 -10.30112 -10.30029 -10.29927
 Alpha  occ. eigenvalues --  -10.29863 -10.29724 -10.29645 -10.29247 -10.29182
 Alpha  occ. eigenvalues --  -10.28474  -3.22996  -3.20158  -1.96520  -1.96163
 Alpha  occ. eigenvalues --   -1.95915  -1.93741  -1.93302  -1.93148  -1.18111
 Alpha  occ. eigenvalues --   -1.16075  -1.12998  -1.12679  -1.11624  -1.11187
 Alpha  occ. eigenvalues --   -1.08544  -1.07713  -1.07194  -1.07101  -1.06307
 Alpha  occ. eigenvalues --   -1.05608  -1.05357  -1.05347  -1.04464  -1.03082
 Alpha  occ. eigenvalues --   -0.94868  -0.94687  -0.91052  -0.90890  -0.90816
 Alpha  occ. eigenvalues --   -0.90400  -0.90118  -0.89891  -0.89370  -0.88978
 Alpha  occ. eigenvalues --   -0.88926  -0.88879  -0.88209  -0.87849  -0.86919
 Alpha  occ. eigenvalues --   -0.86447  -0.85763  -0.85726  -0.85594  -0.84476
 Alpha  occ. eigenvalues --   -0.84385  -0.84162  -0.83227  -0.83109  -0.82238
 Alpha  occ. eigenvalues --   -0.81842  -0.80235  -0.80180  -0.79274  -0.79230
 Alpha  occ. eigenvalues --   -0.78953  -0.78821  -0.77844  -0.77761  -0.77315
 Alpha  occ. eigenvalues --   -0.77225  -0.74822  -0.74769  -0.74109  -0.73915
 Alpha  occ. eigenvalues --   -0.71218  -0.71096  -0.70711  -0.70547  -0.69844
 Alpha  occ. eigenvalues --   -0.69707  -0.69193  -0.68996  -0.67983  -0.67507
 Alpha  occ. eigenvalues --   -0.67458  -0.67324  -0.66996  -0.66874  -0.66432
 Alpha  occ. eigenvalues --   -0.66027  -0.63882  -0.63750  -0.62411  -0.62257
 Alpha  occ. eigenvalues --   -0.61807  -0.61788  -0.61259  -0.61140  -0.60904
 Alpha  occ. eigenvalues --   -0.60614  -0.59983  -0.59182  -0.59103  -0.58995
 Alpha  occ. eigenvalues --   -0.58664  -0.58317  -0.57842  -0.57587  -0.57436
 Alpha  occ. eigenvalues --   -0.56745  -0.56293  -0.56280  -0.55837  -0.55833
 Alpha  occ. eigenvalues --   -0.55679  -0.55472  -0.55374  -0.55224  -0.55170
 Alpha  occ. eigenvalues --   -0.54846  -0.54751  -0.54485  -0.54436  -0.54143
 Alpha  occ. eigenvalues --   -0.53903  -0.53675  -0.53517  -0.53415  -0.53332
 Alpha  occ. eigenvalues --   -0.52973  -0.52966  -0.52674  -0.52519  -0.52305
 Alpha  occ. eigenvalues --   -0.52117  -0.51943  -0.51812  -0.51794  -0.51505
 Alpha  occ. eigenvalues --   -0.51353  -0.51098  -0.51011  -0.50896  -0.50835
 Alpha  occ. eigenvalues --   -0.50561  -0.50394  -0.50331  -0.50083  -0.50078
 Alpha  occ. eigenvalues --   -0.49924  -0.49894  -0.49660  -0.49310  -0.49236
 Alpha  occ. eigenvalues --   -0.49183  -0.48806  -0.48654  -0.48464  -0.48406
 Alpha  occ. eigenvalues --   -0.48253  -0.48040  -0.47849  -0.47836  -0.47644
 Alpha  occ. eigenvalues --   -0.47451  -0.47313  -0.47060  -0.46902  -0.46845
 Alpha  occ. eigenvalues --   -0.46604  -0.46436  -0.46314  -0.46021  -0.45956
 Alpha  occ. eigenvalues --   -0.45721  -0.45682  -0.45560  -0.45497  -0.45410
 Alpha  occ. eigenvalues --   -0.45151  -0.45006  -0.44805  -0.44774  -0.44586
 Alpha  occ. eigenvalues --   -0.44554  -0.44382  -0.44256  -0.44155  -0.44039
 Alpha  occ. eigenvalues --   -0.44019  -0.43904  -0.43869  -0.43421  -0.43253
 Alpha  occ. eigenvalues --   -0.43251  -0.43146  -0.42701  -0.42457  -0.42196
 Alpha  occ. eigenvalues --   -0.42166  -0.42116  -0.41828  -0.41496  -0.41212
 Alpha  occ. eigenvalues --   -0.40774  -0.40719  -0.39808  -0.39763  -0.39613
 Alpha  occ. eigenvalues --   -0.39456  -0.39160  -0.38941  -0.38283  -0.37508
 Alpha  occ. eigenvalues --   -0.37339  -0.37213  -0.36543  -0.36148  -0.35968
 Alpha  occ. eigenvalues --   -0.35933  -0.35264  -0.34952  -0.33836  -0.33715
 Alpha  occ. eigenvalues --   -0.33524  -0.33497  -0.33202  -0.32614  -0.32458
 Alpha  occ. eigenvalues --   -0.32115  -0.31767  -0.30863  -0.26398  -0.26112
 Alpha  occ. eigenvalues --   -0.23265  -0.22926
 Alpha virt. eigenvalues --   -0.07133  -0.06781  -0.00800  -0.00390   0.01757
 Alpha virt. eigenvalues --    0.01881   0.03644   0.04321   0.04567   0.06224
 Alpha virt. eigenvalues --    0.06819   0.06984   0.07378   0.07606   0.08154

 Mulliken charges:
               1
     1  Mg   0.966332
     2  C   -0.023697
     3  C   -0.063155
     4  C   -0.091912
     5  C   -0.101000
     6  N   -0.282615
     7  C   -0.034108
     8  C    0.018291
     9  C   -0.119632
    10  C   -0.008118
    11  C    0.015361
    12  C    0.017530
    13  C   -0.125805
    14  H    0.022225
    15  N   -0.499446
    16  C    0.163107
    17  C   -0.190057
    18  C   -0.055683
    19  C    0.215070
    20  C    0.096890
    21  C    0.017724
    22  O   -0.245744
    23  C    0.020207
    24  N   -0.384832
    25  C    0.048377
    26  C   -0.125778
    27  C   -0.089976
    28  C    0.045037
    29  C    0.037755
    30  C   -0.003806
    31  C   -0.042736
    32  N   -0.423455
    33  C    0.155273
    34  C   -0.159560
    35  C   -0.021046
    36  C    0.159073
    37  C    0.093598
    38  C    0.074435
    39  O   -0.216357
    40  C   -0.098762
    41  C    0.286612
    42  O   -0.256795
    43  O   -0.417830
    44  C    0.139231
    45  H   -0.001274
    46  H   -0.023785
    47  H   -0.001938
    48  H    0.034655
    49  H    0.044281
    50  H    0.048582
    51  H    0.036649
    52  H    0.049373
    53  H    0.048460
    54  H    0.043912
    55  H    0.057358
    56  H    0.052612
    57  H    0.068272
    58  H    0.069369
    59  H    0.030888
    60  H    0.075423
    61  H    0.063993
    62  H    0.054820
    63  H    0.035889
    64  H    0.019932
    65  H    0.037841
    66  H    0.042230
    67  H    0.042235
    68  H    0.028947
    69  H    0.036387
    70  H    0.015398
    71  H    0.040181
    72  H    0.050248
    73  H    0.034111
    74  H    0.047805
    75  H    0.062821
    76  H    0.072071
    77  H    0.050722
    78  H    0.068750
    79  H    0.052559
    80  Mg   0.994280
    81  C    0.048547
    82  C   -0.082947
    83  C   -0.068744
    84  C   -0.108685
    85  N   -0.341572
    86  C    0.045939
    87  C   -0.121745
    88  C   -0.075782
    89  C    0.029492
    90  C    0.026880
    91  C    0.024010
    92  C   -0.140458
    93  H    0.018716
    94  N   -0.559123
    95  C    0.189804
    96  C   -0.126468
    97  C   -0.130568
    98  C    0.181183
    99  C    0.043928
   100  C    0.089167
   101  O   -0.240689
   102  C   -0.020715
   103  N   -0.364133
   104  C    0.073146
   105  C   -0.083708
   106  C   -0.059594
   107  C    0.063219
   108  C    0.017222
   109  C   -0.011450
   110  C   -0.064698
   111  N   -0.360365
   112  C    0.130443
   113  C   -0.202720
   114  C   -0.017960
   115  C    0.092350
   116  C    0.097861
   117  C    0.101663
   118  O   -0.185106
   119  C   -0.133293
   120  C    0.263526
   121  O   -0.285029
   122  O   -0.350118
   123  C    0.138294
   124  H   -0.014467
   125  H    0.026608
   126  H   -0.019308
   127  H    0.037176
   128  H    0.028911
   129  H    0.042194
   130  H    0.037587
   131  H    0.042984
   132  H    0.031554
   133  H    0.058175
   134  H    0.053281
   135  H    0.056608
   136  H    0.054083
   137  H    0.028117
   138  H    0.054111
   139  H    0.074561
   140  H    0.050192
   141  H    0.047488
   142  H    0.043290
   143  H    0.027325
   144  H    0.021178
   145  H    0.043989
   146  H    0.041021
   147  H    0.036418
   148  H    0.043298
   149  H    0.035186
   150  H    0.044623
   151  H    0.027498
   152  H    0.034206
   153  H    0.066247
   154  H    0.064439
   155  H    0.073462
   156  H    0.048554
   157  H    0.075980
   158  H    0.049426
 Sum of Mulliken charges =  -0.00000

 Dipole moment (field-independent basis, Debye):
    X=             -0.9379    Y=              0.5095    Z=              2.7904  Tot=              2.9876
 Quadrupole moment (field-independent basis, Debye-Ang):
   XX=           -106.8692   YY=           -565.3436   ZZ=           -482.8618
   XY=           -219.0011   XZ=             28.1251   YZ=            -10.2574

 Normal termination of Gaussian 16 at Mon Sep 20 06:32:13 2021.
