 Gaussian 16, Revision A.03,
 Gaussian 16:  ES64L-G16RevA.03 25-Dec-2016

 --------------------------------
 #p wB97XD/Def2SVP td=(nstates=5)
 --------------------------------

 --------------------------------
 TDDFT excited states in gaussian
 --------------------------------
 Symbolic Z-matrix:
 Charge =  0 Multiplicity = 1

                         Standard orientation:
 ---------------------------------------------------------------------
 Center     Atomic      Atomic             Coordinates (Angstroms)
 Number     Number       Type             X           Y           Z
 ---------------------------------------------------------------------
      1         12           0      -27.990313   -0.073656   -0.314827
      2          6           0      -24.765402    0.807928    0.577524
      3          6           0      -27.415072   -3.272552    0.868356
      4          6           0      -31.314102   -0.633287   -0.499426
      5          6           0      -28.468879    3.320778   -1.143343
      6          7           0      -26.357899   -1.030982    0.883937
      7          6           0      -25.127144   -0.512683    0.921707
      8          6           0      -24.167816   -1.469642    1.694756
      9          6           0      -24.936777   -2.865156    1.534491
     10          6           0      -26.336820   -2.394183    0.983389
     11          6           0      -24.151500   -3.892060    0.683423
     12          6           0      -24.092867   -1.076926    3.152690
     13          6           0      -22.711157   -1.157231    3.782799
     14          1           0      -22.476074   -1.633310    5.265774
     15          7           0      -29.156439   -1.837878   -0.020845
     16          6           0      -28.787060   -3.009677    0.524322
     17          6           0      -29.926252   -3.868840    0.508771
     18          6           0      -31.046074   -3.183701   -0.052893
     19          6           0      -30.545668   -1.819192   -0.260627
     20          6           0      -29.817856   -5.310829    0.842289
     21          6           0      -32.417101   -3.754143   -0.138317
     22          8           0      -32.621374   -4.911214    0.189373
     23          6           0      -33.584140   -2.948237   -0.696097
     24          7           0      -29.700783    1.221468   -0.865684
     25          6           0      -30.958293    0.704998   -0.775224
     26          6           0      -31.982291    1.787461   -0.886163
     27          6           0      -31.039735    3.066688   -1.087481
     28          6           0      -29.621412    2.553137   -1.107605
     29          6           0      -33.044672    1.562422   -1.978318
     30          6           0      -31.246765    4.256099   -0.048548
     31          6           0      -31.475285    5.702994   -0.545429
     32          7           0      -26.896010    1.682227   -0.325337
     33          6           0      -27.194783    2.939242   -0.748299
     34          6           0      -26.023818    3.680063   -0.914309
     35          6           0      -24.987174    2.895235   -0.428682
     36          6           0      -25.575075    1.725824   -0.016094
     37          6           0      -25.974897    5.153939   -1.413392
     38          6           0      -23.620850    2.811035   -0.201682
     39          8           0      -22.778932    3.693950   -0.323291
     40          6           0      -23.323170    1.419640    0.539604
     41          6           0      -22.513131    0.561605   -0.247495
     42          8           0      -22.786472   -0.127909   -1.232864
     43          8           0      -21.244298    0.604548    0.322134
     44          6           0      -20.149420   -0.166881   -0.240886
     45          1           0      -27.196435   -4.318479    1.092472
     46          1           0      -32.400829   -0.663528   -0.606610
     47          1           0      -28.709195    4.321850   -1.507722
     48          1           0      -23.185513   -1.405280    1.227563
     49          1           0      -25.225320   -3.324210    2.479510
     50          1           0      -23.253874   -3.454148    0.247286
     51          1           0      -24.796522   -4.278880   -0.106155
     52          1           0      -23.914550   -4.737743    1.328594
     53          1           0      -24.773718   -1.572264    3.845218
     54          1           0      -24.513569   -0.071839    3.182357
     55          1           0      -22.243738   -0.185860    3.622271
     56          1           0      -22.216266   -1.857717    3.110137
     57          1           0      -29.745219   -5.777303   -0.139993
     58          1           0      -30.685487   -5.658581    1.403317
     59          1           0      -28.938217   -5.548476    1.440602
     60          1           0      -33.907044   -2.298422    0.117416
     61          1           0      -34.399920   -3.660593   -0.816753
     62          1           0      -33.287758   -2.410216   -1.596444
     63          1           0      -32.414192    1.738987    0.112921
     64          1           0      -31.264857    3.587530   -2.018168
     65          1           0      -33.960321    1.293298   -1.450727
     66          1           0      -32.755440    0.799938   -2.702288
     67          1           0      -33.239355    2.504118   -2.490975
     68          1           0      -30.365868    4.305377    0.591362
     69          1           0      -32.121010    4.115495    0.587464
     70          1           0      -30.440386    6.042251   -0.588115
     71          1           0      -32.003361    6.283955    0.209583
     72          1           0      -31.802207    5.886189   -1.568897
     73          1           0      -26.331211    5.800164   -0.612203
     74          1           0      -26.630815    5.400108   -2.248647
     75          1           0      -24.954848    5.446255   -1.664231
     76          1           0      -22.893196    1.686718    1.505072
     77          1           0      -19.235113    0.393842   -0.049097
     78          1           0      -20.278247   -0.465691   -1.281523
     79          1           0      -20.036153   -1.064458    0.367248
     80         12           0       27.923620    0.493340   -0.314602
     81          6           0       25.732523   -2.261789   -0.272217
     82          6           0       25.163748    2.458746    0.469043
     83          6           0       29.949091    3.102172    0.113218
     84          6           0       30.568218   -1.749277   -0.172611
     85          7           0       25.723277    0.043568    0.210324
     86          6           0       24.992128   -1.117073    0.048383
     87          6           0       23.489217   -0.937169    0.004497
     88          6           0       23.308389    0.584470    0.219326
     89          6           0       24.784053    1.091263    0.325657
     90          6           0       22.491198    1.312508   -0.923791
     91          6           0       22.641779   -1.766449    1.069525
     92          6           0       23.287418   -2.059871    2.433584
     93          1           0       22.817946   -1.232233    3.666543
     94          7           0       27.600696    2.458307    0.197573
     95          6           0       26.407704    3.085434    0.419407
     96          6           0       26.626861    4.526238    0.609230
     97          6           0       28.035575    4.738848    0.504196
     98          6           0       28.595209    3.372687    0.267606
     99          6           0       25.502066    5.527568    0.843629
    100          6           0       28.614682    6.179770    0.762071
    101          8           0       27.831097    7.063360    1.080370
    102          6           0       30.179058    6.436025    0.697986
    103          7           0       29.917658    0.626967    0.054637
    104          6           0       30.586837    1.848616    0.039961
    105          6           0       32.202167    1.620398    0.072455
    106          6           0       32.266906   -0.000759    0.134792
    107          6           0       30.829023   -0.382739   -0.010519
    108          6           0       32.920483    2.237217   -1.163713
    109          6           0       32.902006   -0.604149    1.460240
    110          6           0       34.032118   -1.638286    1.340184
    111          7           0       28.168370   -1.603596   -0.359999
    112          6           0       29.281531   -2.401069   -0.285437
    113          6           0       28.848416   -3.814228   -0.303966
    114          6           0       27.433180   -3.768088   -0.419736
    115          6           0       27.094097   -2.386353   -0.397969
    116          6           0       29.710314   -5.041989   -0.201187
    117          6           0       26.240106   -4.635123   -0.445474
    118          8           0       26.092575   -5.862586   -0.537284
    119          6           0       25.090769   -3.643991   -0.552634
    120          6           0       24.377963   -3.751613   -1.780856
    121          8           0       24.812812   -3.251588   -2.850523
    122          8           0       23.157622   -4.435412   -1.611932
    123          6           0       22.233338   -4.488507   -2.740052
    124          1           0       24.319027    3.146222    0.544058
    125          1           0       30.632646    3.952954    0.090056
    126          1           0       31.455688   -2.384726   -0.185476
    127          1           0       23.242663   -1.266280   -1.004247
    128          1           0       22.917082    0.690590    1.230469
    129          1           0       21.527470    1.635903   -0.530512
    130          1           0       22.365912    0.575022   -1.717036
    131          1           0       23.016423    2.196053   -1.288061
    132          1           0       22.530254   -2.719381    0.550687
    133          1           0       21.660026   -1.305365    1.179928
    134          1           0       24.371660   -1.959155    2.374587
    135          1           0       23.146988   -3.117584    2.652402
    136          1           0       25.395042    5.861246    1.875789
    137          1           0       24.582585    5.205880    0.354416
    138          1           0       25.666404    6.435010    0.262823
    139          1           0       30.536018    5.972272   -0.221899
    140          1           0       30.620058    5.972580    1.580103
    141          1           0       30.466208    7.472471    0.875258
    142          1           0       32.566270    2.199343    0.920667
    143          1           0       32.797676   -0.329959   -0.758810
    144          1           0       33.029342    1.445875   -1.905059
    145          1           0       33.857137    2.731690   -0.906011
    146          1           0       32.383360    3.066919   -1.622976
    147          1           0       32.073136   -0.999511    2.048282
    148          1           0       33.310374    0.292186    1.927042
    149          1           0       34.147586   -2.226612    2.250896
    150          1           0       34.903193   -1.007002    1.166108
    151          1           0       33.735812   -2.257480    0.493223
    152          1           0       30.590300   -4.700538    0.343248
    153          1           0       29.991480   -5.213261   -1.240263
    154          1           0       29.209526   -5.932954    0.178761
    155          1           0       24.474872   -3.939906    0.296318
    156          1           0       22.554917   -5.035073   -3.626631
    157          1           0       21.970267   -3.477627   -3.052905
    158          1           0       21.280152   -4.832448   -2.338168
 ---------------------------------------------------------------------

 SCF Done:  E(RwB97XD) =  -4070.58022429     A.U. after   20 cycles

 Excitation energies and oscillator strengths:

 Excited State   1:      Singlet-A      1.6375 eV  757.14 nm  f=0.3972  <S**2>=0.000
     309 -> 315       -0.19101
     311 -> 313        0.68254
     309 <- 315       -0.11968
 This state for optimization and/or second-order correction.
 Total Energy, E(TD-HF/TD-DFT) =  -4070.52004611
 Copying the excited state density for this state as the 1-particle RhoCI density.

 Excited State   2:      Singlet-A      1.6636 eV  745.26 nm  f=0.3775  <S**2>=0.000
     310 -> 316        0.18688
     312 -> 314        0.68287
     310 <- 316        0.11707

 Excited State   3:      Singlet-A      2.1722 eV  570.77 nm  f=0.0974  <S**2>=0.000
     309 -> 313        0.63454
     311 -> 315        0.29670

 Excited State   4:      Singlet-A      2.2612 eV  548.31 nm  f=0.0696  <S**2>=0.000
     310 -> 314        0.61506
     312 -> 316       -0.33672

 Excited State   5:      Singlet-A      3.2598 eV  380.35 nm  f=0.0048  <S**2>=0.000
     308 -> 313        0.67172
     311 -> 315       -0.12896

 The electronic state is 1-A.
 Alpha  occ. eigenvalues --  -46.96042 -46.95282 -19.31027 -19.29894 -19.25204
 Alpha  occ. eigenvalues --  -19.25146 -19.24647 -19.24334 -19.24262 -19.23381
 Alpha  occ. eigenvalues --  -14.47299 -14.46939 -14.46663 -14.46623 -14.44563
 Alpha  occ. eigenvalues --  -14.44432 -14.43898 -14.43827 -10.43894 -10.43465
 Alpha  occ. eigenvalues --  -10.40511 -10.39389 -10.39266 -10.38587 -10.35977
 Alpha  occ. eigenvalues --  -10.35849 -10.35580 -10.35453 -10.35426 -10.35401
 Alpha  occ. eigenvalues --  -10.35325 -10.35164 -10.35010 -10.34901 -10.34623
 Alpha  occ. eigenvalues --  -10.34587 -10.34108 -10.33901 -10.33818 -10.33445
 Alpha  occ. eigenvalues --  -10.33368 -10.32973 -10.32816 -10.32772 -10.32564
 Alpha  occ. eigenvalues --  -10.32522 -10.32502 -10.32488 -10.32403 -10.32362
 Alpha  occ. eigenvalues --  -10.32360 -10.32352 -10.32266 -10.32255 -10.32240
 Alpha  occ. eigenvalues --  -10.32133 -10.31929 -10.31922 -10.31902 -10.31889
 Alpha  occ. eigenvalues --  -10.31808 -10.31618 -10.31445 -10.31362 -10.31256
 Alpha  occ. eigenvalues --  -10.31087 -10.31027 -10.30759 -10.30750 -10.30741
 Alpha  occ. eigenvalues --  -10.30718 -10.30683 -10.30669 -10.30490 -10.30454
 Alpha  occ. eigenvalues --  -10.30445 -10.29998 -10.29919 -10.29864 -10.29736
 Alpha  occ. eigenvalues --  -10.29711 -10.29704 -10.29423 -10.29231 -10.28879
 Alpha  occ. eigenvalues --  -10.28838  -3.21832  -3.21349  -1.95429  -1.94944
 Alpha  occ. eigenvalues --   -1.94895  -1.94789  -1.94486  -1.94325  -1.17921
 Alpha  occ. eigenvalues --   -1.17146  -1.12647  -1.12297  -1.12206  -1.11296
 Alpha  occ. eigenvalues --   -1.09726  -1.09221  -1.07575  -1.06155  -1.06101
 Alpha  occ. eigenvalues --   -1.05884  -1.05599  -1.04680  -1.04610  -1.03906
 Alpha  occ. eigenvalues --   -0.95915  -0.95134  -0.91420  -0.91061  -0.91019
 Alpha  occ. eigenvalues --   -0.90718  -0.90276  -0.89957  -0.89847  -0.88862
 Alpha  occ. eigenvalues --   -0.88728  -0.88185  -0.88017  -0.87541  -0.87384
 Alpha  occ. eigenvalues --   -0.86545  -0.86463  -0.85787  -0.84962  -0.84690
 Alpha  occ. eigenvalues --   -0.84175  -0.83576  -0.83467  -0.82956  -0.82760
 Alpha  occ. eigenvalues --   -0.82049  -0.80147  -0.80098  -0.79568  -0.79160
 Alpha  occ. eigenvalues --   -0.78700  -0.78518  -0.78449  -0.78438  -0.77140
 Alpha  occ. eigenvalues --   -0.76864  -0.75515  -0.74398  -0.74324  -0.73731
 Alpha  occ. eigenvalues --   -0.71851  -0.71238  -0.71214  -0.70874  -0.70371
 Alpha  occ. eigenvalues --   -0.70108  -0.69368  -0.68828  -0.68109  -0.67859
 Alpha  occ. eigenvalues --   -0.67695  -0.67504  -0.67191  -0.66879  -0.66585
 Alpha  occ. eigenvalues --   -0.66189  -0.64723  -0.64437  -0.62499  -0.62243
 Alpha  occ. eigenvalues --   -0.61937  -0.61602  -0.61111  -0.61077  -0.61031
 Alpha  occ. eigenvalues --   -0.60648  -0.60182  -0.60018  -0.59723  -0.59203
 Alpha  occ. eigenvalues --   -0.58349  -0.58119  -0.58113  -0.57535  -0.57476
 Alpha  occ. eigenvalues --   -0.56883  -0.56802  -0.56367  -0.56330  -0.56153
 Alpha  occ. eigenvalues --   -0.55717  -0.55527  -0.55346  -0.54990  -0.54603
 Alpha  occ. eigenvalues --   -0.54501  -0.54303  -0.54269  -0.54063  -0.54058
 Alpha  occ. eigenvalues --   -0.54018  -0.53822  -0.53486  -0.53458  -0.53231
 Alpha  occ. eigenvalues --   -0.53157  -0.52886  -0.52657  -0.52311  -0.52239
 Alpha  occ. eigenvalues --   -0.52095  -0.51947  -0.51942  -0.51534  -0.51434
 Alpha  occ. eigenvalues --   -0.51321  -0.51255  -0.51185  -0.50990  -0.50936
 Alpha  occ. eigenvalues --   -0.50906  -0.50479  -0.50344  -0.50266  -0.50215
 Alpha  occ. eigenvalues --   -0.50076  -0.49449  -0.49272  -0.49193  -0.48849
 Alpha  occ. eigenvalues --   -0.48720  -0.48661  -0.48552  -0.48546  -0.48380
 Alpha  occ. eigenvalues --   -0.48169  -0.48091  -0.48083  -0.47909  -0.47770
 Alpha  occ. eigenvalues --   -0.47682  -0.47435  -0.47297  -0.47272  -0.47104
 Alpha  occ. eigenvalues --   -0.46898  -0.46725  -0.46675  -0.46573  -0.46501
 Alpha  occ. eigenvalues --   -0.46467  -0.46122  -0.45872  -0.45848  -0.45570
 Alpha  occ. eigenvalues --   -0.45389  -0.45157  -0.45097  -0.45016  -0.44884
 Alpha  occ. eigenvalues --   -0.44842  -0.44649  -0.44355  -0.44178  -0.44157
 Alpha  occ. eigenvalues --   -0.44050  -0.44019  -0.43869  -0.43814  -0.43549
 Alpha  occ. eigenvalues --   -0.43341  -0.42960  -0.42931  -0.42489  -0.42215
 Alpha  occ. eigenvalues --   -0.42147  -0.41764  -0.41642  -0.41600  -0.40844
 Alpha  occ. eigenvalues --   -0.40310  -0.40158  -0.39920  -0.39601  -0.39462
 Alpha  occ. eigenvalues --   -0.39421  -0.39254  -0.39157  -0.38988  -0.38641
 Alpha  occ. eigenvalues --   -0.38294  -0.37598  -0.36846  -0.36742  -0.36510
 Alpha  occ. eigenvalues --   -0.36313  -0.35777  -0.35475  -0.34048  -0.33538
 Alpha  occ. eigenvalues --   -0.33283  -0.33237  -0.33019  -0.32688  -0.32637
 Alpha  occ. eigenvalues --   -0.32445  -0.31766  -0.31659  -0.26495  -0.26070
 Alpha  occ. eigenvalues --   -0.23362  -0.22638
 Alpha virt. eigenvalues --   -0.07563  -0.06508  -0.00389   0.00112   0.01881
 Alpha virt. eigenvalues --    0.02341   0.04104   0.04433   0.04923   0.05578
 Alpha virt. eigenvalues --    0.05665   0.06211   0.07172   0.07491   0.07805

 Mulliken charges:
               1
     1  Mg   0.939056
     2  C   -0.063438
     3  C   -0.088035
     4  C   -0.039738
     5  C   -0.124293
     6  N   -0.332163
     7  C    0.012857
     8  C   -0.124630
     9  C   -0.103017
    10  C    0.083808
    11  C    0.035835
    12  C    0.029655
    13  C   -0.116597
    14  H    0.044727
    15  N   -0.455779
    16  C    0.158219
    17  C   -0.182170
    18  C   -0.057361
    19  C    0.198497
    20  C    0.076309
    21  C    0.004730
    22  O   -0.236043
    23  C    0.002954
    24  N   -0.353956
    25  C   -0.009618
    26  C   -0.086563
    27  C   -0.051315
    28  C    0.062292
    29  C    0.022928
    30  C   -0.053245
    31  C   -0.067793
    32  N   -0.434105
    33  C    0.194407
    34  C   -0.187384
    35  C    0.053590
    36  C    0.162318
    37  C    0.075223
    38  C    0.056232
    39  O   -0.207022
    40  C   -0.077563
    41  C    0.295475
    42  O   -0.257347
    43  O   -0.388886
    44  C    0.139768
    45  H   -0.000106
    46  H   -0.030074
    47  H   -0.003580
    48  H    0.037110
    49  H    0.045723
    50  H    0.048942
    51  H    0.034010
    52  H    0.036037
    53  H    0.037204
    54  H    0.027170
    55  H    0.055793
    56  H    0.044472
    57  H    0.060686
    58  H    0.065543
    59  H    0.024401
    60  H    0.059346
    61  H    0.051996
    62  H    0.063620
    63  H    0.053043
    64  H    0.024106
    65  H    0.042381
    66  H    0.053165
    67  H    0.040440
    68  H    0.043618
    69  H    0.030922
    70  H    0.022325
    71  H    0.048000
    72  H    0.040152
    73  H    0.047477
    74  H    0.037835
    75  H    0.062235
    76  H    0.083027
    77  H    0.056857
    78  H    0.068863
    79  H    0.036439
    80  Mg   0.986810
    81  C   -0.108841
    82  C   -0.085568
    83  C   -0.110597
    84  C   -0.095956
    85  N   -0.341940
    86  C   -0.038406
    87  C   -0.062301
    88  C   -0.058586
    89  C    0.026570
    90  C    0.027367
    91  C   -0.015199
    92  C   -0.118695
    93  H    0.036880
    94  N   -0.448365
    95  C    0.153423
    96  C   -0.157768
    97  C   -0.113630
    98  C    0.206761
    99  C    0.095390
   100  C    0.069653
   101  O   -0.226523
   102  C   -0.026126
   103  N   -0.421934
   104  C    0.079356
   105  C   -0.103139
   106  C   -0.075647
   107  C    0.085739
   108  C    0.009854
   109  C   -0.024317
   110  C   -0.038134
   111  N   -0.406345
   112  C    0.119639
   113  C   -0.211601
   114  C   -0.096352
   115  C    0.263405
   116  C    0.092508
   117  C    0.145456
   118  O   -0.217860
   119  C   -0.059240
   120  C    0.315701
   121  O   -0.277612
   122  O   -0.382209
   123  C    0.152241
   124  H   -0.009130
   125  H   -0.035059
   126  H   -0.015912
   127  H    0.049477
   128  H    0.045657
   129  H    0.043704
   130  H    0.040418
   131  H    0.046400
   132  H    0.038365
   133  H    0.048330
   134  H    0.063097
   135  H    0.056407
   136  H    0.065390
   137  H    0.023043
   138  H    0.044096
   139  H    0.073633
   140  H    0.060918
   141  H    0.052778
   142  H    0.044433
   143  H    0.036127
   144  H    0.037586
   145  H    0.038512
   146  H    0.031781
   147  H    0.048518
   148  H    0.025116
   149  H    0.051615
   150  H    0.041619
   151  H    0.037717
   152  H    0.034750
   153  H    0.054940
   154  H    0.066672
   155  H    0.059770
   156  H    0.069372
   157  H    0.033789
   158  H    0.052210
 Sum of Mulliken charges =  -0.00000

 Dipole moment (field-independent basis, Debye):
    X=             -0.7275    Y=              3.5177    Z=             -0.4003  Tot=              3.6143
 Quadrupole moment (field-independent basis, Debye-Ang):
   XX=           -277.5300   YY=           -561.6779   ZZ=           -516.2651
   XY=            -17.7704   XZ=             -1.2121   YZ=            -12.2100

 Normal termination of Gaussian 16 at Sun Sep 19 04:04:01 2021.
