 Gaussian 16, Revision A.03,
 Gaussian 16:  ES64L-G16RevA.03 25-Dec-2016

 --------------------------------
 #p wB97XD/Def2SVP td=(nstates=5)
 --------------------------------

 --------------------------------
 TDDFT excited states in gaussian
 --------------------------------
 Symbolic Z-matrix:
 Charge =  0 Multiplicity = 1

                         Standard orientation:
 ---------------------------------------------------------------------
 Center     Atomic      Atomic             Coordinates (Angstroms)
 Number     Number       Type             X           Y           Z
 ---------------------------------------------------------------------
      1         12           0      -24.801343   -0.611815   -0.347128
      2          6           0      -25.561062    2.400573    1.210337
      3          6           0      -25.118914    0.880358   -3.350805
      4          6           0      -24.841549   -3.654744   -1.822966
      5          6           0      -25.306377   -2.251242    2.753029
      6          7           0      -25.195126    1.408477   -0.888204
      7          6           0      -25.331336    2.561620   -0.146426
      8          6           0      -25.552277    3.784986   -1.078119
      9          6           0      -25.936667    3.081649   -2.416303
     10          6           0      -25.279213    1.718438   -2.258969
     11          6           0      -27.479509    2.925091   -2.656571
     12          6           0      -24.311622    4.690237   -0.969069
     13          6           0      -24.618283    6.137667   -0.896540
     14          1           0      -23.549076    6.967813   -0.345388
     15          7           0      -24.734662   -1.239495   -2.309722
     16          6           0      -24.816227   -0.442868   -3.406636
     17          6           0      -24.404375   -1.208052   -4.556570
     18          6           0      -24.316828   -2.571093   -4.095495
     19          6           0      -24.724502   -2.542345   -2.687785
     20          6           0      -24.269744   -0.636583   -5.922481
     21          6           0      -24.045963   -3.904449   -4.865770
     22          8           0      -23.996583   -5.001768   -4.306362
     23          6           0      -23.685392   -3.902198   -6.325069
     24          7           0      -25.389591   -2.651026    0.366350
     25          6           0      -25.169427   -3.772151   -0.479579
     26          6           0      -25.253675   -5.080632    0.234272
     27          6           0      -25.179101   -4.544876    1.701017
     28          6           0      -25.229317   -3.022228    1.606386
     29          6           0      -26.533680   -5.917114   -0.105038
     30          6           0      -23.878173   -4.989985    2.463912
     31          6           0      -22.541103   -4.712695    1.730612
     32          7           0      -25.218385   -0.074782    1.614748
     33          6           0      -25.344399   -0.843958    2.781883
     34          6           0      -25.600177    0.063539    3.836991
     35          6           0      -25.660648    1.325597    3.259248
     36          6           0      -25.437080    1.178676    1.929979
     37          6           0      -25.718398   -0.298017    5.283350
     38          6           0      -25.938050    2.656265    3.537584
     39          8           0      -26.233138    3.192815    4.621042
     40          6           0      -25.888302    3.504032    2.230818
     41          6           0      -24.758544    4.542122    2.516447
     42          8           0      -23.546519    4.280718    2.616236
     43          8           0      -25.348318    5.795236    2.642356
     44          6           0      -24.515091    6.923383    3.167303
     45          1           0      -25.341148    1.450964   -4.255033
     46          1           0      -24.733358   -4.706236   -2.099626
     47          1           0      -25.262759   -2.675575    3.758319
     48          1           0      -26.353816    4.414092   -0.692463
     49          1           0      -25.444881    3.594558   -3.242314
     50          1           0      -28.131101    3.386996   -1.914285
     51          1           0      -27.772806    1.878357   -2.587345
     52          1           0      -27.735484    3.404601   -3.601149
     53          1           0      -23.780198    4.569761   -1.912053
     54          1           0      -23.731706    4.352998   -0.109534
     55          1           0      -25.458526    6.224416   -0.207455
     56          1           0      -24.963097    6.467042   -1.876504
     57          1           0      -24.175498    0.448774   -5.893194
     58          1           0      -25.043658   -1.076733   -6.552210
     59          1           0      -23.326481   -0.967308   -6.357335
     60          1           0      -23.985708   -4.888968   -6.678215
     61          1           0      -22.606972   -3.813348   -6.458282
     62          1           0      -24.243815   -3.150699   -6.884067
     63          1           0      -24.394386   -5.731618    0.067221
     64          1           0      -26.055552   -4.897029    2.245960
     65          1           0      -27.294769   -5.249259   -0.509442
     66          1           0      -27.004592   -6.450764    0.720680
     67          1           0      -26.405787   -6.705351   -0.847504
     68          1           0      -24.027621   -6.040275    2.714807
     69          1           0      -23.953195   -4.461449    3.414180
     70          1           0      -21.875733   -4.064571    2.301330
     71          1           0      -22.799383   -4.261870    0.772006
     72          1           0      -21.976351   -5.622232    1.528120
     73          1           0      -26.691041    0.076870    5.601857
     74          1           0      -24.878035    0.156645    5.807898
     75          1           0      -25.742317   -1.366260    5.499075
     76          1           0      -26.836342    4.032329    2.133259
     77          1           0      -24.193851    6.621682    4.163982
     78          1           0      -24.984847    7.903066    3.254225
     79          1           0      -23.734814    6.872117    2.407883
     80         12           0       24.636805   -0.635623    0.341924
     81          6           0       25.602846    1.977213   -1.734069
     82          6           0       23.051915    1.762278    2.283024
     83          6           0       24.114935   -3.080154    2.648037
     84          6           0       26.426646   -2.831986   -1.640083
     85          7           0       24.410938    1.621952    0.302435
     86          6           0       24.861083    2.501472   -0.670411
     87          6           0       24.557315    4.017519   -0.349167
     88          6           0       24.016877    3.875773    1.126473
     89          6           0       23.840319    2.320948    1.288313
     90          6           0       24.817156    4.413583    2.316354
     91          6           0       23.581051    4.612613   -1.380380
     92          6           0       24.147674    5.587158   -2.379060
     93          1           0       23.249939    6.771721   -2.778367
     94          7           0       23.559649   -0.745806    2.110037
     95          6           0       22.943589    0.338007    2.653634
     96          6           0       22.322005   -0.148253    3.900862
     97          6           0       22.683609   -1.490950    4.092163
     98          6           0       23.454386   -1.852011    2.966384
     99          6           0       21.385952    0.699721    4.662526
    100          6           0       22.391425   -2.418145    5.235350
    101          8           0       22.686817   -3.645464    5.228748
    102          6           0       21.781240   -2.006268    6.460297
    103          7           0       25.106413   -2.631465    0.446496
    104          6           0       24.764200   -3.450448    1.478340
    105          6           0       25.244235   -4.839001    1.316659
    106          6           0       25.941806   -4.800152   -0.090363
    107          6           0       25.871297   -3.353100   -0.404821
    108          6           0       26.141246   -5.559812    2.365627
    109          6           0       25.339398   -5.809673   -1.187820
    110          6           0       24.103893   -5.466040   -2.071890
    111          7           0       25.819576   -0.527057   -1.310212
    112          6           0       26.450853   -1.500098   -2.030224
    113          6           0       26.944630   -0.970930   -3.225788
    114          6           0       26.690728    0.447339   -3.081481
    115          6           0       25.981730    0.645205   -1.913423
    116          6           0       27.584293   -1.720475   -4.393027
    117          6           0       26.788886    1.679481   -3.809959
    118          8           0       27.158709    1.983359   -4.925860
    119          6           0       26.271821    2.780693   -2.819201
    120          6           0       27.408202    3.579952   -2.319717
    121          8           0       27.840526    3.605125   -1.146382
    122          8           0       28.027528    4.323156   -3.262663
    123          6           0       29.037526    5.356609   -2.850141
    124          1           0       22.610440    2.528608    2.922570
    125          1           0       24.012629   -3.898005    3.364614
    126          1           0       26.861632   -3.484039   -2.401048
    127          1           0       25.466377    4.583939   -0.144291
    128          1           0       23.029247    4.336779    1.118349
    129          1           0       25.205890    3.587409    2.912161
    130          1           0       24.089104    4.864470    2.989088
    131          1           0       25.626680    5.100527    2.067207
    132          1           0       22.859050    5.178325   -0.790330
    133          1           0       23.040941    3.790186   -1.849416
    134          1           0       24.374000    5.027710   -3.287129
    135          1           0       25.106844    6.030857   -2.111816
    136          1           0       20.436977    0.166237    4.626757
    137          1           0       21.219135    1.732481    4.353740
    138          1           0       21.708296    0.754815    5.702282
    139          1           0       22.281704   -1.076458    6.729370
    140          1           0       21.744728   -2.830580    7.171362
    141          1           0       20.755738   -1.675134    6.296401
    142          1           0       24.281863   -5.347649    1.268018
    143          1           0       27.001259   -5.024534    0.027651
    144          1           0       25.627367   -6.397527    2.837158
    145          1           0       26.413324   -4.887346    3.179882
    146          1           0       27.096278   -5.895377    1.961547
    147          1           0       25.031410   -6.653810   -0.570462
    148          1           0       26.242034   -6.050321   -1.749660
    149          1           0       23.761629   -4.433020   -2.015689
    150          1           0       23.268734   -6.165177   -2.020645
    151          1           0       24.460016   -5.652365   -3.084233
    152          1           0       28.580975   -1.342288   -4.622807
    153          1           0       26.980117   -1.522996   -5.278358
    154          1           0       27.594899   -2.805300   -4.284228
    155          1           0       25.707637    3.504867   -3.407133
    156          1           0       29.066876    5.893632   -3.798320
    157          1           0       30.007034    4.961151   -2.548996
    158          1           0       28.639951    5.950492   -2.026552
 ---------------------------------------------------------------------

 SCF Done:  E(RwB97XD) =  -4070.61962958     A.U. after   19 cycles

 Excitation energies and oscillator strengths:

 Excited State   1:      Singlet-A      1.6039 eV  773.04 nm  f=0.3734  <S**2>=0.000
     309 -> 315       -0.16816
     311 -> 313        0.68667
     309 <- 315       -0.11353
 This state for optimization and/or second-order correction.
 Total Energy, E(TD-HF/TD-DFT) =  -4070.56068902
 Copying the excited state density for this state as the 1-particle RhoCI density.

 Excited State   2:      Singlet-A      1.6445 eV  753.94 nm  f=0.3891  <S**2>=0.000
     310 -> 316        0.18304
     312 -> 314        0.68258
     310 <- 316        0.11719

 Excited State   3:      Singlet-A      2.1515 eV  576.26 nm  f=0.1356  <S**2>=0.000
     310 -> 314        0.64863
     312 -> 316       -0.26453

 Excited State   4:      Singlet-A      2.1619 eV  573.49 nm  f=0.1265  <S**2>=0.000
     309 -> 313        0.64150
     311 -> 315        0.27556

 Excited State   5:      Singlet-A      3.2510 eV  381.37 nm  f=0.0002  <S**2>=0.000
     304 -> 313       -0.18445
     304 -> 317        0.10965
     304 -> 319        0.12679
     306 -> 313        0.55418
     307 -> 313       -0.31516

 The electronic state is 1-A.
 Alpha  occ. eigenvalues --  -46.94679 -46.93878 -19.30000 -19.29262 -19.24994
 Alpha  occ. eigenvalues --  -19.23748 -19.23273 -19.23192 -19.22997 -19.22765
 Alpha  occ. eigenvalues --  -14.46608 -14.46569 -14.46450 -14.46084 -14.44152
 Alpha  occ. eigenvalues --  -14.43930 -14.43121 -14.42950 -10.43953 -10.42357
 Alpha  occ. eigenvalues --  -10.39246 -10.38468 -10.38186 -10.37681 -10.35750
 Alpha  occ. eigenvalues --  -10.35740 -10.35023 -10.35003 -10.34794 -10.34669
 Alpha  occ. eigenvalues --  -10.34567 -10.34488 -10.34347 -10.34242 -10.34226
 Alpha  occ. eigenvalues --  -10.34133 -10.34083 -10.33379 -10.33172 -10.32878
 Alpha  occ. eigenvalues --  -10.32536 -10.32511 -10.32415 -10.32352 -10.32349
 Alpha  occ. eigenvalues --  -10.32271 -10.32222 -10.32218 -10.31984 -10.31884
 Alpha  occ. eigenvalues --  -10.31863 -10.31830 -10.31812 -10.31709 -10.31614
 Alpha  occ. eigenvalues --  -10.31600 -10.31419 -10.31353 -10.31326 -10.31258
 Alpha  occ. eigenvalues --  -10.31122 -10.31089 -10.31066 -10.30922 -10.30836
 Alpha  occ. eigenvalues --  -10.30814 -10.30797 -10.30797 -10.30774 -10.30538
 Alpha  occ. eigenvalues --  -10.30340 -10.30255 -10.30194 -10.29973 -10.29958
 Alpha  occ. eigenvalues --  -10.29850 -10.29792 -10.29780 -10.29698 -10.29681
 Alpha  occ. eigenvalues --  -10.29648 -10.29534 -10.29512 -10.29410 -10.28655
 Alpha  occ. eigenvalues --  -10.27827  -3.20708  -3.20006  -1.94276  -1.93836
 Alpha  occ. eigenvalues --   -1.93681  -1.93611  -1.93139  -1.92986  -1.17286
 Alpha  occ. eigenvalues --   -1.16609  -1.11760  -1.11671  -1.10202  -1.10147
 Alpha  occ. eigenvalues --   -1.08878  -1.07256  -1.06880  -1.06870  -1.06115
 Alpha  occ. eigenvalues --   -1.05933  -1.05532  -1.05251  -1.04282  -1.04244
 Alpha  occ. eigenvalues --   -0.95068  -0.94557  -0.91026  -0.90926  -0.90886
 Alpha  occ. eigenvalues --   -0.90464  -0.90332  -0.90202  -0.89716  -0.89535
 Alpha  occ. eigenvalues --   -0.89085  -0.88929  -0.88482  -0.88045  -0.86499
 Alpha  occ. eigenvalues --   -0.86279  -0.85562  -0.85453  -0.84730  -0.84342
 Alpha  occ. eigenvalues --   -0.84065  -0.83527  -0.82947  -0.82925  -0.82494
 Alpha  occ. eigenvalues --   -0.82357  -0.80522  -0.80160  -0.79421  -0.78995
 Alpha  occ. eigenvalues --   -0.78868  -0.78774  -0.78130  -0.77968  -0.77400
 Alpha  occ. eigenvalues --   -0.77231  -0.75250  -0.75088  -0.74010  -0.73314
 Alpha  occ. eigenvalues --   -0.72022  -0.71714  -0.70758  -0.70723  -0.69965
 Alpha  occ. eigenvalues --   -0.69527  -0.69103  -0.68495  -0.67336  -0.67133
 Alpha  occ. eigenvalues --   -0.67018  -0.66622  -0.66598  -0.66461  -0.66367
 Alpha  occ. eigenvalues --   -0.66050  -0.63605  -0.63473  -0.61955  -0.61882
 Alpha  occ. eigenvalues --   -0.61766  -0.61606  -0.61143  -0.61142  -0.60587
 Alpha  occ. eigenvalues --   -0.60443  -0.59723  -0.59569  -0.59288  -0.58971
 Alpha  occ. eigenvalues --   -0.58150  -0.57953  -0.57572  -0.57555  -0.57275
 Alpha  occ. eigenvalues --   -0.56979  -0.56871  -0.56734  -0.56343  -0.55770
 Alpha  occ. eigenvalues --   -0.55449  -0.55187  -0.54973  -0.54903  -0.54838
 Alpha  occ. eigenvalues --   -0.54776  -0.54450  -0.54388  -0.54376  -0.53961
 Alpha  occ. eigenvalues --   -0.53863  -0.53807  -0.53642  -0.53403  -0.53004
 Alpha  occ. eigenvalues --   -0.52793  -0.52427  -0.52291  -0.52283  -0.52090
 Alpha  occ. eigenvalues --   -0.51714  -0.51567  -0.51566  -0.51365  -0.51344
 Alpha  occ. eigenvalues --   -0.51103  -0.50908  -0.50826  -0.50715  -0.50694
 Alpha  occ. eigenvalues --   -0.50458  -0.50357  -0.50091  -0.50035  -0.49912
 Alpha  occ. eigenvalues --   -0.49832  -0.49704  -0.49645  -0.49330  -0.49171
 Alpha  occ. eigenvalues --   -0.49010  -0.48694  -0.48525  -0.48458  -0.48213
 Alpha  occ. eigenvalues --   -0.48160  -0.47919  -0.47898  -0.47652  -0.47607
 Alpha  occ. eigenvalues --   -0.47400  -0.47304  -0.47182  -0.47087  -0.46700
 Alpha  occ. eigenvalues --   -0.46553  -0.46413  -0.46173  -0.46084  -0.45896
 Alpha  occ. eigenvalues --   -0.45819  -0.45697  -0.45691  -0.45388  -0.45384
 Alpha  occ. eigenvalues --   -0.45349  -0.45125  -0.45009  -0.44836  -0.44689
 Alpha  occ. eigenvalues --   -0.44606  -0.44394  -0.44309  -0.43866  -0.43761
 Alpha  occ. eigenvalues --   -0.43519  -0.43517  -0.43410  -0.43064  -0.43032
 Alpha  occ. eigenvalues --   -0.42816  -0.42688  -0.42615  -0.42235  -0.42163
 Alpha  occ. eigenvalues --   -0.42007  -0.41872  -0.41591  -0.41063  -0.40827
 Alpha  occ. eigenvalues --   -0.40189  -0.40133  -0.39976  -0.39808  -0.39294
 Alpha  occ. eigenvalues --   -0.38896  -0.38846  -0.38548  -0.38539  -0.38388
 Alpha  occ. eigenvalues --   -0.38092  -0.37606  -0.36304  -0.36174  -0.36111
 Alpha  occ. eigenvalues --   -0.35477  -0.35448  -0.34756  -0.33545  -0.33213
 Alpha  occ. eigenvalues --   -0.32743  -0.32545  -0.32157  -0.32056  -0.31927
 Alpha  occ. eigenvalues --   -0.31922  -0.31545  -0.31487  -0.26166  -0.25553
 Alpha  occ. eigenvalues --   -0.23007  -0.22915
 Alpha virt. eigenvalues --   -0.07362  -0.07045   0.00425   0.00611   0.02598
 Alpha virt. eigenvalues --    0.02752   0.04457   0.04461   0.05392   0.06632
 Alpha virt. eigenvalues --    0.07126   0.07419   0.07491   0.08087   0.08419

 Mulliken charges:
               1
     1  Mg   0.955754
     2  C   -0.066595
     3  C   -0.119075
     4  C   -0.020986
     5  C   -0.102737
     6  N   -0.406600
     7  C    0.019942
     8  C   -0.101629
     9  C   -0.087834
    10  C    0.033937
    11  C    0.034858
    12  C    0.039890
    13  C   -0.123639
    14  H    0.052808
    15  N   -0.463920
    16  C    0.229642
    17  C   -0.175537
    18  C   -0.078393
    19  C    0.188297
    20  C    0.069110
    21  C    0.055838
    22  O   -0.248580
    23  C   -0.006146
    24  N   -0.316701
    25  C   -0.057282
    26  C   -0.058201
    27  C   -0.099771
    28  C    0.111963
    29  C    0.018227
    30  C   -0.021876
    31  C   -0.053885
    32  N   -0.434900
    33  C    0.116904
    34  C   -0.197919
    35  C    0.054000
    36  C    0.194147
    37  C    0.092951
    38  C    0.016699
    39  O   -0.242779
    40  C   -0.028774
    41  C    0.287539
    42  O   -0.268770
    43  O   -0.389758
    44  C    0.142339
    45  H   -0.000951
    46  H    0.018656
    47  H    0.002537
    48  H    0.020124
    49  H    0.019446
    50  H    0.035618
    51  H    0.053077
    52  H    0.043478
    53  H    0.021629
    54  H    0.065535
    55  H    0.039933
    56  H    0.040154
    57  H    0.041107
    58  H    0.067737
    59  H    0.043146
    60  H    0.054709
    61  H    0.075049
    62  H    0.027166
    63  H    0.045815
    64  H    0.030938
    65  H    0.039600
    66  H    0.032781
    67  H    0.042658
    68  H    0.031252
    69  H    0.022878
    70  H    0.046438
    71  H    0.045756
    72  H    0.042274
    73  H    0.058151
    74  H    0.067991
    75  H    0.019626
    76  H    0.066941
    77  H    0.068301
    78  H    0.069558
    79  H    0.058333
    80  Mg   0.983882
    81  C   -0.026272
    82  C   -0.065003
    83  C   -0.072243
    84  C   -0.099284
    85  N   -0.335740
    86  C   -0.019327
    87  C   -0.046044
    88  C   -0.130671
    89  C    0.025574
    90  C    0.037431
    91  C    0.055291
    92  C   -0.144106
    93  H    0.038398
    94  N   -0.481654
    95  C    0.183344
    96  C   -0.191423
    97  C   -0.022591
    98  C    0.131571
    99  C    0.056493
   100  C    0.038499
   101  O   -0.281129
   102  C    0.024563
   103  N   -0.375078
   104  C    0.076278
   105  C   -0.094238
   106  C   -0.055080
   107  C    0.063660
   108  C    0.027619
   109  C   -0.032297
   110  C   -0.043699
   111  N   -0.452623
   112  C    0.130801
   113  C   -0.169529
   114  C   -0.056371
   115  C    0.215753
   116  C    0.092255
   117  C    0.091518
   118  O   -0.190072
   119  C   -0.123907
   120  C    0.263248
   121  O   -0.290811
   122  O   -0.356967
   123  C    0.146669
   124  H   -0.009010
   125  H    0.021581
   126  H   -0.013529
   127  H    0.038413
   128  H    0.026780
   129  H    0.047607
   130  H    0.032132
   131  H    0.052292
   132  H    0.035803
   133  H    0.047010
   134  H    0.065127
   135  H    0.052658
   136  H    0.057377
   137  H    0.043354
   138  H    0.035763
   139  H    0.042659
   140  H    0.066638
   141  H    0.043727
   142  H    0.047302
   143  H    0.036189
   144  H    0.044665
   145  H    0.039215
   146  H    0.036232
   147  H    0.035240
   148  H    0.040156
   149  H    0.056359
   150  H    0.040416
   151  H    0.028969
   152  H    0.060711
   153  H    0.053766
   154  H    0.024480
   155  H    0.056509
   156  H    0.066028
   157  H    0.067019
   158  H    0.053676
 Sum of Mulliken charges =  -0.00000

 Dipole moment (field-independent basis, Debye):
    X=             -2.1296    Y=              0.9697    Z=             -1.5931  Tot=              2.8309
 Quadrupole moment (field-independent basis, Debye-Ang):
   XX=           -594.2692   YY=           -466.3757   ZZ=           -515.1368
   XY=              4.6512   XZ=            141.5129   YZ=             -2.5389

 Normal termination of Gaussian 16 at Sun Sep 19 08:08:55 2021.
