 Gaussian 16, Revision A.03,
 Gaussian 16:  ES64L-G16RevA.03 25-Dec-2016

 --------------------------------
 #p wB97XD/Def2SVP td=(nstates=5)
 --------------------------------

 --------------------------------
 TDDFT excited states in gaussian
 --------------------------------
 Symbolic Z-matrix:
 Charge =  0 Multiplicity = 1

                         Standard orientation:
 ---------------------------------------------------------------------
 Center     Atomic      Atomic             Coordinates (Angstroms)
 Number     Number       Type             X           Y           Z
 ---------------------------------------------------------------------
      1         12           0       18.153106   -0.665789    0.260743
      2          6           0       15.503629    1.529622    0.069754
      3          6           0       19.973755    1.866056    1.668593
      4          6           0       20.836426   -2.714860    0.186516
      5          6           0       16.404250   -2.951172   -1.690578
      6          7           0       17.731311    1.530349    0.660728
      7          6           0       16.595132    2.112903    0.695794
      8          6           0       16.569164    3.609191    1.303107
      9          6           0       18.123166    3.779298    1.530597
     10          6           0       18.707814    2.325415    1.197908
     11          6           0       18.848316    4.839937    0.547597
     12          6           0       15.700240    3.796711    2.621483
     13          6           0       15.014835    5.189983    2.853057
     14          1           0       15.441392    6.307044    1.949260
     15          7           0       20.058689   -0.499022    0.894490
     16          6           0       20.656817    0.640928    1.562272
     17          6           0       22.022321    0.270404    1.919197
     18          6           0       22.324182   -1.012115    1.397205
     19          6           0       21.041143   -1.486065    0.830810
     20          6           0       22.793802    1.243131    2.736427
     21          6           0       23.612297   -1.864979    1.472364
     22          8           0       23.796325   -2.902354    0.908268
     23          6           0       24.791201   -1.196729    2.208365
     24          7           0       18.663048   -2.539716   -0.703489
     25          6           0       19.785174   -3.179372   -0.603753
     26          6           0       19.846479   -4.390264   -1.577517
     27          6           0       18.392242   -4.527959   -2.088460
     28          6           0       17.739152   -3.277098   -1.454758
     29          6           0       20.884400   -4.151725   -2.694796
     30          6           0       17.745925   -5.890876   -1.692350
     31          6           0       18.294070   -7.113013   -2.446734
     32          7           0       16.306534   -0.744019   -0.656173
     33          6           0       15.706270   -1.792733   -1.330062
     34          6           0       14.363266   -1.371429   -1.630506
     35          6           0       14.191224   -0.038800   -1.149866
     36          6           0       15.442570    0.235583   -0.533717
     37          6           0       13.411670   -2.138793   -2.346793
     38          6           0       13.310918    1.067252   -0.946063
     39          8           0       12.131328    1.225586   -1.380893
     40          6           0       14.192988    2.170532   -0.242814
     41          6           0       14.211923    3.326899   -1.113011
     42          8           0       14.954438    3.452800   -2.086443
     43          8           0       13.169231    4.133898   -0.734764
     44          6           0       12.902955    5.225391   -1.695420
     45          1           0       20.586982    2.661602    2.095906
     46          1           0       21.737571   -3.331689    0.222197
     47          1           0       15.873865   -3.731824   -2.240718
     48          1           0       16.245740    4.218226    0.458581
     49          1           0       18.317698    4.115245    2.548931
     50          1           0       18.203740    4.988906   -0.319142
     51          1           0       19.812174    4.444086    0.228001
     52          1           0       19.066900    5.820832    0.970957
     53          1           0       16.421622    3.645343    3.424035
     54          1           0       15.033620    2.974209    2.883007
     55          1           0       15.122982    5.569531    3.869030
     56          1           0       13.950013    5.100087    2.637979
     57          1           0       23.265255    1.991839    2.099177
     58          1           0       23.450110    0.763717    3.462872
     59          1           0       22.074262    1.756956    3.373439
     60          1           0       24.692246   -1.168328    3.293941
     61          1           0       24.786725   -0.204214    1.758951
     62          1           0       25.778692   -1.602409    1.990421
     63          1           0       20.107313   -5.211782   -0.910729
     64          1           0       18.370268   -4.384599   -3.168743
     65          1           0       21.110754   -3.108451   -2.915981
     66          1           0       20.641074   -4.492693   -3.701642
     67          1           0       21.790047   -4.654511   -2.355641
     68          1           0       16.682693   -5.854269   -1.925551
     69          1           0       17.849853   -6.049313   -0.618412
     70          1           0       19.125828   -6.772356   -3.063380
     71          1           0       17.578264   -7.399165   -3.217490
     72          1           0       18.525074   -8.019240   -1.887349
     73          1           0       13.495801   -3.139601   -1.923054
     74          1           0       13.580850   -2.240957   -3.418602
     75          1           0       12.441551   -1.647068   -2.267803
     76          1           0       13.615444    2.407746    0.651033
     77          1           0       12.551043    4.743647   -2.608094
     78          1           0       13.756699    5.894261   -1.799033
     79          1           0       12.083610    5.818803   -1.289366
     80         12           0      -18.454547   -0.144524    0.269298
     81          6           0      -15.559354    1.681406   -0.571494
     82          6           0      -19.292775   -0.021257   -2.975208
     83          6           0      -20.815808   -2.253877    1.079045
     84          6           0      -16.918546   -0.683378    3.450620
     85          7           0      -17.485667    0.702472   -1.559123
     86          6           0      -16.374547    1.464914   -1.692671
     87          6           0      -16.138110    1.953417   -3.107400
     88          6           0      -17.532796    1.592414   -3.759670
     89          6           0      -18.181878    0.683007   -2.736978
     90          6           0      -18.449044    2.837252   -4.107821
     91          6           0      -14.920330    1.425863   -3.984662
     92          6           0      -14.127237    0.151956   -3.589343
     93          1           0      -13.552334   -0.747714   -4.746430
     94          7           0      -19.955093   -0.904677   -0.842440
     95          6           0      -20.086188   -0.842401   -2.160754
     96          6           0      -21.228170   -1.703308   -2.572922
     97          6           0      -21.788662   -2.243251   -1.301913
     98          6           0      -20.825937   -1.809649   -0.288957
     99          6           0      -21.768228   -1.772527   -3.975933
    100          6           0      -22.990274   -3.143673   -1.181878
    101          8           0      -23.628801   -3.412570   -2.196417
    102          6           0      -23.480844   -3.839554    0.141082
    103          7           0      -18.783581   -1.443427    2.044038
    104          6           0      -19.927253   -2.034696    2.083239
    105          6           0      -20.091221   -2.658816    3.540196
    106          6           0      -18.724304   -2.332672    4.145459
    107          6           0      -18.057004   -1.420854    3.133914
    108          6           0      -21.275772   -2.216879    4.415581
    109          6           0      -17.747871   -3.614049    4.269396
    110          6           0      -17.399827   -4.076080    5.696297
    111          7           0      -16.629918    0.295408    1.265029
    112          6           0      -16.202256    0.130756    2.555967
    113          6           0      -15.001644    0.965387    2.820494
    114          6           0      -14.617020    1.515097    1.564873
    115          6           0      -15.734852    1.141447    0.700139
    116          6           0      -14.185537    1.037787    4.130396
    117          6           0      -13.671501    2.286295    0.829025
    118          8           0      -12.541364    2.740569    1.076702
    119          6           0      -14.276844    2.498299   -0.581946
    120          6           0      -14.410613    4.010507   -0.783558
    121          8           0      -13.795679    4.802705   -1.446814
    122          8           0      -15.604621    4.414947   -0.176690
    123          6           0      -16.016620    5.843718   -0.340159
    124          1           0      -19.536504    0.027916   -4.038699
    125          1           0      -21.646779   -2.924708    1.310296
    126          1           0      -16.606414   -0.647245    4.496087
    127          1           0      -16.089917    3.038435   -3.016922
    128          1           0      -17.363742    1.076602   -4.705012
    129          1           0      -17.982603    3.766856   -3.783404
    130          1           0      -19.282021    2.689052   -3.421462
    131          1           0      -18.706468    2.818516   -5.166980
    132          1           0      -14.216731    2.253951   -4.071185
    133          1           0      -15.265800    1.272240   -5.007551
    134          1           0      -14.818083   -0.450522   -2.999508
    135          1           0      -13.182004    0.359473   -3.088716
    136          1           0      -22.753657   -2.234084   -4.035569
    137          1           0      -20.985460   -2.230315   -4.581912
    138          1           0      -21.764225   -0.732174   -4.302793
    139          1           0      -23.656327   -3.262479    1.049770
    140          1           0      -22.708160   -4.540193    0.457589
    141          1           0      -24.420391   -4.372786   -0.001000
    142          1           0      -20.261096   -3.734036    3.495404
    143          1           0      -18.681062   -1.892327    5.142224
    144          1           0      -21.918249   -1.503536    3.899133
    145          1           0      -20.942423   -1.823745    5.376596
    146          1           0      -21.958796   -3.029169    4.664120
    147          1           0      -16.782236   -3.432065    3.799651
    148          1           0      -18.250326   -4.414274    3.725568
    149          1           0      -16.404830   -4.503681    5.822207
    150          1           0      -18.102546   -4.880577    5.913081
    151          1           0      -17.510412   -3.166084    6.286152
    152          1           0      -14.409757    0.258278    4.857804
    153          1           0      -14.457551    2.003688    4.555299
    154          1           0      -13.129388    1.096974    3.868599
    155          1           0      -13.598778    2.089192   -1.330188
    156          1           0      -15.240403    6.601336   -0.445617
    157          1           0      -16.507764    6.067894    0.606556
    158          1           0      -16.766427    6.086109   -1.093519
 ---------------------------------------------------------------------

 SCF Done:  E(RwB97XD) =  -4070.60619863     A.U. after   20 cycles

 Excitation energies and oscillator strengths:

 Excited State   1:      Singlet-A      1.7163 eV  722.40 nm  f=0.5364  <S**2>=0.000
     309 -> 315       -0.18762
     311 -> 313        0.67070
     312 -> 314       -0.11920
     309 <- 315       -0.11349
 This state for optimization and/or second-order correction.
 Total Energy, E(TD-HF/TD-DFT) =  -4070.54312616
 Copying the excited state density for this state as the 1-particle RhoCI density.

 Excited State   2:      Singlet-A      1.7222 eV  719.93 nm  f=0.2544  <S**2>=0.000
     310 -> 316        0.20064
     311 -> 313        0.11966
     312 -> 314        0.66707
     310 <- 316        0.11685

 Excited State   3:      Singlet-A      2.1613 eV  573.66 nm  f=0.1080  <S**2>=0.000
     310 -> 314        0.64084
     312 -> 316       -0.28355

 Excited State   4:      Singlet-A      2.2310 eV  555.72 nm  f=0.0955  <S**2>=0.000
     309 -> 313        0.63454
     311 -> 315        0.29971

 Excited State   5:      Singlet-A      3.3948 eV  365.22 nm  f=0.0210  <S**2>=0.000
     299 -> 313        0.19033
     299 -> 317       -0.14648
     301 -> 313        0.46766
     301 -> 317       -0.33203
     301 -> 319        0.12915
     303 -> 313       -0.15413
     311 -> 315       -0.15094

 The electronic state is 1-A.
 Alpha  occ. eigenvalues --  -46.96380 -46.94694 -19.29946 -19.29841 -19.25360
 Alpha  occ. eigenvalues --  -19.25159 -19.24574 -19.24177 -19.23554 -19.23232
 Alpha  occ. eigenvalues --  -14.46886 -14.46746 -14.46346 -14.46059 -14.45038
 Alpha  occ. eigenvalues --  -14.44691 -14.44289 -14.43449 -10.43749 -10.42321
 Alpha  occ. eigenvalues --  -10.40226 -10.39744 -10.39528 -10.38724 -10.35883
 Alpha  occ. eigenvalues --  -10.35618 -10.35547 -10.35118 -10.35097 -10.34923
 Alpha  occ. eigenvalues --  -10.34761 -10.34733 -10.34715 -10.34664 -10.34418
 Alpha  occ. eigenvalues --  -10.34396 -10.34390 -10.34259 -10.34147 -10.34039
 Alpha  occ. eigenvalues --  -10.33793 -10.33577 -10.33336 -10.33097 -10.33032
 Alpha  occ. eigenvalues --  -10.33013 -10.32954 -10.32844 -10.32834 -10.32833
 Alpha  occ. eigenvalues --  -10.32196 -10.32083 -10.32034 -10.31932 -10.31916
 Alpha  occ. eigenvalues --  -10.31798 -10.31680 -10.31658 -10.31595 -10.31539
 Alpha  occ. eigenvalues --  -10.31489 -10.31396 -10.31289 -10.31106 -10.31098
 Alpha  occ. eigenvalues --  -10.31095 -10.31092 -10.31091 -10.30984 -10.30943
 Alpha  occ. eigenvalues --  -10.30620 -10.30438 -10.30420 -10.30396 -10.30312
 Alpha  occ. eigenvalues --  -10.30298 -10.30125 -10.29994 -10.29980 -10.29582
 Alpha  occ. eigenvalues --  -10.29478 -10.29328 -10.29229 -10.29155 -10.28414
 Alpha  occ. eigenvalues --  -10.28408  -3.22310  -3.20737  -1.95886  -1.95430
 Alpha  occ. eigenvalues --   -1.95278  -1.94322  -1.93868  -1.93710  -1.18223
 Alpha  occ. eigenvalues --   -1.17612  -1.14720  -1.11716  -1.11602  -1.09497
 Alpha  occ. eigenvalues --   -1.09338  -1.08886  -1.08711  -1.07345  -1.06814
 Alpha  occ. eigenvalues --   -1.06253  -1.06032  -1.05420  -1.05300  -1.02892
 Alpha  occ. eigenvalues --   -0.95587  -0.94437  -0.91702  -0.91146  -0.90701
 Alpha  occ. eigenvalues --   -0.90448  -0.90224  -0.90179  -0.89670  -0.89337
 Alpha  occ. eigenvalues --   -0.88874  -0.88843  -0.88744  -0.87294  -0.86805
 Alpha  occ. eigenvalues --   -0.85808  -0.85798  -0.85297  -0.84755  -0.84172
 Alpha  occ. eigenvalues --   -0.83682  -0.83597  -0.82935  -0.82748  -0.82448
 Alpha  occ. eigenvalues --   -0.82190  -0.80485  -0.80448  -0.79614  -0.79247
 Alpha  occ. eigenvalues --   -0.78918  -0.78593  -0.78235  -0.77607  -0.77283
 Alpha  occ. eigenvalues --   -0.76718  -0.75308  -0.74353  -0.74139  -0.73392
 Alpha  occ. eigenvalues --   -0.71575  -0.71265  -0.71167  -0.70680  -0.70574
 Alpha  occ. eigenvalues --   -0.70107  -0.69478  -0.68955  -0.68755  -0.67697
 Alpha  occ. eigenvalues --   -0.67616  -0.67481  -0.67259  -0.66851  -0.66716
 Alpha  occ. eigenvalues --   -0.66025  -0.65158  -0.63479  -0.62566  -0.62184
 Alpha  occ. eigenvalues --   -0.61996  -0.61422  -0.61315  -0.61031  -0.60506
 Alpha  occ. eigenvalues --   -0.60212  -0.60064  -0.59802  -0.59573  -0.59228
 Alpha  occ. eigenvalues --   -0.58323  -0.57939  -0.57836  -0.57624  -0.57534
 Alpha  occ. eigenvalues --   -0.57113  -0.57003  -0.56482  -0.56394  -0.55888
 Alpha  occ. eigenvalues --   -0.55837  -0.55564  -0.55264  -0.55070  -0.54874
 Alpha  occ. eigenvalues --   -0.54855  -0.54691  -0.54634  -0.53960  -0.53939
 Alpha  occ. eigenvalues --   -0.53752  -0.53636  -0.53504  -0.53195  -0.53192
 Alpha  occ. eigenvalues --   -0.53024  -0.53000  -0.52799  -0.52604  -0.52502
 Alpha  occ. eigenvalues --   -0.52312  -0.51927  -0.51722  -0.51433  -0.51269
 Alpha  occ. eigenvalues --   -0.51011  -0.50965  -0.50790  -0.50772  -0.50450
 Alpha  occ. eigenvalues --   -0.50437  -0.50426  -0.50326  -0.50209  -0.50077
 Alpha  occ. eigenvalues --   -0.49772  -0.49702  -0.49649  -0.49505  -0.49349
 Alpha  occ. eigenvalues --   -0.49180  -0.48921  -0.48849  -0.48552  -0.48523
 Alpha  occ. eigenvalues --   -0.48318  -0.48208  -0.48101  -0.48019  -0.47910
 Alpha  occ. eigenvalues --   -0.47765  -0.47486  -0.47462  -0.47269  -0.47024
 Alpha  occ. eigenvalues --   -0.46758  -0.46715  -0.46264  -0.46157  -0.46096
 Alpha  occ. eigenvalues --   -0.46026  -0.45881  -0.45692  -0.45492  -0.45413
 Alpha  occ. eigenvalues --   -0.45229  -0.45119  -0.45059  -0.44833  -0.44623
 Alpha  occ. eigenvalues --   -0.44554  -0.44506  -0.44225  -0.44160  -0.44021
 Alpha  occ. eigenvalues --   -0.43971  -0.43603  -0.43574  -0.43336  -0.43332
 Alpha  occ. eigenvalues --   -0.43088  -0.43041  -0.42823  -0.42570  -0.42477
 Alpha  occ. eigenvalues --   -0.42064  -0.41856  -0.41652  -0.41220  -0.41118
 Alpha  occ. eigenvalues --   -0.40734  -0.40107  -0.40084  -0.39840  -0.39695
 Alpha  occ. eigenvalues --   -0.39480  -0.39001  -0.38862  -0.38688  -0.38494
 Alpha  occ. eigenvalues --   -0.38242  -0.38184  -0.37034  -0.36240  -0.36232
 Alpha  occ. eigenvalues --   -0.35836  -0.35816  -0.35564  -0.34065  -0.33771
 Alpha  occ. eigenvalues --   -0.33458  -0.33298  -0.33243  -0.32846  -0.32390
 Alpha  occ. eigenvalues --   -0.32216  -0.31397  -0.31251  -0.26394  -0.25544
 Alpha  occ. eigenvalues --   -0.23318  -0.23004
 Alpha virt. eigenvalues --   -0.07236  -0.06715  -0.00102   0.00273   0.01443
 Alpha virt. eigenvalues --    0.02078   0.03877   0.04253   0.04546   0.05753
 Alpha virt. eigenvalues --    0.06846   0.07225   0.07709   0.07998   0.08341

 Mulliken charges:
               1
     1  Mg   0.972888
     2  C    0.036649
     3  C   -0.076536
     4  C   -0.083502
     5  C   -0.099902
     6  N   -0.274864
     7  C   -0.097104
     8  C   -0.014353
     9  C   -0.137582
    10  C    0.065914
    11  C    0.000624
    12  C    0.023688
    13  C   -0.131716
    14  H    0.035227
    15  N   -0.532049
    16  C    0.160569
    17  C   -0.146854
    18  C   -0.100048
    19  C    0.147705
    20  C    0.050367
    21  C    0.084741
    22  O   -0.192605
    23  C   -0.045346
    24  N   -0.332439
    25  C    0.040081
    26  C   -0.054327
    27  C   -0.067616
    28  C    0.054705
    29  C    0.016576
    30  C   -0.022561
    31  C   -0.039112
    32  N   -0.427618
    33  C    0.163700
    34  C   -0.180175
    35  C    0.016206
    36  C    0.116551
    37  C    0.057386
    38  C    0.086095
    39  O   -0.253657
    40  C   -0.075492
    41  C    0.267931
    42  O   -0.262130
    43  O   -0.366869
    44  C    0.144948
    45  H   -0.003077
    46  H    0.012651
    47  H   -0.006248
    48  H    0.049183
    49  H    0.040246
    50  H    0.048206
    51  H    0.038229
    52  H    0.039820
    53  H    0.016246
    54  H    0.039554
    55  H    0.057635
    56  H    0.064811
    57  H    0.067799
    58  H    0.043737
    59  H    0.042671
    60  H    0.070890
    61  H    0.053282
    62  H    0.049613
    63  H    0.038180
    64  H    0.035333
    65  H    0.043604
    66  H    0.034009
    67  H    0.050497
    68  H    0.028801
    69  H    0.032077
    70  H    0.024439
    71  H    0.026133
    72  H    0.050519
    73  H    0.038262
    74  H    0.050062
    75  H    0.058025
    76  H    0.063421
    77  H    0.068151
    78  H    0.056010
    79  H    0.049134
    80  Mg   0.957568
    81  C   -0.036543
    82  C   -0.091733
    83  C   -0.036466
    84  C   -0.103718
    85  N   -0.341027
    86  C   -0.037768
    87  C    0.005245
    88  C   -0.158206
    89  C    0.057838
    90  C    0.033618
    91  C    0.002314
    92  C   -0.150104
    93  H    0.027002
    94  N   -0.476318
    95  C    0.164743
    96  C   -0.173350
    97  C   -0.081397
    98  C    0.167503
    99  C    0.085880
   100  C    0.055529
   101  O   -0.240398
   102  C   -0.027038
   103  N   -0.273717
   104  C    0.045707
   105  C   -0.055730
   106  C   -0.126067
   107  C    0.077398
   108  C    0.014314
   109  C   -0.041871
   110  C   -0.039890
   111  N   -0.401972
   112  C    0.127013
   113  C   -0.186106
   114  C   -0.008848
   115  C    0.160871
   116  C    0.075230
   117  C    0.093772
   118  O   -0.217968
   119  C   -0.083265
   120  C    0.279615
   121  O   -0.209470
   122  O   -0.398063
   123  C    0.134924
   124  H   -0.010920
   125  H   -0.053852
   126  H    0.002632
   127  H    0.040931
   128  H    0.037058
   129  H    0.035425
   130  H    0.038083
   131  H    0.054844
   132  H    0.045408
   133  H    0.044661
   134  H    0.072899
   135  H    0.074474
   136  H    0.077657
   137  H    0.041060
   138  H    0.036902
   139  H    0.056494
   140  H    0.057158
   141  H    0.052349
   142  H    0.035483
   143  H    0.023143
   144  H    0.033227
   145  H    0.035964
   146  H    0.027073
   147  H    0.043374
   148  H    0.025240
   149  H    0.043783
   150  H    0.037772
   151  H    0.028117
   152  H    0.042813
   153  H    0.054926
   154  H    0.069839
   155  H    0.069025
   156  H    0.065927
   157  H    0.044797
   158  H    0.047185
 Sum of Mulliken charges =  -0.00000

 Dipole moment (field-independent basis, Debye):
    X=              0.4380    Y=              0.8607    Z=              6.7479  Tot=              6.8167
 Quadrupole moment (field-independent basis, Debye-Ang):
   XX=           -359.9800   YY=           -483.8410   ZZ=           -477.0422
   XY=              0.3339   XZ=             -8.7100   YZ=              0.4263

 Normal termination of Gaussian 16 at Mon Sep 20 11:03:17 2021.
