 Gaussian 16, Revision A.03,
 Gaussian 16:  ES64L-G16RevA.03 25-Dec-2016

 --------------------------------
 #p wB97XD/Def2SVP td=(nstates=5)
 --------------------------------

 --------------------------------
 TDDFT excited states in gaussian
 --------------------------------
 Symbolic Z-matrix:
 Charge =  0 Multiplicity = 1

                         Standard orientation:
 ---------------------------------------------------------------------
 Center     Atomic      Atomic             Coordinates (Angstroms)
 Number     Number       Type             X           Y           Z
 ---------------------------------------------------------------------
      1         12           0        0.800332    0.152917   -0.359569
      2          6           0       -2.779603    0.226318   -0.243363
      3          6           0        0.504887   -3.361550   -0.290256
      4          6           0        4.003591   -0.103831    0.254738
      5          6           0        0.834157    3.539890   -0.060006
      6          7           0       -0.955557   -1.353507   -0.328569
      7          6           0       -2.267442   -1.022003   -0.394604
      8          6           0       -3.079482   -2.291794   -0.589691
      9          6           0       -2.090954   -3.490587   -0.643279
     10          6           0       -0.772053   -2.719090   -0.444604
     11          6           0       -2.398554   -4.643628    0.469340
     12          6           0       -3.958431   -2.262415   -1.912722
     13          6           0       -5.422695   -2.679218   -1.770762
     14          1           0       -5.858287   -3.782742   -0.725135
     15          7           0        2.080814   -1.521468   -0.003865
     16          6           0        1.770773   -2.799766   -0.050706
     17          6           0        2.968438   -3.541714    0.225992
     18          6           0        4.083729   -2.666493    0.253044
     19          6           0        3.418809   -1.390620    0.206549
     20          6           0        3.030118   -5.066562    0.153907
     21          6           0        5.591308   -2.864399    0.232452
     22          8           0        6.381883   -1.944029    0.332098
     23          6           0        6.070132   -4.273784    0.017273
     24          7           0        2.137938    1.512364    0.388494
     25          6           0        3.496396    1.191522    0.361097
     26          6           0        4.418084    2.440752    0.398757
     27          6           0        3.338717    3.556159    0.130078
     28          6           0        1.993454    2.830420    0.147264
     29          6           0        5.160554    2.532824    1.739734
     30          6           0        3.484069    4.256059   -1.303202
     31          6           0        4.036026    5.640763   -1.366013
     32          7           0       -0.613659    1.591899   -0.302193
     33          6           0       -0.439982    2.949854   -0.143650
     34          6           0       -1.702481    3.668651    0.006960
     35          6           0       -2.686886    2.617630   -0.031552
     36          6           0       -1.975907    1.395863   -0.092174
     37          6           0       -1.831906    5.148349   -0.034028
     38          6           0       -4.110352    2.321140   -0.080292
     39          8           0       -5.048357    3.139007   -0.072153
     40          6           0       -4.246922    0.697553   -0.193046
     41          6           0       -4.959646    0.300020    1.010755
     42          8           0       -4.583608    0.560344    2.132706
     43          8           0       -6.066350   -0.393690    0.719306
     44          6           0       -7.011639   -0.871346    1.776673
     45          1           0        0.473419   -4.451696   -0.343840
     46          1           0        5.074595   -0.070344    0.041218
     47          1           0        0.895314    4.629876   -0.049695
     48          1           0       -3.710367   -2.404703    0.291991
     49          1           0       -2.177914   -4.049792   -1.575007
     50          1           0       -3.438539   -4.602686    0.793297
     51          1           0       -1.699548   -4.439089    1.280714
     52          1           0       -2.171681   -5.624915    0.052880
     53          1           0       -3.541689   -2.810092   -2.756880
     54          1           0       -4.014250   -1.238235   -2.281360
     55          1           0       -5.843984   -2.997293   -2.724644
     56          1           0       -5.918874   -1.732960   -1.555091
     57          1           0        3.397162   -5.454209   -0.796559
     58          1           0        2.088831   -5.522181    0.462777
     59          1           0        3.722232   -5.375448    0.936951
     60          1           0        5.513244   -4.845649   -0.725597
     61          1           0        6.077448   -4.895725    0.911301
     62          1           0        7.035477   -4.243764   -0.488077
     63          1           0        5.139922    2.333822   -0.410485
     64          1           0        3.436647    4.309484    0.911861
     65          1           0        5.077871    1.643328    2.364128
     66          1           0        4.776379    3.344108    2.357064
     67          1           0        6.215666    2.734154    1.551637
     68          1           0        2.554338    4.345762   -1.865005
     69          1           0        4.068638    3.659890   -2.002920
     70          1           0        4.979054    5.645701   -1.911122
     71          1           0        4.183008    5.891959   -0.315421
     72          1           0        3.339878    6.306531   -1.876051
     73          1           0       -2.760458    5.452462   -0.515955
     74          1           0       -0.912215    5.521535   -0.484208
     75          1           0       -1.859325    5.486087    1.002867
     76          1           0       -4.827319    0.400524   -1.065516
     77          1           0       -7.263688   -0.041541    2.437232
     78          1           0       -6.588183   -1.667552    2.389411
     79          1           0       -7.891914   -1.377485    1.381352
 ---------------------------------------------------------------------

 SCF Done:  E(RwB97XD) =  -2035.29912620     A.U. after   20 cycles

 Excitation energies and oscillator strengths:

 Excited State   1:      Singlet-A      1.6235 eV  763.67 nm  f=0.4026  <S**2>=0.000
     155 ->158        -0.17894
     156 ->157         0.68452
     155 <-158        -0.11642
 This state for optimization and/or second-order correction.
 Total Energy, E(TD-HF/TD-DFT) =  -2035.23946244
 Copying the excited state density for this state as the 1-particle RhoCI density.

 Excited State   2:      Singlet-A      2.1424 eV  578.71 nm  f=0.1286  <S**2>=0.000
     155 ->157         0.64800
     156 ->158         0.26640

 Excited State   3:      Singlet-A      3.3487 eV  370.24 nm  f=0.0016  <S**2>=0.000
     153 ->157        -0.11158
     154 ->157         0.67181

 Excited State   4:      Singlet-A      3.5218 eV  352.05 nm  f=0.0192  <S**2>=0.000
     152 ->157        -0.25912
     152 ->159        -0.21364
     152 ->160         0.18114
     153 ->157         0.52207
     156 ->158        -0.19477

 Excited State   5:      Singlet-A      3.5439 eV  349.85 nm  f=0.1591  <S**2>=0.000
     152 ->157         0.42703
     152 ->159         0.16678
     152 ->160        -0.16196
     153 ->157         0.20075
     155 ->157         0.13742
     156 ->158        -0.41168

 The electronic state is 1-A.
 Alpha  occ. eigenvalues --  -46.94980 -19.30468 -19.24557 -19.24116 -19.23455
 Alpha  occ. eigenvalues --  -14.46498 -14.46312 -14.44004 -14.43662 -10.42315
 Alpha  occ. eigenvalues --  -10.39757 -10.39541 -10.36286 -10.35380 -10.34797
 Alpha  occ. eigenvalues --  -10.34511 -10.34278 -10.33681 -10.33616 -10.33214
 Alpha  occ. eigenvalues --  -10.33027 -10.32750 -10.32636 -10.32340 -10.32270
 Alpha  occ. eigenvalues --  -10.32169 -10.32000 -10.31861 -10.31844 -10.31684
 Alpha  occ. eigenvalues --  -10.31158 -10.30974 -10.30663 -10.30614 -10.30314
 Alpha  occ. eigenvalues --  -10.30263 -10.29955 -10.29932 -10.29748 -10.29653
 Alpha  occ. eigenvalues --  -10.29628 -10.29314 -10.28817  -3.21043  -1.94598
 Alpha  occ. eigenvalues --   -1.94177  -1.94020  -1.18730  -1.13064  -1.10702
 Alpha  occ. eigenvalues --   -1.09563  -1.06691  -1.05527  -1.05150  -1.03935
 Alpha  occ. eigenvalues --   -0.94147  -0.90515  -0.90162  -0.89975  -0.89063
 Alpha  occ. eigenvalues --   -0.88959  -0.88370  -0.86158  -0.86018  -0.84567
 Alpha  occ. eigenvalues --   -0.83754  -0.83234  -0.82666  -0.80232  -0.79611
 Alpha  occ. eigenvalues --   -0.78808  -0.78189  -0.76795  -0.74489  -0.73406
 Alpha  occ. eigenvalues --   -0.70754  -0.69760  -0.69617  -0.68932  -0.67482
 Alpha  occ. eigenvalues --   -0.67105  -0.66636  -0.66498  -0.64418  -0.62500
 Alpha  occ. eigenvalues --   -0.61183  -0.60830  -0.60473  -0.60039  -0.59470
 Alpha  occ. eigenvalues --   -0.58096  -0.57674  -0.57154  -0.56295  -0.55452
 Alpha  occ. eigenvalues --   -0.55263  -0.54947  -0.54858  -0.54551  -0.54260
 Alpha  occ. eigenvalues --   -0.54010  -0.53217  -0.53118  -0.52546  -0.52474
 Alpha  occ. eigenvalues --   -0.52005  -0.51935  -0.51178  -0.51012  -0.50710
 Alpha  occ. eigenvalues --   -0.50495  -0.50333  -0.50037  -0.49680  -0.49363
 Alpha  occ. eigenvalues --   -0.48664  -0.48538  -0.48169  -0.48055  -0.47831
 Alpha  occ. eigenvalues --   -0.47232  -0.47044  -0.46465  -0.46197  -0.45760
 Alpha  occ. eigenvalues --   -0.45547  -0.45271  -0.44980  -0.44697  -0.44607
 Alpha  occ. eigenvalues --   -0.44449  -0.43775  -0.43488  -0.43346  -0.43203
 Alpha  occ. eigenvalues --   -0.42917  -0.42440  -0.42192  -0.41619  -0.41268
 Alpha  occ. eigenvalues --   -0.40290  -0.39859  -0.39061  -0.38540  -0.38233
 Alpha  occ. eigenvalues --   -0.38127  -0.36456  -0.35708  -0.35241  -0.33700
 Alpha  occ. eigenvalues --   -0.33408  -0.32790  -0.32274  -0.31588  -0.25758
 Alpha  occ. eigenvalues --   -0.22771
 Alpha virt. eigenvalues --   -0.07086   0.00794   0.02206   0.04148   0.04927
 Alpha virt. eigenvalues --    0.07361   0.07859   0.08151   0.10054   0.11280
 Alpha virt. eigenvalues --    0.11421   0.12498   0.13061   0.13495   0.14110

 Mulliken charges:
               1
     1  Mg   0.966221
     2  C   -0.049309
     3  C   -0.089628
     4  C   -0.059719
     5  C   -0.106205
     6  N   -0.317402
     7  C    0.011455
     8  C   -0.040547
     9  C   -0.105294
    10  C    0.050173
    11  C   -0.005199
    12  C   -0.008595
    13  C   -0.109733
    14  H    0.017142
    15  N   -0.388094
    16  C    0.163940
    17  C   -0.188068
    18  C   -0.059174
    19  C    0.115251
    20  C    0.051556
    21  C    0.080664
    22  O   -0.219432
    23  C   -0.036661
    24  N   -0.403300
    25  C    0.019035
    26  C   -0.074869
    27  C   -0.053989
    28  C    0.103370
    29  C    0.032758
    30  C   -0.056508
    31  C   -0.031336
    32  N   -0.481495
    33  C    0.161737
    34  C   -0.187068
    35  C   -0.019287
    36  C    0.159808
    37  C    0.089872
    38  C    0.119841
    39  O   -0.226476
    40  C   -0.061686
    41  C    0.258013
    42  O   -0.245673
    43  O   -0.357588
    44  C    0.146419
    45  H   -0.009402
    46  H    0.024552
    47  H    0.001004
    48  H    0.044166
    49  H    0.046806
    50  H    0.047923
    51  H    0.045194
    52  H    0.037818
    53  H    0.030183
    54  H    0.028329
    55  H    0.044365
    56  H    0.052355
    57  H    0.066486
    58  H    0.038161
    59  H    0.031211
    60  H    0.035978
    61  H    0.074610
    62  H    0.049254
    63  H    0.043687
    64  H    0.035660
    65  H    0.053043
    66  H    0.026339
    67  H    0.041766
    68  H    0.029350
    69  H    0.020482
    70  H    0.036576
    71  H    0.025291
    72  H    0.038918
    73  H    0.066630
    74  H    0.037272
    75  H    0.055615
    76  H    0.057934
    77  H    0.070424
    78  H    0.046846
    79  H    0.060254
 Sum of Mulliken charges =  -0.00000

 Dipole moment (field-independent basis, Debye):
    X=              1.2835    Y=             -3.6992    Z=             -3.0634  Tot=              4.9715
 Quadrupole moment (field-independent basis, Debye-Ang):
   XX=           -263.5583   YY=           -227.5386   ZZ=           -254.8930
   XY=             25.0642   XZ=             -3.2447   YZ=             -1.7706

 Normal termination of Gaussian 16 at Sun Sep 19 07:08:53 2021.
