 Gaussian 16, Revision A.03,
 Gaussian 16:  ES64L-G16RevA.03 25-Dec-2016

 --------------------------------
 #p wB97XD/Def2SVP td=(nstates=5)
 --------------------------------

 --------------------------------
 TDDFT excited states in gaussian
 --------------------------------
 Symbolic Z-matrix:
 Charge =  0 Multiplicity = 1

                         Standard orientation:
 ---------------------------------------------------------------------
 Center     Atomic      Atomic             Coordinates (Angstroms)
 Number     Number       Type             X           Y           Z
 ---------------------------------------------------------------------
      1         12           0       16.279787   -0.499625    0.562736
      2          6           0       14.952537    2.372474   -1.122215
      3          6           0       17.646131    1.494649    2.784797
      4          6           0       18.048033   -3.151378    1.471552
      5          6           0       14.960369   -2.450030   -2.262825
      6          7           0       16.248220    1.684730    0.815483
      7          6           0       15.682446    2.693732    0.010896
      8          6           0       15.937164    4.152794    0.547918
      9          6           0       16.791865    3.754239    1.901532
     10          6           0       16.913237    2.233782    1.879600
     11          6           0       18.228776    4.431739    1.928688
     12          6           0       14.656954    5.028074    0.782236
     13          6           0       14.845526    6.254099    1.667650
     14          1           0       14.675040    7.602203    0.943681
     15          7           0       17.590066   -0.803041    2.012061
     16          6           0       18.073018    0.120805    2.908821
     17          6           0       18.982368   -0.466223    3.870239
     18          6           0       19.071050   -1.855237    3.459873
     19          6           0       18.135460   -1.990671    2.287129
     20          6           0       19.588959    0.196144    5.016404
     21          6           0       19.860144   -3.003410    4.064775
     22          8           0       19.765304   -4.144778    3.709808
     23          6           0       20.863336   -2.595348    5.110739
     24          7           0       16.527177   -2.508357   -0.316994
     25          6           0       17.313323   -3.418571    0.311167
     26          6           0       17.230272   -4.801554   -0.388529
     27          6           0       16.134454   -4.557799   -1.483654
     28          6           0       15.801458   -3.086550   -1.327038
     29          6           0       18.545842   -5.409781   -0.983452
     30          6           0       14.834876   -5.430123   -1.368024
     31          6           0       15.023975   -6.879301   -1.868356
     32          7           0       15.220838   -0.192673   -1.304127
     33          6           0       14.709661   -1.041897   -2.258340
     34          6           0       13.943334   -0.294058   -3.173907
     35          6           0       14.031882    1.006613   -2.845341
     36          6           0       14.855058    1.070695   -1.680405
     37          6           0       13.132676   -0.977134   -4.267606
     38          6           0       13.715307    2.402674   -3.163255
     39          8           0       13.086110    2.874795   -4.074752
     40          6           0       14.347149    3.342710   -2.029227
     41          6           0       15.452197    4.123362   -2.666263
     42          8           0       16.622052    3.868252   -2.843449
     43          8           0       14.872296    5.326540   -3.016554
     44          6           0       15.747672    6.333093   -3.662939
     45          1           0       18.181569    2.076863    3.537494
     46          1           0       18.763912   -3.936537    1.726385
     47          1           0       14.550336   -3.181551   -2.962995
     48          1           0       16.646477    4.633201   -0.126217
     49          1           0       16.247666    4.137999    2.764795
     50          1           0       18.420557    4.830829    2.924584
     51          1           0       18.466740    5.199235    1.192678
     52          1           0       19.004748    3.672894    1.832879
     53          1           0       13.983659    4.266732    1.178253
     54          1           0       14.100475    5.377077   -0.087885
     55          1           0       15.846324    6.230726    2.097959
     56          1           0       14.036976    6.282959    2.397547
     57          1           0       19.101023   -0.358749    5.817692
     58          1           0       19.383912    1.266746    5.006230
     59          1           0       20.664626    0.092615    5.157510
     60          1           0       20.408290   -2.678474    6.097625
     61          1           0       21.485977   -1.750827    4.814016
     62          1           0       21.686769   -3.287605    4.937395
     63          1           0       16.692746   -5.438972    0.314147
     64          1           0       16.601246   -4.606945   -2.467667
     65          1           0       18.539067   -5.623680   -2.052630
     66          1           0       18.620649   -6.405358   -0.546605
     67          1           0       19.450862   -4.828202   -0.807971
     68          1           0       14.048464   -4.985901   -1.977178
     69          1           0       14.547187   -5.363983   -0.317835
     70          1           0       15.875407   -6.939730   -2.546507
     71          1           0       14.078776   -7.157433   -2.334405
     72          1           0       15.264365   -7.595646   -1.082189
     73          1           0       12.275777   -0.370363   -4.560479
     74          1           0       12.829384   -1.962837   -3.914608
     75          1           0       13.768682   -1.209015   -5.122194
     76          1           0       13.594783    3.987022   -1.573733
     77          1           0       15.138533    6.789006   -4.443348
     78          1           0       16.657572    5.922388   -4.100298
     79          1           0       15.918527    6.988960   -2.808708
     80         12           0      -16.069859   -0.819840    0.056139
     81          6           0      -17.792830    1.981262    1.079425
     82          6           0      -13.482200    1.334982   -1.139288
     83          6           0      -14.535982   -3.401080   -1.265638
     84          6           0      -18.698624   -2.866406    1.087982
     85          7           0      -15.757399    1.397147    0.025610
     86          6           0      -16.572625    2.329962    0.526448
     87          6           0      -15.882545    3.727015    0.397198
     88          6           0      -14.556990    3.453185   -0.450842
     89          6           0      -14.614021    1.919417   -0.587683
     90          6           0      -14.520076    3.996191   -1.866441
     91          6           0      -15.656478    4.460286    1.727936
     92          6           0      -16.188469    5.882547    1.674537
     93          1           0      -15.592541    6.985447    2.561440
     94          7           0      -14.219860   -0.996185   -0.977683
     95          6           0      -13.295605   -0.053604   -1.325309
     96          6           0      -12.175306   -0.610489   -1.941523
     97          6           0      -12.480604   -2.004808   -2.120411
     98          6           0      -13.799323   -2.202891   -1.425214
     99          6           0      -10.950877    0.186363   -2.367753
    100          6           0      -11.697868   -3.066022   -2.876386
    101          8           0      -12.228032   -4.179887   -3.054091
    102          6           0      -10.394098   -2.778376   -3.501519
    103          7           0      -16.554088   -2.793524   -0.022046
    104          6           0      -15.725492   -3.744593   -0.581219
    105          6           0      -16.292859   -5.212096   -0.542126
    106          6           0      -17.493765   -4.993951    0.474200
    107          6           0      -17.613530   -3.459362    0.509084
    108          6           0      -16.766454   -5.949765   -1.856272
    109          6           0      -17.457736   -5.761075    1.873332
    110          6           0      -16.544250   -5.169987    2.914421
    111          7           0      -17.911782   -0.569992    0.769491
    112          6           0      -18.903540   -1.451467    1.155568
    113          6           0      -20.030148   -0.792385    1.677432
    114          6           0      -19.604723    0.540955    1.692377
    115          6           0      -18.298242    0.652145    1.133418
    116          6           0      -21.200015   -1.521398    2.186257
    117          6           0      -20.126729    1.821673    1.978244
    118          8           0      -21.271767    2.106249    2.335079
    119          6           0      -18.955258    2.877508    1.620692
    120          6           0      -19.455450    3.828392    0.643529
    121          8           0      -19.641383    3.627826   -0.534944
    122          8           0      -19.804740    4.962130    1.238886
    123          6           0      -20.438044    5.987584    0.466111
    124          1           0      -12.721873    2.003755   -1.547023
    125          1           0      -14.149681   -4.345475   -1.653840
    126          1           0      -19.499062   -3.542966    1.394765
    127          1           0      -16.605827    4.236533   -0.238678
    128          1           0      -13.765979    3.987511    0.076557
    129          1           0      -15.372876    4.620341   -2.135083
    130          1           0      -14.539922    3.176524   -2.584168
    131          1           0      -13.551801    4.459035   -2.059395
    132          1           0      -14.621579    4.485834    2.069601
    133          1           0      -16.173855    3.897256    2.504383
    134          1           0      -17.216960    5.827686    2.033162
    135          1           0      -16.107688    6.192231    0.632752
    136          1           0      -10.958096    1.192014   -1.947253
    137          1           0      -11.007063    0.365511   -3.441687
    138          1           0      -10.035498   -0.379163   -2.197550
    139          1           0      -10.174377   -3.499571   -4.289538
    140          1           0       -9.636454   -2.921656   -2.730476
    141          1           0      -10.388134   -1.772442   -3.920541
    142          1           0      -15.645433   -5.891635    0.013018
    143          1           0      -18.390858   -5.439939    0.046571
    144          1           0      -16.596446   -5.274220   -2.693698
    145          1           0      -17.856082   -5.998652   -1.857848
    146          1           0      -16.355850   -6.936327   -2.073161
    147          1           0      -17.044478   -6.746939    1.661685
    148          1           0      -18.441256   -5.952077    2.300945
    149          1           0      -16.994795   -5.381068    3.883615
    150          1           0      -16.250206   -4.121875    2.875282
    151          1           0      -15.590914   -5.688865    2.814222
    152          1           0      -21.052498   -2.509440    2.621537
    153          1           0      -22.080580   -1.521354    1.544967
    154          1           0      -21.523012   -0.853539    2.984438
    155          1           0      -18.690589    3.401217    2.539065
    156          1           0      -19.718071    6.670428    0.013594
    157          1           0      -21.027037    6.586215    1.160725
    158          1           0      -21.034318    5.537912   -0.327981
 ---------------------------------------------------------------------

 SCF Done:  E(RwB97XD) =  -4070.63192587     A.U. after   19 cycles

 Excitation energies and oscillator strengths:

 Excited State   1:      Singlet-A      1.6364 eV  757.65 nm  f=0.4186  <S**2>=0.000
     310 -> 316       -0.18206
     312 -> 314        0.67739
     310 <- 316       -0.11625
 This state for optimization and/or second-order correction.
 Total Energy, E(TD-HF/TD-DFT) =  -4070.57178796
 Copying the excited state density for this state as the 1-particle RhoCI density.

 Excited State   2:      Singlet-A      1.6479 eV  752.37 nm  f=0.3942  <S**2>=0.000
     309 -> 315       -0.17642
     311 -> 313        0.67763
     309 <- 315       -0.11328

 Excited State   3:      Singlet-A      2.1545 eV  575.46 nm  f=0.1262  <S**2>=0.000
     310 -> 314        0.64861
     312 -> 316        0.26846

 Excited State   4:      Singlet-A      2.1652 eV  572.63 nm  f=0.1632  <S**2>=0.000
     309 -> 313        0.65079
     311 -> 315        0.25699

 Excited State   5:      Singlet-A      3.7349 eV  331.96 nm  f=0.0000  <S**2>=0.000
     312 -> 313        0.70707

 The electronic state is 1-A.
 Alpha  occ. eigenvalues --  -46.94950 -46.94031 -19.30006 -19.29134 -19.24894
 Alpha  occ. eigenvalues --  -19.24218 -19.24013 -19.23644 -19.23529 -19.23286
 Alpha  occ. eigenvalues --  -14.46890 -14.46869 -14.46781 -14.45948 -14.44317
 Alpha  occ. eigenvalues --  -14.44262 -14.43554 -14.43502 -10.42864 -10.42084
 Alpha  occ. eigenvalues --  -10.39351 -10.38835 -10.38767 -10.38519 -10.35557
 Alpha  occ. eigenvalues --  -10.35235 -10.35152 -10.35012 -10.34986 -10.34935
 Alpha  occ. eigenvalues --  -10.34920 -10.34799 -10.34430 -10.34287 -10.34187
 Alpha  occ. eigenvalues --  -10.34157 -10.34133 -10.33408 -10.33407 -10.33157
 Alpha  occ. eigenvalues --  -10.33043 -10.33024 -10.32994 -10.32971 -10.32955
 Alpha  occ. eigenvalues --  -10.32608 -10.32563 -10.32477 -10.32429 -10.32397
 Alpha  occ. eigenvalues --  -10.32298 -10.32011 -10.31853 -10.31742 -10.31731
 Alpha  occ. eigenvalues --  -10.31641 -10.31627 -10.31610 -10.31380 -10.31226
 Alpha  occ. eigenvalues --  -10.31195 -10.31091 -10.30970 -10.30935 -10.30904
 Alpha  occ. eigenvalues --  -10.30898 -10.30895 -10.30833 -10.30715 -10.30698
 Alpha  occ. eigenvalues --  -10.30516 -10.30288 -10.30254 -10.30158 -10.30084
 Alpha  occ. eigenvalues --  -10.30017 -10.29773 -10.29643 -10.29632 -10.29617
 Alpha  occ. eigenvalues --  -10.29531 -10.29426 -10.29414 -10.28798 -10.28763
 Alpha  occ. eigenvalues --  -10.28659  -3.20939  -3.20223  -1.94525  -1.94041
 Alpha  occ. eigenvalues --   -1.93928  -1.93818  -1.93369  -1.93202  -1.20088
 Alpha  occ. eigenvalues --   -1.17905  -1.13628  -1.13098  -1.11076  -1.10716
 Alpha  occ. eigenvalues --   -1.09950  -1.09711  -1.06598  -1.05868  -1.05747
 Alpha  occ. eigenvalues --   -1.05388  -1.05325  -1.04574  -1.04546  -1.03662
 Alpha  occ. eigenvalues --   -0.95049  -0.94038  -0.91270  -0.90875  -0.90640
 Alpha  occ. eigenvalues --   -0.90201  -0.90186  -0.90018  -0.89572  -0.89438
 Alpha  occ. eigenvalues --   -0.89145  -0.88809  -0.88721  -0.88022  -0.86512
 Alpha  occ. eigenvalues --   -0.85869  -0.85744  -0.85130  -0.84827  -0.84314
 Alpha  occ. eigenvalues --   -0.84115  -0.84007  -0.83139  -0.82708  -0.82558
 Alpha  occ. eigenvalues --   -0.82087  -0.80304  -0.80126  -0.79245  -0.78930
 Alpha  occ. eigenvalues --   -0.78824  -0.78616  -0.77874  -0.77520  -0.77206
 Alpha  occ. eigenvalues --   -0.76806  -0.75430  -0.74809  -0.73415  -0.73326
 Alpha  occ. eigenvalues --   -0.71616  -0.71552  -0.70821  -0.70715  -0.69774
 Alpha  occ. eigenvalues --   -0.69738  -0.69080  -0.69013  -0.67331  -0.67055
 Alpha  occ. eigenvalues --   -0.66910  -0.66614  -0.66563  -0.66403  -0.66344
 Alpha  occ. eigenvalues --   -0.65943  -0.64292  -0.63515  -0.62412  -0.62120
 Alpha  occ. eigenvalues --   -0.61978  -0.61515  -0.60985  -0.60855  -0.60487
 Alpha  occ. eigenvalues --   -0.60311  -0.60296  -0.59875  -0.59658  -0.58949
 Alpha  occ. eigenvalues --   -0.58495  -0.58143  -0.58087  -0.57716  -0.57086
 Alpha  occ. eigenvalues --   -0.57034  -0.56581  -0.56420  -0.56287  -0.56246
 Alpha  occ. eigenvalues --   -0.56103  -0.55658  -0.55444  -0.55122  -0.54692
 Alpha  occ. eigenvalues --   -0.54666  -0.54439  -0.54356  -0.54230  -0.54008
 Alpha  occ. eigenvalues --   -0.53943  -0.53663  -0.53607  -0.53332  -0.53273
 Alpha  occ. eigenvalues --   -0.52986  -0.52500  -0.52260  -0.52209  -0.52146
 Alpha  occ. eigenvalues --   -0.51918  -0.51774  -0.51663  -0.51594  -0.51464
 Alpha  occ. eigenvalues --   -0.51409  -0.51150  -0.51111  -0.51067  -0.50860
 Alpha  occ. eigenvalues --   -0.50815  -0.50391  -0.50318  -0.50055  -0.49963
 Alpha  occ. eigenvalues --   -0.49787  -0.49709  -0.49701  -0.49278  -0.49012
 Alpha  occ. eigenvalues --   -0.48801  -0.48723  -0.48444  -0.48334  -0.48302
 Alpha  occ. eigenvalues --   -0.47939  -0.47877  -0.47717  -0.47431  -0.47405
 Alpha  occ. eigenvalues --   -0.47339  -0.47267  -0.47166  -0.47048  -0.47012
 Alpha  occ. eigenvalues --   -0.46852  -0.46831  -0.46702  -0.46508  -0.46287
 Alpha  occ. eigenvalues --   -0.46009  -0.45830  -0.45825  -0.45551  -0.45506
 Alpha  occ. eigenvalues --   -0.45427  -0.45191  -0.45149  -0.44725  -0.44601
 Alpha  occ. eigenvalues --   -0.44527  -0.44478  -0.44044  -0.43915  -0.43844
 Alpha  occ. eigenvalues --   -0.43631  -0.43515  -0.43414  -0.43323  -0.43096
 Alpha  occ. eigenvalues --   -0.43002  -0.42899  -0.42859  -0.42744  -0.42442
 Alpha  occ. eigenvalues --   -0.42371  -0.41270  -0.41101  -0.40853  -0.40755
 Alpha  occ. eigenvalues --   -0.40094  -0.40036  -0.39724  -0.39652  -0.39160
 Alpha  occ. eigenvalues --   -0.39044  -0.38621  -0.38562  -0.38506  -0.38325
 Alpha  occ. eigenvalues --   -0.38105  -0.37786  -0.36617  -0.36219  -0.35978
 Alpha  occ. eigenvalues --   -0.35787  -0.35374  -0.34920  -0.33663  -0.33525
 Alpha  occ. eigenvalues --   -0.32881  -0.32706  -0.32626  -0.32545  -0.32341
 Alpha  occ. eigenvalues --   -0.32212  -0.31973  -0.31935  -0.26036  -0.25551
 Alpha  occ. eigenvalues --   -0.23280  -0.22813
 Alpha virt. eigenvalues --   -0.07455  -0.06941   0.00506   0.00751   0.02544
 Alpha virt. eigenvalues --    0.02889   0.04591   0.04676   0.05603   0.06223
 Alpha virt. eigenvalues --    0.07442   0.07932   0.08089   0.08256   0.08771

 Mulliken charges:
               1
     1  Mg   0.977078
     2  C   -0.038748
     3  C   -0.072006
     4  C   -0.068469
     5  C   -0.096340
     6  N   -0.383302
     7  C   -0.009755
     8  C   -0.026975
     9  C   -0.121366
    10  C    0.109385
    11  C   -0.013755
    12  C   -0.019289
    13  C   -0.123115
    14  H    0.029466
    15  N   -0.491458
    16  C    0.111845
    17  C   -0.136109
    18  C   -0.128091
    19  C    0.164450
    20  C    0.081586
    21  C    0.041208
    22  O   -0.208179
    23  C   -0.027563
    24  N   -0.338881
    25  C    0.031448
    26  C   -0.031775
    27  C   -0.109745
    28  C    0.026703
    29  C    0.019840
    30  C   -0.035780
    31  C   -0.029311
    32  N   -0.401391
    33  C    0.165399
    34  C   -0.241984
    35  C    0.013938
    36  C    0.138217
    37  C    0.096274
    38  C    0.119888
    39  O   -0.173168
    40  C   -0.118083
    41  C    0.285069
    42  O   -0.233208
    43  O   -0.386758
    44  C    0.128177
    45  H   -0.028654
    46  H    0.025183
    47  H    0.001823
    48  H    0.050907
    49  H    0.047784
    50  H    0.031132
    51  H    0.050507
    52  H    0.042834
    53  H    0.033609
    54  H    0.059717
    55  H    0.061161
    56  H    0.063885
    57  H    0.057845
    58  H    0.039888
    59  H    0.047166
    60  H    0.079779
    61  H    0.047415
    62  H    0.040005
    63  H    0.038809
    64  H    0.032576
    65  H    0.032721
    66  H    0.039155
    67  H    0.051723
    68  H    0.028414
    69  H    0.032703
    70  H    0.031946
    71  H    0.042743
    72  H    0.037503
    73  H    0.058583
    74  H    0.027595
    75  H    0.045806
    76  H    0.080899
    77  H    0.063670
    78  H    0.072810
    79  H    0.054993
    80  Mg   0.992290
    81  C   -0.044863
    82  C   -0.105279
    83  C   -0.051536
    84  C   -0.104140
    85  N   -0.350028
    86  C   -0.028148
    87  C   -0.021362
    88  C   -0.162788
    89  C    0.116173
    90  C    0.006181
    91  C    0.037902
    92  C   -0.145955
    93  H    0.028804
    94  N   -0.425496
    95  C    0.160236
    96  C   -0.175114
    97  C   -0.074109
    98  C    0.171383
    99  C    0.066435
   100  C    0.038111
   101  O   -0.260162
   102  C    0.004589
   103  N   -0.396139
   104  C    0.027539
   105  C   -0.070186
   106  C   -0.076020
   107  C    0.087048
   108  C    0.029252
   109  C   -0.031244
   110  C   -0.058197
   111  N   -0.470164
   112  C    0.132185
   113  C   -0.134465
   114  C   -0.037959
   115  C    0.195415
   116  C    0.072403
   117  C    0.096095
   118  O   -0.219441
   119  C   -0.078090
   120  C    0.235417
   121  O   -0.251470
   122  O   -0.328069
   123  C    0.135807
   124  H   -0.001996
   125  H    0.021846
   126  H   -0.004714
   127  H    0.033220
   128  H    0.042982
   129  H    0.043827
   130  H    0.040433
   131  H    0.035249
   132  H    0.039550
   133  H    0.030010
   134  H    0.063253
   135  H    0.056166
   136  H    0.042444
   137  H    0.057141
   138  H    0.056433
   139  H    0.055917
   140  H    0.067037
   141  H    0.045071
   142  H    0.038401
   143  H    0.027396
   144  H    0.039907
   145  H    0.027326
   146  H    0.056777
   147  H    0.029173
   148  H    0.032942
   149  H    0.037765
   150  H    0.047631
   151  H    0.028738
   152  H    0.045966
   153  H    0.055567
   154  H    0.045368
   155  H    0.065522
   156  H    0.042563
   157  H    0.055531
   158  H    0.066717
 Sum of Mulliken charges =  -0.00000

 Dipole moment (field-independent basis, Debye):
    X=              5.2265    Y=              0.4123    Z=              3.8790  Tot=              6.5217
 Quadrupole moment (field-independent basis, Debye-Ang):
   XX=           -626.5057   YY=           -468.6565   ZZ=           -511.8613
   XY=             50.3506   XZ=             48.5345   YZ=              8.9242

 Normal termination of Gaussian 16 at Sun Sep 19 06:53:39 2021.
