 Gaussian 16, Revision A.03,
 Gaussian 16:  ES64L-G16RevA.03 25-Dec-2016

 --------------------------------
 #p wB97XD/Def2SVP td=(nstates=5)
 --------------------------------

 --------------------------------
 TDDFT excited states in gaussian
 --------------------------------
 Symbolic Z-matrix:
 Charge =  0 Multiplicity = 1

                         Standard orientation:
 ---------------------------------------------------------------------
 Center     Atomic      Atomic             Coordinates (Angstroms)
 Number     Number       Type             X           Y           Z
 ---------------------------------------------------------------------
      1         12           0       -0.757163    0.065795   -0.602750
      2          6           0        2.860667    0.138794   -0.189319
      3          6           0       -0.515881   -3.353512   -0.802000
      4          6           0       -3.910624   -0.143375    0.490108
      5          6           0       -0.789892    3.462721   -0.524232
      6          7           0        1.001910   -1.438665   -0.303967
      7          6           0        2.413646   -1.158783   -0.222752
      8          6           0        3.200028   -2.462756   -0.384107
      9          6           0        2.158534   -3.476869   -0.942417
     10          6           0        0.758130   -2.758345   -0.704750
     11          6           0        2.357769   -3.812235   -2.495969
     12          6           0        4.031777   -2.912321    0.781419
     13          6           0        3.726328   -2.283854    2.161571
     14          1           0        4.394190   -2.636005    3.503363
     15          7           0       -2.101034   -1.548304   -0.338025
     16          6           0       -1.789931   -2.885071   -0.454002
     17          6           0       -3.051020   -3.671625   -0.281661
     18          6           0       -3.966047   -2.737619    0.197431
     19          6           0       -3.365754   -1.405619    0.198310
     20          6           0       -3.068352   -5.144445   -0.490626
     21          6           0       -5.407665   -3.081647    0.672885
     22          8           0       -5.729692   -4.256016    0.708086
     23          6           0       -6.375768   -2.091865    1.231040
     24          7           0       -2.062455    1.509459    0.050751
     25          6           0       -3.379772    1.135583    0.313985
     26          6           0       -4.269054    2.363432    0.510076
     27          6           0       -3.394254    3.520267   -0.095501
     28          6           0       -2.045662    2.811281   -0.238926
     29          6           0       -5.698454    2.345230   -0.090069
     30          6           0       -3.329788    4.841572    0.735800
     31          6           0       -4.144246    6.080608    0.142699
     32          7           0        0.709234    1.556418   -0.482297
     33          6           0        0.525965    2.930069   -0.546054
     34          6           0        1.812769    3.571895   -0.657226
     35          6           0        2.701316    2.510140   -0.439671
     36          6           0        1.956419    1.307283   -0.365232
     37          6           0        2.000350    5.093882   -0.781276
     38          6           0        4.080066    2.136897   -0.356333
     39          8           0        5.044653    2.917973   -0.482445
     40          6           0        4.290757    0.558252   -0.330937
     41          6           0        5.181109    0.326588    0.823937
     42          8           0        5.043773    0.779732    1.965124
     43          8           0        6.105262   -0.579854    0.421722
     44          6           0        7.238696   -0.834776    1.365134
     45          1           0       -0.438828   -4.441390   -0.847736
     46          1           0       -4.944324   -0.227369    0.832724
     47          1           0       -0.832091    4.548846   -0.625548
     48          1           0        3.845210   -2.133189   -1.198531
     49          1           0        2.066514   -4.373536   -0.329281
     50          1           0        2.658557   -4.859113   -2.485784
     51          1           0        3.094722   -3.131129   -2.922199
     52          1           0        1.368631   -3.713139   -2.944470
     53          1           0        5.070166   -2.792215    0.473051
     54          1           0        3.819118   -3.981900    0.780322
     55          1           0        2.654715   -2.431741    2.298950
     56          1           0        3.919815   -1.211630    2.124166
     57          1           0       -3.216116   -5.583005    0.495822
     58          1           0       -2.116990   -5.435138   -0.935146
     59          1           0       -3.847344   -5.397735   -1.210588
     60          1           0       -6.128892   -1.605301    2.173887
     61          1           0       -7.326052   -2.545589    1.510926
     62          1           0       -6.506178   -1.437508    0.369230
     63          1           0       -4.293260    2.336222    1.600083
     64          1           0       -3.803888    3.675478   -1.093851
     65          1           0       -6.474815    2.119203    0.641577
     66          1           0       -5.771894    1.549363   -0.830468
     67          1           0       -5.853044    3.301103   -0.591769
     68          1           0       -2.318394    5.197921    0.933228
     69          1           0       -3.704637    4.550107    1.717020
     70          1           0       -4.627679    6.477231    1.035143
     71          1           0       -4.884742    5.824757   -0.615282
     72          1           0       -3.420112    6.715532   -0.366549
     73          1           0        2.894353    5.410801   -1.318779
     74          1           0        2.104233    5.369930    0.267500
     75          1           0        1.205301    5.522561   -1.390991
     76          1           0        4.723578    0.238820   -1.280091
     77          1           0        7.904367   -1.582543    0.932668
     78          1           0        6.879250   -1.225705    2.317203
     79          1           0        7.693981    0.151747    1.440064
 ---------------------------------------------------------------------

 SCF Done:  E(RwB97XD) =  -2035.27195622     A.U. after   20 cycles

 Excitation energies and oscillator strengths:

 Excited State   1:      Singlet-A      1.6105 eV  769.86 nm  f=0.3581  <S**2>=0.000
     155 ->158        -0.16159
     156 ->157         0.68855
     155 <-158        -0.11001
 This state for optimization and/or second-order correction.
 Total Energy, E(TD-HF/TD-DFT) =  -2035.21277253
 Copying the excited state density for this state as the 1-particle RhoCI density.

 Excited State   2:      Singlet-A      2.2277 eV  556.56 nm  f=0.0764  <S**2>=0.000
     155 ->157         0.61812
     156 ->158         0.32519

 Excited State   3:      Singlet-A      3.3589 eV  369.12 nm  f=0.1113  <S**2>=0.000
     152 ->157         0.46341
     154 ->157        -0.33386
     154 ->159         0.13838
     154 ->161        -0.15316
     155 ->157         0.10232
     156 ->158        -0.30041

 Excited State   4:      Singlet-A      3.3909 eV  365.64 nm  f=0.0315  <S**2>=0.000
     152 ->157         0.35532
     153 ->157        -0.12831
     154 ->157         0.44583
     154 ->159        -0.20743
     154 ->161         0.23297
     156 ->158        -0.16209

 Excited State   5:      Singlet-A      3.5333 eV  350.90 nm  f=0.2868  <S**2>=0.000
     152 ->157        -0.19949
     153 ->157         0.49705
     154 ->157         0.11583
     155 ->157         0.18952
     156 ->158        -0.37832

 The electronic state is 1-A.
 Alpha  occ. eigenvalues --  -46.95656 -19.30563 -19.24349 -19.24144 -19.22094
 Alpha  occ. eigenvalues --  -14.47069 -14.46195 -14.44365 -14.43269 -10.42962
 Alpha  occ. eigenvalues --  -10.39526 -10.37525 -10.36062 -10.35864 -10.35747
 Alpha  occ. eigenvalues --  -10.35010 -10.34966 -10.34950 -10.34527 -10.33065
 Alpha  occ. eigenvalues --  -10.32953 -10.32806 -10.32558 -10.32450 -10.32398
 Alpha  occ. eigenvalues --  -10.31966 -10.31881 -10.31855 -10.31684 -10.31670
 Alpha  occ. eigenvalues --  -10.31553 -10.31393 -10.31277 -10.31226 -10.31111
 Alpha  occ. eigenvalues --  -10.30824 -10.30795 -10.30705 -10.30236 -10.30219
 Alpha  occ. eigenvalues --  -10.29890 -10.29868 -10.27944  -3.21596  -1.95153
 Alpha  occ. eigenvalues --   -1.94740  -1.94544  -1.18228  -1.12954  -1.09637
 Alpha  occ. eigenvalues --   -1.08854  -1.06830  -1.06033  -1.04926  -1.02352
 Alpha  occ. eigenvalues --   -0.93880  -0.91261  -0.90884  -0.90501  -0.88801
 Alpha  occ. eigenvalues --   -0.88646  -0.87999  -0.86293  -0.85599  -0.84667
 Alpha  occ. eigenvalues --   -0.84259  -0.82915  -0.82114  -0.80025  -0.79658
 Alpha  occ. eigenvalues --   -0.78420  -0.77921  -0.77191  -0.75001  -0.73687
 Alpha  occ. eigenvalues --   -0.71561  -0.70967  -0.69565  -0.68921  -0.68141
 Alpha  occ. eigenvalues --   -0.67376  -0.66683  -0.65516  -0.64111  -0.61667
 Alpha  occ. eigenvalues --   -0.61117  -0.61029  -0.59935  -0.59526  -0.59189
 Alpha  occ. eigenvalues --   -0.58763  -0.58160  -0.57100  -0.56528  -0.56181
 Alpha  occ. eigenvalues --   -0.55630  -0.55442  -0.54746  -0.54520  -0.54246
 Alpha  occ. eigenvalues --   -0.53737  -0.53377  -0.53145  -0.52988  -0.52579
 Alpha  occ. eigenvalues --   -0.51896  -0.51547  -0.51534  -0.50839  -0.50716
 Alpha  occ. eigenvalues --   -0.50262  -0.50071  -0.49698  -0.49563  -0.49120
 Alpha  occ. eigenvalues --   -0.48859  -0.48784  -0.48478  -0.48148  -0.47662
 Alpha  occ. eigenvalues --   -0.47415  -0.47116  -0.46891  -0.46331  -0.45934
 Alpha  occ. eigenvalues --   -0.45845  -0.45402  -0.45311  -0.44870  -0.44654
 Alpha  occ. eigenvalues --   -0.44489  -0.44235  -0.44062  -0.43910  -0.43680
 Alpha  occ. eigenvalues --   -0.42959  -0.42782  -0.41824  -0.41248  -0.40995
 Alpha  occ. eigenvalues --   -0.40448  -0.39357  -0.39238  -0.38565  -0.38287
 Alpha  occ. eigenvalues --   -0.37799  -0.36315  -0.35815  -0.34923  -0.33747
 Alpha  occ. eigenvalues --   -0.33168  -0.32323  -0.31546  -0.31150  -0.26399
 Alpha  occ. eigenvalues --   -0.22580
 Alpha virt. eigenvalues --   -0.06922   0.00128   0.03145   0.04471   0.04638
 Alpha virt. eigenvalues --    0.07079   0.07772   0.08822   0.09484   0.11014
 Alpha virt. eigenvalues --    0.11488   0.12145   0.12854   0.12966   0.13592

 Mulliken charges:
               1
     1  Mg   0.954350
     2  C   -0.033059
     3  C   -0.082915
     4  C   -0.079698
     5  C   -0.083033
     6  N   -0.368316
     7  C   -0.053607
     8  C   -0.004851
     9  C   -0.142404
    10  C    0.044526
    11  C    0.037081
    12  C    0.030576
    13  C   -0.102124
    14  H    0.037268
    15  N   -0.470957
    16  C    0.144914
    17  C   -0.159854
    18  C   -0.079514
    19  C    0.169625
    20  C    0.104782
    21  C    0.036130
    22  O   -0.227565
    23  C    0.001982
    24  N   -0.386308
    25  C    0.091587
    26  C   -0.126893
    27  C   -0.015489
    28  C    0.025783
    29  C    0.031690
    30  C   -0.022276
    31  C   -0.061816
    32  N   -0.378481
    33  C    0.092477
    34  C   -0.180574
    35  C   -0.010813
    36  C    0.119060
    37  C    0.073311
    38  C    0.083827
    39  O   -0.250548
    40  C   -0.041247
    41  C    0.265218
    42  O   -0.260781
    43  O   -0.368601
    44  C    0.138622
    45  H    0.004096
    46  H   -0.041762
    47  H   -0.008984
    48  H    0.025742
    49  H    0.039999
    50  H    0.048685
    51  H    0.050478
    52  H    0.040815
    53  H    0.031525
    54  H    0.017646
    55  H    0.047101
    56  H    0.072024
    57  H    0.073546
    58  H    0.022221
    59  H    0.060946
    60  H    0.076688
    61  H    0.048885
    62  H    0.056619
    63  H    0.052208
    64  H    0.031502
    65  H    0.041498
    66  H    0.036516
    67  H    0.042376
    68  H    0.044456
    69  H    0.024548
    70  H    0.051168
    71  H    0.034948
    72  H    0.047441
    73  H    0.051615
    74  H    0.071748
    75  H    0.038729
    76  H    0.074317
    77  H    0.059709
    78  H    0.067148
    79  H    0.072723
 Sum of Mulliken charges =  -0.00000

 Dipole moment (field-independent basis, Debye):
    X=             -3.6923    Y=             -0.7844    Z=             -2.6469  Tot=              4.6102
 Quadrupole moment (field-independent basis, Debye-Ang):
   XX=           -250.2379   YY=           -253.0437   ZZ=           -256.1339
   XY=            -49.1636   XZ=             -4.6027   YZ=              2.8393

 Normal termination of Gaussian 16 at Sat Sep 18 16:12:32 2021.
