 Gaussian 16, Revision A.03,
 Gaussian 16:  ES64L-G16RevA.03 25-Dec-2016

 --------------------------------
 #p wB97XD/Def2SVP td=(nstates=5)
 --------------------------------

 --------------------------------
 TDDFT excited states in gaussian
 --------------------------------
 Symbolic Z-matrix:
 Charge =  0 Multiplicity = 1

                         Standard orientation:
 ---------------------------------------------------------------------
 Center     Atomic      Atomic             Coordinates (Angstroms)
 Number     Number       Type             X           Y           Z
 ---------------------------------------------------------------------
      1         12           0       28.978661    0.185363   -0.125584
      2          6           0       26.013738   -1.625204   -0.111070
      3          6           0       27.005922    2.964316   -1.219782
      4          6           0       31.587409    2.143703    0.280150
      5          6           0       30.513621   -2.457362    1.611547
      6          7           0       26.754966    0.623840   -0.483668
      7          6           0       25.773397   -0.341691   -0.490751
      8          6           0       24.422279    0.283380   -0.848574
      9          6           0       24.855735    1.648529   -1.450830
     10          6           0       26.285258    1.799141   -1.001291
     11          6           0       24.755721    1.849053   -3.014019
     12          6           0       23.480985    0.418208    0.359647
     13          6           0       22.100563    0.856923    0.051239
     14          1           0       20.984064    0.512403    1.109460
     15          7           0       29.281168    2.296775   -0.414563
     16          6           0       28.364283    3.247118   -0.890242
     17          6           0       29.034407    4.515673   -0.959561
     18          6           0       30.347769    4.325785   -0.391111
     19          6           0       30.461663    2.843063   -0.167635
     20          6           0       28.324297    5.823064   -1.407187
     21          6           0       31.342048    5.475886   -0.202242
     22          8           0       31.134802    6.588768   -0.656725
     23          6           0       32.595060    5.225844    0.546709
     24          7           0       30.863462   -0.209869    0.622195
     25          6           0       31.774326    0.769222    0.635752
     26          6           0       33.068542    0.283615    1.405781
     27          6           0       32.751212   -1.178384    1.904842
     28          6           0       31.215804   -1.296196    1.384665
     29          6           0       34.431904    0.429155    0.680028
     30          6           0       32.841502   -1.248945    3.444280
     31          6           0       33.249737   -2.613456    4.012742
     32          7           0       28.450473   -1.699208    0.635302
     33          6           0       29.188191   -2.704383    1.195235
     34          6           0       28.341359   -3.898766    1.299161
     35          6           0       27.152255   -3.540497    0.722919
     36          6           0       27.216203   -2.205285    0.394643
     37          6           0       28.782101   -5.276078    1.805234
     38          6           0       25.833638   -4.008013    0.417448
     39          8           0       25.308323   -5.086835    0.542220
     40          6           0       25.041978   -2.783744   -0.152187
     41          6           0       24.691723   -3.094538   -1.565401
     42          8           0       25.426811   -3.497827   -2.423570
     43          8           0       23.360993   -2.702327   -1.791796
     44          6           0       22.887572   -2.861307   -3.137359
     45          1           0       26.341789    3.720630   -1.642209
     46          1           0       32.534240    2.661077    0.451057
     47          1           0       30.980118   -3.323703    2.085404
     48          1           0       24.019347   -0.325588   -1.656701
     49          1           0       24.368316    2.529169   -1.033967
     50          1           0       24.201053    2.780780   -3.123007
     51          1           0       24.547739    0.972422   -3.628090
     52          1           0       25.759948    2.102374   -3.353492
     53          1           0       23.761900    1.173867    1.093748
     54          1           0       23.444281   -0.524291    0.906062
     55          1           0       21.840755    0.413326   -0.909917
     56          1           0       22.104419    1.932794   -0.122788
     57          1           0       28.223187    6.264589   -0.415244
     58          1           0       27.294445    5.715067   -1.748148
     59          1           0       28.762895    6.538569   -2.102978
     60          1           0       32.271552    4.729969    1.461879
     61          1           0       33.025468    6.187558    0.826383
     62          1           0       33.170885    4.593779   -0.129772
     63          1           0       33.156546    0.946379    2.267116
     64          1           0       33.349346   -1.965332    1.446542
     65          1           0       34.972679    1.254975    1.143381
     66          1           0       34.245851    0.534799   -0.388253
     67          1           0       35.053589   -0.441688    0.887868
     68          1           0       31.849238   -0.964276    3.793320
     69          1           0       33.477390   -0.482755    3.888243
     70          1           0       34.139413   -2.375707    4.596890
     71          1           0       33.402590   -3.390274    3.263444
     72          1           0       32.498833   -2.968555    4.718644
     73          1           0       28.096418   -5.785889    2.481206
     74          1           0       29.737491   -5.043573    2.276227
     75          1           0       29.092719   -5.833199    0.921220
     76          1           0       24.149901   -2.683524    0.466199
     77          1           0       22.171740   -3.683057   -3.115046
     78          1           0       23.603407   -3.042794   -3.939432
     79          1           0       22.390620   -1.932507   -3.416174
     80         12           0      -28.671338    0.496353    0.455869
     81          6           0      -27.135605   -2.196029   -1.388697
     82          6           0      -27.794823    2.586673   -2.219876
     83          6           0      -30.168671    2.936525    2.063178
     84          6           0      -29.171743   -1.688000    3.139024
     85          7           0      -27.538051    0.164229   -1.589188
     86          6           0      -27.217190   -1.011440   -2.190935
     87          6           0      -26.896958   -0.827563   -3.665413
     88          6           0      -26.771020    0.787472   -3.841289
     89          6           0      -27.374323    1.217947   -2.473058
     90          6           0      -25.345549    1.301589   -4.163639
     91          6           0      -27.971222   -1.475206   -4.603014
     92          6           0      -27.394350   -2.514682   -5.598695
     93          1           0      -27.548869   -2.079297   -7.168110
     94          7           0      -28.940318    2.424005   -0.003536
     95          6           0      -28.497456    3.183240   -1.139137
     96          6           0      -28.913001    4.605178   -1.095112
     97          6           0      -29.648045    4.651289    0.134562
     98          6           0      -29.607423    3.323454    0.769849
     99          6           0      -28.561062    5.656211   -2.149836
    100          6           0      -30.279329    5.822111    0.786396
    101          8           0      -31.087952    5.777246    1.707196
    102          6           0      -30.014223    7.214139    0.180023
    103          7           0      -29.673346    0.540842    2.226191
    104          6           0      -30.194391    1.691520    2.709909
    105          6           0      -30.615117    1.586106    4.149424
    106          6           0      -30.355531    0.104551    4.517690
    107          6           0      -29.740926   -0.431804    3.205188
    108          6           0      -29.987199    2.611221    5.070290
    109          6           0      -31.764581   -0.660657    4.864245
    110          6           0      -31.818757   -1.421102    6.298489
    111          7           0      -28.016030   -1.466749    0.943702
    112          6           0      -28.392851   -2.233281    2.072719
    113          6           0      -27.886891   -3.596325    1.874585
    114          6           0      -27.532327   -3.617114    0.499982
    115          6           0      -27.513414   -2.302551    0.031429
    116          6           0      -27.813032   -4.765577    2.851943
    117          6           0      -26.875865   -4.497274   -0.507563
    118          8           0      -26.449344   -5.685261   -0.522112
    119          6           0      -26.727999   -3.598911   -1.795961
    120          6           0      -25.303660   -3.668143   -2.262121
    121          8           0      -24.351411   -3.591948   -1.538376
    122          8           0      -25.273834   -3.947661   -3.600188
    123          6           0      -23.926665   -4.365982   -4.063540
    124          1           0      -27.382685    3.216158   -3.011036
    125          1           0      -30.677449    3.705067    2.649298
    126          1           0      -29.351008   -2.397920    3.948873
    127          1           0      -25.906222   -1.257686   -3.812392
    128          1           0      -27.452479    1.179608   -4.596713
    129          1           0      -24.957447    1.908950   -3.345438
    130          1           0      -25.349678    1.882236   -5.087017
    131          1           0      -24.606602    0.536778   -4.402762
    132          1           0      -28.483022   -0.726302   -5.207975
    133          1           0      -28.733986   -2.006583   -4.033242
    134          1           0      -27.964348   -3.443745   -5.625596
    135          1           0      -26.376293   -2.842284   -5.390486
    136          1           0      -28.234292    5.291384   -3.124116
    137          1           0      -27.844153    6.414696   -1.835600
    138          1           0      -29.492471    6.195458   -2.325357
    139          1           0      -28.951218    7.451011    0.224055
    140          1           0      -30.611955    7.993670    0.653615
    141          1           0      -30.319447    7.184339   -0.865933
    142          1           0      -31.673491    1.843635    4.208193
    143          1           0      -29.626266    0.018840    5.322713
    144          1           0      -30.682570    3.383863    5.399435
    145          1           0      -29.188410    3.204649    4.625602
    146          1           0      -29.563031    2.079312    5.922161
    147          1           0      -32.053485   -1.410949    4.128967
    148          1           0      -32.614394    0.021031    4.887175
    149          1           0      -31.041794   -0.953368    6.903503
    150          1           0      -31.649073   -2.493738    6.196232
    151          1           0      -32.735449   -1.185557    6.838503
    152          1           0      -27.925194   -5.727560    2.352213
    153          1           0      -28.698765   -4.713202    3.486129
    154          1           0      -26.915241   -4.552186    3.432239
    155          1           0      -27.313749   -4.097359   -2.567910
    156          1           0      -23.224486   -3.589449   -3.760763
    157          1           0      -24.005439   -4.309596   -5.149116
    158          1           0      -23.507001   -5.305090   -3.703004
 ---------------------------------------------------------------------

 SCF Done:  E(RwB97XD) =  -4070.60441574     A.U. after   20 cycles

 Excitation energies and oscillator strengths:

 Excited State   1:      Singlet-A      1.6155 eV  767.45 nm  f=0.3686  <S**2>=0.000
     310 -> 316       -0.19317
     312 -> 314        0.68205
     310 <- 316       -0.12122
 This state for optimization and/or second-order correction.
 Total Energy, E(TD-HF/TD-DFT) =  -4070.54504625
 Copying the excited state density for this state as the 1-particle RhoCI density.

 Excited State   2:      Singlet-A      1.7221 eV  719.94 nm  f=0.3964  <S**2>=0.000
     309 -> 315       -0.17625
     311 -> 313        0.68546
     309 <- 315       -0.11115

 Excited State   3:      Singlet-A      2.1191 eV  585.08 nm  f=0.1303  <S**2>=0.000
     310 -> 314        0.64521
     312 -> 316        0.27989

 Excited State   4:      Singlet-A      2.2424 eV  552.91 nm  f=0.1148  <S**2>=0.000
     309 -> 313        0.63518
     311 -> 315        0.29256

 Excited State   5:      Singlet-A      3.2985 eV  375.88 nm  f=0.0028  <S**2>=0.000
     301 -> 313       -0.12771
     306 -> 313        0.40279
     307 -> 313        0.52805
     311 -> 315        0.11705

 The electronic state is 1-A.
 Alpha  occ. eigenvalues --  -46.96009 -46.94860 -19.30865 -19.30177 -19.25407
 Alpha  occ. eigenvalues --  -19.24663 -19.24014 -19.23762 -19.23744 -19.23530
 Alpha  occ. eigenvalues --  -14.47250 -14.47234 -14.46977 -14.46501 -14.45369
 Alpha  occ. eigenvalues --  -14.44867 -14.43827 -14.43653 -10.43338 -10.42653
 Alpha  occ. eigenvalues --  -10.39180 -10.39121 -10.38864 -10.38118 -10.36455
 Alpha  occ. eigenvalues --  -10.35912 -10.35720 -10.35686 -10.35673 -10.35625
 Alpha  occ. eigenvalues --  -10.35340 -10.35297 -10.35198 -10.35061 -10.34956
 Alpha  occ. eigenvalues --  -10.34914 -10.34904 -10.34774 -10.34551 -10.33975
 Alpha  occ. eigenvalues --  -10.33797 -10.33292 -10.33165 -10.33122 -10.32956
 Alpha  occ. eigenvalues --  -10.32916 -10.32711 -10.32554 -10.32530 -10.32506
 Alpha  occ. eigenvalues --  -10.32371 -10.32331 -10.32277 -10.32275 -10.32249
 Alpha  occ. eigenvalues --  -10.32243 -10.32230 -10.32028 -10.32019 -10.31951
 Alpha  occ. eigenvalues --  -10.31907 -10.31865 -10.31772 -10.31616 -10.31437
 Alpha  occ. eigenvalues --  -10.31281 -10.31189 -10.31160 -10.30895 -10.30717
 Alpha  occ. eigenvalues --  -10.30714 -10.30500 -10.30460 -10.30402 -10.30330
 Alpha  occ. eigenvalues --  -10.30189 -10.30149 -10.29987 -10.29951 -10.29936
 Alpha  occ. eigenvalues --  -10.29875 -10.29727 -10.29434 -10.29348 -10.29207
 Alpha  occ. eigenvalues --  -10.27932  -3.21887  -3.20937  -1.95479  -1.95011
 Alpha  occ. eigenvalues --   -1.94841  -1.94526  -1.94061  -1.93927  -1.19118
 Alpha  occ. eigenvalues --   -1.18765  -1.12531  -1.12383  -1.12212  -1.11023
 Alpha  occ. eigenvalues --   -1.10872  -1.09288  -1.06600  -1.05980  -1.05841
 Alpha  occ. eigenvalues --   -1.05738  -1.05273  -1.04870  -1.04629  -1.04066
 Alpha  occ. eigenvalues --   -0.95222  -0.93539  -0.91289  -0.91185  -0.90712
 Alpha  occ. eigenvalues --   -0.90610  -0.90361  -0.90021  -0.90001  -0.89357
 Alpha  occ. eigenvalues --   -0.88944  -0.88426  -0.87904  -0.87547  -0.87153
 Alpha  occ. eigenvalues --   -0.85942  -0.85921  -0.85090  -0.85057  -0.84528
 Alpha  occ. eigenvalues --   -0.83697  -0.83336  -0.83243  -0.82828  -0.82616
 Alpha  occ. eigenvalues --   -0.81710  -0.81084  -0.79717  -0.79268  -0.79071
 Alpha  occ. eigenvalues --   -0.79013  -0.78703  -0.78133  -0.77961  -0.77497
 Alpha  occ. eigenvalues --   -0.77167  -0.75213  -0.74548  -0.74039  -0.73400
 Alpha  occ. eigenvalues --   -0.71314  -0.71157  -0.70987  -0.70657  -0.69758
 Alpha  occ. eigenvalues --   -0.69530  -0.69102  -0.68764  -0.67994  -0.67827
 Alpha  occ. eigenvalues --   -0.67602  -0.67559  -0.66970  -0.66619  -0.66408
 Alpha  occ. eigenvalues --   -0.66015  -0.64673  -0.64340  -0.62839  -0.62311
 Alpha  occ. eigenvalues --   -0.61878  -0.61297  -0.61218  -0.60792  -0.60735
 Alpha  occ. eigenvalues --   -0.60452  -0.60328  -0.59922  -0.59569  -0.59129
 Alpha  occ. eigenvalues --   -0.58500  -0.58149  -0.57834  -0.57454  -0.57255
 Alpha  occ. eigenvalues --   -0.56944  -0.56835  -0.56460  -0.56321  -0.55950
 Alpha  occ. eigenvalues --   -0.55718  -0.55527  -0.55345  -0.55280  -0.55107
 Alpha  occ. eigenvalues --   -0.54626  -0.54579  -0.54518  -0.54138  -0.53852
 Alpha  occ. eigenvalues --   -0.53661  -0.53616  -0.53611  -0.53333  -0.53285
 Alpha  occ. eigenvalues --   -0.52812  -0.52772  -0.52653  -0.52409  -0.52304
 Alpha  occ. eigenvalues --   -0.52204  -0.51974  -0.51890  -0.51799  -0.51705
 Alpha  occ. eigenvalues --   -0.51405  -0.51247  -0.51159  -0.50970  -0.50832
 Alpha  occ. eigenvalues --   -0.50727  -0.50247  -0.50207  -0.50067  -0.50047
 Alpha  occ. eigenvalues --   -0.49941  -0.49535  -0.49485  -0.49413  -0.49334
 Alpha  occ. eigenvalues --   -0.49087  -0.48991  -0.48975  -0.48771  -0.48482
 Alpha  occ. eigenvalues --   -0.48419  -0.48337  -0.48127  -0.48084  -0.47871
 Alpha  occ. eigenvalues --   -0.47785  -0.47485  -0.47303  -0.47026  -0.46902
 Alpha  occ. eigenvalues --   -0.46739  -0.46675  -0.46643  -0.46336  -0.46083
 Alpha  occ. eigenvalues --   -0.46028  -0.45869  -0.45783  -0.45718  -0.45649
 Alpha  occ. eigenvalues --   -0.45293  -0.45269  -0.45164  -0.44884  -0.44765
 Alpha  occ. eigenvalues --   -0.44640  -0.44539  -0.44337  -0.44242  -0.44185
 Alpha  occ. eigenvalues --   -0.44094  -0.44009  -0.43825  -0.43504  -0.43413
 Alpha  occ. eigenvalues --   -0.43256  -0.42704  -0.42601  -0.42494  -0.42379
 Alpha  occ. eigenvalues --   -0.42157  -0.42065  -0.41798  -0.41603  -0.41302
 Alpha  occ. eigenvalues --   -0.40736  -0.40512  -0.40168  -0.40124  -0.39666
 Alpha  occ. eigenvalues --   -0.39443  -0.39330  -0.38897  -0.38533  -0.38519
 Alpha  occ. eigenvalues --   -0.38028  -0.37506  -0.37201  -0.36637  -0.36389
 Alpha  occ. eigenvalues --   -0.36276  -0.35925  -0.35249  -0.33994  -0.33857
 Alpha  occ. eigenvalues --   -0.33061  -0.32963  -0.32612  -0.32594  -0.32476
 Alpha  occ. eigenvalues --   -0.32264  -0.32128  -0.31499  -0.26614  -0.25816
 Alpha  occ. eigenvalues --   -0.23488  -0.23109
 Alpha virt. eigenvalues --   -0.07377  -0.07343  -0.00029   0.00073   0.02175
 Alpha virt. eigenvalues --    0.02984   0.04153   0.04823   0.05203   0.06568
 Alpha virt. eigenvalues --    0.06793   0.06950   0.07580   0.07725   0.07905

 Mulliken charges:
               1
     1  Mg   0.953495
     2  C   -0.018566
     3  C   -0.078128
     4  C   -0.102292
     5  C   -0.070867
     6  N   -0.331645
     7  C   -0.062280
     8  C    0.031486
     9  C   -0.153691
    10  C    0.038819
    11  C    0.036041
    12  C    0.038128
    13  C   -0.109472
    14  H    0.041423
    15  N   -0.434208
    16  C    0.181796
    17  C   -0.135688
    18  C   -0.121049
    19  C    0.236168
    20  C    0.062971
    21  C    0.024937
    22  O   -0.229604
    23  C    0.001913
    24  N   -0.396576
    25  C    0.068717
    26  C   -0.119367
    27  C   -0.097014
    28  C    0.094352
    29  C    0.022081
    30  C   -0.030776
    31  C   -0.043109
    32  N   -0.424939
    33  C    0.086007
    34  C   -0.233571
    35  C    0.018437
    36  C    0.142506
    37  C    0.107333
    38  C    0.094430
    39  O   -0.186540
    40  C   -0.073776
    41  C    0.259959
    42  O   -0.213107
    43  O   -0.378376
    44  C    0.124732
    45  H   -0.006388
    46  H   -0.019696
    47  H   -0.006015
    48  H    0.020819
    49  H    0.031377
    50  H    0.043433
    51  H    0.049291
    52  H    0.029121
    53  H    0.029828
    54  H    0.035488
    55  H    0.036428
    56  H    0.039782
    57  H    0.058586
    58  H    0.019602
    59  H    0.074502
    60  H    0.052447
    61  H    0.058026
    62  H    0.079003
    63  H    0.040395
    64  H    0.042198
    65  H    0.035898
    66  H    0.050038
    67  H    0.035384
    68  H    0.033116
    69  H    0.030000
    70  H    0.038264
    71  H    0.042302
    72  H    0.038960
    73  H    0.070629
    74  H    0.005426
    75  H    0.058182
    76  H    0.072904
    77  H    0.057147
    78  H    0.062227
    79  H    0.040206
    80  Mg   0.990432
    81  C   -0.017450
    82  C   -0.078536
    83  C   -0.086405
    84  C   -0.079810
    85  N   -0.298179
    86  C   -0.019935
    87  C   -0.052803
    88  C   -0.107280
    89  C    0.010928
    90  C    0.015724
    91  C    0.042909
    92  C   -0.139053
    93  H   -0.009629
    94  N   -0.512378
    95  C    0.177388
    96  C   -0.130226
    97  C   -0.070973
    98  C    0.182184
    99  C    0.070209
   100  C    0.029642
   101  O   -0.236659
   102  C   -0.016531
   103  N   -0.420662
   104  C    0.093792
   105  C   -0.078879
   106  C   -0.074216
   107  C    0.101977
   108  C    0.012652
   109  C   -0.031808
   110  C   -0.079636
   111  N   -0.424262
   112  C    0.112405
   113  C   -0.186384
   114  C   -0.110807
   115  C    0.145428
   116  C    0.092657
   117  C    0.193586
   118  O   -0.247694
   119  C   -0.086716
   120  C    0.237205
   121  O   -0.214980
   122  O   -0.372183
   123  C    0.133778
   124  H   -0.004490
   125  H    0.020948
   126  H   -0.003309
   127  H    0.041517
   128  H    0.042924
   129  H    0.048260
   130  H    0.034625
   131  H    0.041322
   132  H    0.049088
   133  H    0.046177
   134  H    0.054724
   135  H    0.060344
   136  H    0.047050
   137  H    0.062949
   138  H    0.044851
   139  H    0.052814
   140  H    0.053686
   141  H    0.038485
   142  H    0.046255
   143  H    0.048435
   144  H    0.040259
   145  H    0.042086
   146  H    0.029149
   147  H    0.043055
   148  H    0.034663
   149  H    0.027520
   150  H    0.051968
   151  H    0.040927
   152  H    0.063931
   153  H    0.026445
   154  H    0.068699
   155  H    0.067091
   156  H    0.050139
   157  H    0.052105
   158  H    0.076481
 Sum of Mulliken charges =  -0.00000

 Dipole moment (field-independent basis, Debye):
    X=              1.3583    Y=              6.4294    Z=             -1.8030  Tot=              6.8142
 Quadrupole moment (field-independent basis, Debye-Ang):
   XX=           -336.4958   YY=           -566.2492   ZZ=           -472.8039
   XY=            -67.2961   XZ=             74.7642   YZ=            -14.1057

 Normal termination of Gaussian 16 at Mon Sep 20 18:18:08 2021.
