 Gaussian 16, Revision A.03,
 Gaussian 16:  ES64L-G16RevA.03 25-Dec-2016

 --------------------------------
 #p wB97XD/Def2SVP td=(nstates=5)
 --------------------------------

 --------------------------------
 TDDFT excited states in gaussian
 --------------------------------
 Symbolic Z-matrix:
 Charge =  0 Multiplicity = 1

                         Standard orientation:
 ---------------------------------------------------------------------
 Center     Atomic      Atomic             Coordinates (Angstroms)
 Number     Number       Type             X           Y           Z
 ---------------------------------------------------------------------
      1         12           0      -20.643414   -0.537434    0.314054
      2          6           0      -19.951490    2.507719   -1.348079
      3          6           0      -19.880531    0.983421    3.120866
      4          6           0      -20.284329   -3.574006    1.571956
      5          6           0      -20.708184   -2.002662   -2.922810
      6          7           0      -20.152280    1.629078    0.757320
      7          6           0      -20.010120    2.665026    0.013750
      8          6           0      -19.946378    3.949315    0.865825
      9          6           0      -19.440148    3.407868    2.298339
     10          6           0      -19.767767    1.876599    2.051240
     11          6           0      -17.923171    3.666612    2.656135
     12          6           0      -21.416024    4.604602    1.025903
     13          6           0      -21.585124    6.154432    1.137979
     14          1           0      -20.381603    6.940178    1.777505
     15          7           0      -20.354711   -1.208893    2.152185
     16          6           0      -20.106512   -0.364016    3.223507
     17          6           0      -19.958348   -1.205649    4.462842
     18          6           0      -20.119492   -2.572746    3.984358
     19          6           0      -20.259910   -2.582309    2.525717
     20          6           0      -19.651411   -0.576851    5.808880
     21          6           0      -20.144609   -3.832452    4.821769
     22          8           0      -20.241716   -4.979842    4.364749
     23          6           0      -20.087356   -3.707455    6.290299
     24          7           0      -20.616997   -2.585827   -0.577876
     25          6           0      -20.404908   -3.630133    0.202400
     26          6           0      -20.740170   -4.975369   -0.582709
     27          6           0      -20.850759   -4.397559   -2.096311
     28          6           0      -20.756382   -2.894147   -1.850312
     29          6           0      -19.690428   -6.114771   -0.365017
     30          6           0      -22.120061   -4.766036   -2.932460
     31          6           0      -21.921093   -5.687142   -4.108644
     32          7           0      -20.603673    0.101264   -1.774493
     33          6           0      -20.643616   -0.646347   -2.934610
     34          6           0      -20.426294    0.180297   -4.047536
     35          6           0      -20.109149    1.420931   -3.462698
     36          6           0      -20.186187    1.355939   -2.091586
     37          6           0      -20.432296   -0.180490   -5.447178
     38          6           0      -19.824257    2.752750   -3.833194
     39          8           0      -19.767807    3.398887   -4.914629
     40          6           0      -19.438688    3.457294   -2.455523
     41          6           0      -20.014510    4.824543   -2.397159
     42          8           0      -21.201343    5.144777   -2.397040
     43          8           0      -18.923150    5.732564   -2.221045
     44          6           0      -19.247917    7.162621   -2.144607
     45          1           0      -19.755293    1.562612    4.038559
     46          1           0      -20.225189   -4.570698    2.012719
     47          1           0      -20.808369   -2.449747   -3.914709
     48          1           0      -19.092984    4.525226    0.508793
     49          1           0      -19.970474    3.957244    3.075427
     50          1           0      -17.348800    3.987856    1.787494
     51          1           0      -17.428257    2.755105    2.990814
     52          1           0      -17.928797    4.447432    3.416573
     53          1           0      -21.954625    4.151363    1.858267
     54          1           0      -22.023978    4.271397    0.184559
     55          1           0      -22.458605    6.460006    1.714858
     56          1           0      -21.540683    6.544969    0.120555
     57          1           0      -20.266989   -0.993227    6.607058
     58          1           0      -19.771183    0.506560    5.813811
     59          1           0      -18.579413   -0.634232    5.996016
     60          1           0      -19.184543   -3.183674    6.605704
     61          1           0      -20.114918   -4.697091    6.746426
     62          1           0      -20.928889   -3.191768    6.752894
     63          1           0      -21.728419   -5.367094   -0.342117
     64          1           0      -19.937602   -4.567998   -2.668472
     65          1           0      -18.845856   -5.746404    0.217588
     66          1           0      -19.516773   -6.426657   -1.395105
     67          1           0      -20.224488   -6.949448    0.087223
     68          1           0      -22.526523   -3.835348   -3.328940
     69          1           0      -22.879156   -5.185797   -2.272098
     70          1           0      -20.891353   -6.021857   -3.990559
     71          1           0      -21.978297   -5.083568   -5.015215
     72          1           0      -22.569359   -6.562312   -4.088684
     73          1           0      -21.367629   -0.708901   -5.629725
     74          1           0      -19.740883   -0.970614   -5.740158
     75          1           0      -20.393815    0.721541   -6.058166
     76          1           0      -18.351070    3.506746   -2.394179
     77          1           0      -18.338864    7.762988   -2.100266
     78          1           0      -19.703335    7.361103   -1.174223
     79          1           0      -19.791352    7.454265   -3.042722
     80         12           0       19.778453   -0.735307   -0.227298
     81          6           0       21.751956    2.220604    0.207746
     82          6           0       17.426297    0.579059    1.901952
     83          6           0       18.080284   -3.654820   -0.205200
     84          6           0       22.663954   -2.271955   -1.551670
     85          7           0       19.631805    1.180043    0.893729
     86          6           0       20.496763    2.285663    0.888708
     87          6           0       19.882442    3.395932    1.702097
     88          6           0       18.821874    2.618524    2.590300
     89          6           0       18.639162    1.310258    1.766106
     90          6           0       19.466363    2.364274    3.999501
     91          6           0       19.353998    4.602074    0.848104
     92          6           0       19.733907    5.857068    1.456340
     93          1           0       19.567630    7.149664    0.509623
     94          7           0       17.900725   -1.299180    0.616391
     95          6           0       17.084585   -0.606731    1.419962
     96          6           0       15.888485   -1.359738    1.641624
     97          6           0       16.045459   -2.601672    1.062978
     98          6           0       17.414540   -2.572045    0.368227
     99          6           0       14.755445   -0.859563    2.593017
    100          6           0       15.042834   -3.771352    0.985530
    101          8           0       15.383644   -4.800256    0.459065
    102          6           0       13.623836   -3.607139    1.476625
    103          7           0       20.428443   -2.748472   -0.558579
    104          6           0       19.458614   -3.743843   -0.606248
    105          6           0       19.990254   -4.970882   -1.272700
    106          6           0       21.464154   -4.526623   -1.731211
    107          6           0       21.520921   -3.074239   -1.319932
    108          6           0       19.914417   -6.185917   -0.411185
    109          6           0       21.862111   -4.746409   -3.292736
    110          6           0       22.994923   -5.642957   -3.603028
    111          7           0       21.797905   -0.188061   -0.665205
    112          6           0       22.817327   -0.947437   -1.193750
    113          6           0       24.030370   -0.037083   -1.374366
    114          6           0       23.623535    1.242067   -0.944838
    115          6           0       22.273123    1.084843   -0.473421
    116          6           0       25.396210   -0.501550   -1.898087
    117          6           0       24.132623    2.553940   -0.681610
    118          8           0       25.260025    3.047252   -0.910553
    119          6           0       23.011100    3.203857    0.228375
    120          6           0       22.814311    4.646278   -0.327505
    121          8           0       21.850903    4.917014   -1.067635
    122          8           0       23.756471    5.471713    0.190914
    123          6           0       23.673827    6.798153   -0.511815
    124          1           0       16.579220    1.067356    2.389002
    125          1           0       17.542636   -4.605724   -0.227739
    126          1           0       23.572515   -2.628852   -2.040889
    127          1           0       20.661902    3.722549    2.390103
    128          1           0       17.905841    3.193440    2.721437
    129          1           0       20.228310    1.585226    3.996586
    130          1           0       18.672936    2.144875    4.712687
    131          1           0       19.930238    3.288950    4.343645
    132          1           0       18.268857    4.595952    0.953459
    133          1           0       19.626786    4.509278   -0.203390
    134          1           0       20.807791    5.895935    1.639787
    135          1           0       19.132684    5.977531    2.357854
    136          1           0       13.872205   -0.893958    1.955266
    137          1           0       14.871279    0.164846    2.946631
    138          1           0       14.705021   -1.497215    3.475503
    139          1           0       13.087737   -4.554650    1.421435
    140          1           0       13.319594   -2.877808    0.725946
    141          1           0       13.661088   -3.217978    2.494065
    142          1           0       19.339036   -5.067267   -2.141651
    143          1           0       22.162835   -5.119153   -1.141098
    144          1           0       19.144415   -6.799080   -0.877689
    145          1           0       19.526879   -5.977888    0.586015
    146          1           0       20.848140   -6.735398   -0.289290
    147          1           0       22.187256   -3.747407   -3.583083
    148          1           0       20.947884   -4.983151   -3.835381
    149          1           0       23.808375   -5.098898   -4.082322
    150          1           0       22.485155   -6.220734   -4.373252
    151          1           0       23.262309   -6.302199   -2.776065
    152          1           0       25.983348   -0.740570   -1.012092
    153          1           0       25.906292    0.268982   -2.476107
    154          1           0       25.248211   -1.346061   -2.571182
    155          1           0       23.466204    3.198739    1.217864
    156          1           0       24.066080    6.804025   -1.528641
    157          1           0       24.145387    7.625250    0.017891
    158          1           0       22.616780    7.064783   -0.503758
 ---------------------------------------------------------------------

 SCF Done:  E(RwB97XD) =  -4070.54400476     A.U. after   19 cycles

 Excitation energies and oscillator strengths:

 Excited State   1:      Singlet-A      1.6768 eV  739.41 nm  f=0.3527  <S**2>=0.000
     309 -> 316       -0.19189
     312 -> 314        0.68017
     309 <- 316       -0.11548
 This state for optimization and/or second-order correction.
 Total Energy, E(TD-HF/TD-DFT) =  -4070.48238367
 Copying the excited state density for this state as the 1-particle RhoCI density.

 Excited State   2:      Singlet-A      1.7434 eV  711.15 nm  f=0.3637  <S**2>=0.000
     310 -> 315        0.21788
     311 -> 313        0.67303
     310 <- 315        0.11927

 Excited State   3:      Singlet-A      2.1695 eV  571.49 nm  f=0.0784  <S**2>=0.000
     310 -> 313        0.62751
     311 -> 315       -0.30972

 Excited State   4:      Singlet-A      2.2163 eV  559.41 nm  f=0.0062  <S**2>=0.000
     309 -> 314        0.55056
     312 -> 316        0.43362

 Excited State   5:      Singlet-A      3.3076 eV  374.84 nm  f=0.0359  <S**2>=0.000
     305 -> 313        0.13247
     307 -> 313        0.60474
     311 -> 315        0.28158

 The electronic state is 1-A.
 Alpha  occ. eigenvalues --  -46.95768 -46.95763 -19.31360 -19.29220 -19.25187
 Alpha  occ. eigenvalues --  -19.24698 -19.24537 -19.24069 -19.23772 -19.23570
 Alpha  occ. eigenvalues --  -14.46878 -14.46754 -14.46481 -14.46329 -14.44648
 Alpha  occ. eigenvalues --  -14.43975 -14.43720 -14.43223 -10.43564 -10.43198
 Alpha  occ. eigenvalues --  -10.39666 -10.39126 -10.38892 -10.38565 -10.35619
 Alpha  occ. eigenvalues --  -10.35442 -10.35396 -10.35350 -10.35273 -10.35064
 Alpha  occ. eigenvalues --  -10.34939 -10.34870 -10.34842 -10.34739 -10.34672
 Alpha  occ. eigenvalues --  -10.34477 -10.34437 -10.34322 -10.33352 -10.33118
 Alpha  occ. eigenvalues --  -10.33051 -10.33004 -10.32970 -10.32794 -10.32772
 Alpha  occ. eigenvalues --  -10.32762 -10.32598 -10.32597 -10.32551 -10.32423
 Alpha  occ. eigenvalues --  -10.32400 -10.32223 -10.32175 -10.32044 -10.32043
 Alpha  occ. eigenvalues --  -10.32006 -10.31966 -10.31921 -10.31696 -10.31693
 Alpha  occ. eigenvalues --  -10.31617 -10.31503 -10.31431 -10.31390 -10.31047
 Alpha  occ. eigenvalues --  -10.31036 -10.30837 -10.30499 -10.30444 -10.30379
 Alpha  occ. eigenvalues --  -10.30349 -10.30279 -10.30203 -10.30119 -10.30105
 Alpha  occ. eigenvalues --  -10.29834 -10.29783 -10.29775 -10.29727 -10.29707
 Alpha  occ. eigenvalues --  -10.29254 -10.29214 -10.29007 -10.28918 -10.28806
 Alpha  occ. eigenvalues --  -10.28710  -3.21680  -3.21566  -1.95270  -1.95146
 Alpha  occ. eigenvalues --   -1.94812  -1.94671  -1.94627  -1.94532  -1.18205
 Alpha  occ. eigenvalues --   -1.16149  -1.13985  -1.11672  -1.10042  -1.09547
 Alpha  occ. eigenvalues --   -1.09296  -1.08972  -1.07832  -1.07254  -1.06126
 Alpha  occ. eigenvalues --   -1.05592  -1.05063  -1.04680  -1.03551  -1.03420
 Alpha  occ. eigenvalues --   -0.94994  -0.93160  -0.91464  -0.90851  -0.90594
 Alpha  occ. eigenvalues --   -0.90558  -0.90036  -0.89840  -0.89523  -0.89492
 Alpha  occ. eigenvalues --   -0.89307  -0.89154  -0.88896  -0.87372  -0.86277
 Alpha  occ. eigenvalues --   -0.86257  -0.85909  -0.85660  -0.84686  -0.84551
 Alpha  occ. eigenvalues --   -0.84460  -0.83994  -0.83488  -0.82671  -0.82625
 Alpha  occ. eigenvalues --   -0.82372  -0.80980  -0.80206  -0.79691  -0.79459
 Alpha  occ. eigenvalues --   -0.78931  -0.78437  -0.77868  -0.77378  -0.77210
 Alpha  occ. eigenvalues --   -0.76872  -0.75263  -0.74288  -0.74146  -0.73407
 Alpha  occ. eigenvalues --   -0.70982  -0.70796  -0.70544  -0.69932  -0.69774
 Alpha  occ. eigenvalues --   -0.69406  -0.69246  -0.68311  -0.67929  -0.67620
 Alpha  occ. eigenvalues --   -0.67595  -0.67008  -0.66885  -0.66636  -0.66423
 Alpha  occ. eigenvalues --   -0.66279  -0.64031  -0.63298  -0.62586  -0.62164
 Alpha  occ. eigenvalues --   -0.61950  -0.61339  -0.61065  -0.60428  -0.60392
 Alpha  occ. eigenvalues --   -0.60207  -0.59763  -0.59377  -0.59336  -0.59024
 Alpha  occ. eigenvalues --   -0.59005  -0.57989  -0.57797  -0.57449  -0.57442
 Alpha  occ. eigenvalues --   -0.57030  -0.56348  -0.56247  -0.55954  -0.55899
 Alpha  occ. eigenvalues --   -0.55780  -0.55512  -0.55470  -0.55154  -0.54923
 Alpha  occ. eigenvalues --   -0.54865  -0.54609  -0.54596  -0.54542  -0.54441
 Alpha  occ. eigenvalues --   -0.54387  -0.54226  -0.53846  -0.53498  -0.53244
 Alpha  occ. eigenvalues --   -0.53123  -0.52884  -0.52548  -0.52478  -0.52305
 Alpha  occ. eigenvalues --   -0.52297  -0.52164  -0.52071  -0.51875  -0.51536
 Alpha  occ. eigenvalues --   -0.51464  -0.51148  -0.51037  -0.50869  -0.50780
 Alpha  occ. eigenvalues --   -0.50657  -0.50549  -0.50350  -0.50150  -0.49997
 Alpha  occ. eigenvalues --   -0.49945  -0.49772  -0.49768  -0.49603  -0.49349
 Alpha  occ. eigenvalues --   -0.49285  -0.49045  -0.48767  -0.48521  -0.48456
 Alpha  occ. eigenvalues --   -0.48286  -0.48138  -0.48094  -0.47991  -0.47751
 Alpha  occ. eigenvalues --   -0.47563  -0.47332  -0.47282  -0.46910  -0.46515
 Alpha  occ. eigenvalues --   -0.46443  -0.46282  -0.46229  -0.46012  -0.45940
 Alpha  occ. eigenvalues --   -0.45890  -0.45733  -0.45537  -0.45385  -0.45281
 Alpha  occ. eigenvalues --   -0.45191  -0.44988  -0.44959  -0.44766  -0.44594
 Alpha  occ. eigenvalues --   -0.44267  -0.43949  -0.43929  -0.43825  -0.43658
 Alpha  occ. eigenvalues --   -0.43615  -0.43386  -0.43153  -0.43019  -0.42988
 Alpha  occ. eigenvalues --   -0.42696  -0.42682  -0.42573  -0.42275  -0.42109
 Alpha  occ. eigenvalues --   -0.42015  -0.41699  -0.40992  -0.40754  -0.40460
 Alpha  occ. eigenvalues --   -0.40441  -0.39949  -0.39768  -0.39448  -0.39218
 Alpha  occ. eigenvalues --   -0.39163  -0.38972  -0.38435  -0.38135  -0.38070
 Alpha  occ. eigenvalues --   -0.37651  -0.36770  -0.36622  -0.36036  -0.35934
 Alpha  occ. eigenvalues --   -0.35819  -0.35676  -0.35189  -0.34055  -0.33935
 Alpha  occ. eigenvalues --   -0.33381  -0.33266  -0.32658  -0.32629  -0.32349
 Alpha  occ. eigenvalues --   -0.32232  -0.31507  -0.31458  -0.26200  -0.26131
 Alpha  occ. eigenvalues --   -0.23532  -0.22011
 Alpha virt. eigenvalues --   -0.07005  -0.05889  -0.00775  -0.00603   0.01777
 Alpha virt. eigenvalues --    0.02083   0.04317   0.04470   0.05073   0.05394
 Alpha virt. eigenvalues --    0.06704   0.07272   0.07776   0.07822   0.08088

 Mulliken charges:
               1
     1  Mg   0.950678
     2  C   -0.001370
     3  C   -0.092553
     4  C   -0.057158
     5  C   -0.097702
     6  N   -0.289249
     7  C   -0.079958
     8  C   -0.022100
     9  C   -0.152073
    10  C    0.044806
    11  C    0.020206
    12  C    0.019088
    13  C   -0.121834
    14  H   -0.003196
    15  N   -0.573474
    16  C    0.230529
    17  C   -0.157302
    18  C   -0.064164
    19  C    0.176550
    20  C    0.067604
    21  C    0.057078
    22  O   -0.243274
    23  C   -0.029397
    24  N   -0.281754
    25  C    0.040537
    26  C   -0.118710
    27  C   -0.082493
    28  C    0.022763
    29  C    0.039321
    30  C   -0.018054
    31  C   -0.035010
    32  N   -0.420985
    33  C    0.154683
    34  C   -0.151972
    35  C   -0.029678
    36  C    0.146149
    37  C    0.092481
    38  C    0.133333
    39  O   -0.250632
    40  C   -0.095470
    41  C    0.288919
    42  O   -0.246487
    43  O   -0.409299
    44  C    0.146582
    45  H   -0.006528
    46  H    0.019247
    47  H   -0.015391
    48  H    0.024964
    49  H    0.044107
    50  H    0.036926
    51  H    0.039574
    52  H    0.044101
    53  H    0.028302
    54  H    0.057745
    55  H    0.065788
    56  H    0.078814
    57  H    0.055775
    58  H    0.031543
    59  H    0.060623
    60  H    0.053808
    61  H    0.050858
    62  H    0.060064
    63  H    0.047742
    64  H    0.033915
    65  H    0.061717
    66  H    0.029001
    67  H    0.039276
    68  H    0.034208
    69  H    0.025084
    70  H    0.022676
    71  H    0.040448
    72  H    0.046587
    73  H    0.029920
    74  H    0.045567
    75  H    0.071978
    76  H    0.082449
    77  H    0.044107
    78  H    0.042322
    79  H    0.066723
    80  Mg   0.942966
    81  C    0.041677
    82  C   -0.129156
    83  C   -0.076135
    84  C   -0.077242
    85  N   -0.336163
    86  C   -0.017802
    87  C   -0.079412
    88  C   -0.155321
    89  C    0.135970
    90  C    0.022042
    91  C    0.093434
    92  C   -0.136464
    93  H    0.009062
    94  N   -0.446375
    95  C    0.165785
    96  C   -0.153343
    97  C   -0.107861
    98  C    0.165034
    99  C    0.056783
   100  C    0.032425
   101  O   -0.217401
   102  C    0.006356
   103  N   -0.392401
   104  C    0.060462
   105  C   -0.103429
   106  C   -0.058542
   107  C    0.088800
   108  C    0.029684
   109  C   -0.034551
   110  C   -0.028622
   111  N   -0.416705
   112  C    0.095732
   113  C   -0.195804
   114  C   -0.011641
   115  C    0.105142
   116  C    0.075073
   117  C    0.122620
   118  O   -0.234907
   119  C   -0.139119
   120  C    0.281263
   121  O   -0.275138
   122  O   -0.340452
   123  C    0.131698
   124  H   -0.010086
   125  H    0.029195
   126  H   -0.008251
   127  H    0.017193
   128  H    0.025372
   129  H    0.050744
   130  H    0.035107
   131  H    0.035632
   132  H    0.016167
   133  H    0.073625
   134  H    0.051823
   135  H    0.043239
   136  H    0.051657
   137  H    0.037576
   138  H    0.072607
   139  H    0.062065
   140  H    0.066234
   141  H    0.055513
   142  H    0.043062
   143  H    0.031494
   144  H    0.039724
   145  H    0.045849
   146  H    0.038567
   147  H    0.026816
   148  H    0.028198
   149  H    0.044946
   150  H    0.030325
   151  H    0.041841
   152  H    0.063098
   153  H    0.057608
   154  H    0.033418
   155  H    0.090017
   156  H    0.070079
   157  H    0.052424
   158  H    0.059094
 Sum of Mulliken charges =  -0.00000

 Dipole moment (field-independent basis, Debye):
    X=             -3.6834    Y=             -2.2465    Z=              6.6059  Tot=              7.8900
 Quadrupole moment (field-independent basis, Debye-Ang):
   XX=           -684.1129   YY=           -508.0241   ZZ=           -494.9957
   XY=             -9.7749   XZ=            -58.5772   YZ=             53.9977

 Normal termination of Gaussian 16 at Sun Sep 19 00:24:08 2021.
