 Gaussian 16, Revision A.03,
 Gaussian 16:  ES64L-G16RevA.03 25-Dec-2016

 --------------------------------
 #p wB97XD/Def2SVP td=(nstates=5)
 --------------------------------

 --------------------------------
 TDDFT excited states in gaussian
 --------------------------------
 Symbolic Z-matrix:
 Charge =  0 Multiplicity = 1

                         Standard orientation:
 ---------------------------------------------------------------------
 Center     Atomic      Atomic             Coordinates (Angstroms)
 Number     Number       Type             X           Y           Z
 ---------------------------------------------------------------------
      1         12           0      -11.170694    0.156746   -0.479890
      2          6           0       -8.149793   -0.947193    0.749647
      3          6           0      -12.532658   -2.863306    0.349951
      4          6           0      -14.116383    1.651913   -0.469683
      5          6           0       -9.617025    3.215153   -1.228049
      6          7           0      -10.464323   -1.494372    0.876542
      7          6           0       -9.159199   -1.832905    1.037974
      8          6           0       -8.982682   -3.212717    1.599556
      9          6           0      -10.281974   -3.890468    1.055921
     10          6           0      -11.129236   -2.689524    0.662251
     11          6           0      -10.005392   -4.912558   -0.083747
     12          6           0       -8.945525   -3.215137    3.209698
     13          6           0       -7.973907   -4.298608    3.871924
     14          1           0       -8.813197   -5.210659    4.732038
     15          7           0      -13.074389   -0.576304   -0.301487
     16          6           0      -13.479217   -1.794693    0.119467
     17          6           0      -14.933562   -1.858152    0.190475
     18          6           0      -15.406874   -0.557492   -0.078756
     19          6           0      -14.167286    0.240568   -0.294156
     20          6           0      -15.660506   -3.167839    0.581046
     21          6           0      -16.846118   -0.160205    0.096258
     22          8           0      -17.658584   -0.994105    0.400811
     23          6           0      -17.380134    1.278713   -0.037667
     24          7           0      -11.844975    2.152978   -0.932852
     25          6           0      -13.054680    2.487425   -0.840259
     26          6           0      -13.279257    3.945396   -1.002092
     27          6           0      -11.819594    4.486255   -1.268180
     28          6           0      -11.038894    3.250859   -1.141498
     29          6           0      -14.359117    4.248194   -2.095269
     30          6           0      -11.387629    5.598569   -0.204301
     31          6           0      -10.186377    6.535753   -0.583774
     32          7           0       -9.285253    0.990258   -0.381158
     33          6           0       -8.794142    2.205908   -0.821516
     34          6           0       -7.361736    2.240437   -0.716730
     35          6           0       -7.042564    0.964688   -0.132842
     36          6           0       -8.231456    0.315266    0.138068
     37          6           0       -6.438343    3.343415   -1.123100
     38          6           0       -5.960136    0.137910    0.276364
     39          8           0       -4.728223    0.255783    0.299797
     40          6           0       -6.635128   -1.048708    1.040787
     41          6           0       -5.950591   -2.293874    0.584548
     42          8           0       -4.993085   -2.827235    1.162405
     43          8           0       -6.501780   -2.720090   -0.592244
     44          6           0       -5.774002   -3.934767   -1.055669
     45          1           0      -13.037611   -3.827139    0.446172
     46          1           0      -15.096010    2.128317   -0.401036
     47          1           0       -9.161766    4.202867   -1.333555
     48          1           0       -8.101119   -3.593318    1.085265
     49          1           0      -10.734523   -4.480285    1.853222
     50          1           0      -10.291538   -5.909501    0.250157
     51          1           0       -8.925209   -4.943064   -0.230196
     52          1           0      -10.517171   -4.553488   -0.976088
     53          1           0       -9.910616   -3.256996    3.714396
     54          1           0       -8.592491   -2.253252    3.580117
     55          1           0       -7.338150   -3.712074    4.535336
     56          1           0       -7.279852   -4.858691    3.245166
     57          1           0      -16.293328   -3.095835    1.465532
     58          1           0      -14.997785   -4.025717    0.700125
     59          1           0      -16.267145   -3.456227   -0.276750
     60          1           0      -17.276654    1.684412   -1.043516
     61          1           0      -16.947800    1.975503    0.680877
     62          1           0      -18.407528    1.221586    0.323202
     63          1           0      -13.614252    4.255912   -0.012505
     64          1           0      -11.573049    4.844617   -2.267339
     65          1           0      -15.153875    4.810002   -1.605013
     66          1           0      -14.745576    3.335775   -2.549764
     67          1           0      -14.052531    4.991249   -2.831294
     68          1           0      -11.128515    5.127213    0.743977
     69          1           0      -12.281952    6.198233   -0.041359
     70          1           0      -10.314069    7.615842   -0.650500
     71          1           0       -9.813986    6.294772   -1.578502
     72          1           0       -9.360957    6.389691    0.112988
     73          1           0       -6.876239    4.163218   -1.692211
     74          1           0       -5.718558    2.762569   -1.698430
     75          1           0       -6.004267    3.587485   -0.153423
     76          1           0       -6.589672   -0.966381    2.127248
     77          1           0       -4.769443   -3.654711   -1.371130
     78          1           0       -6.171577   -4.333968   -1.988793
     79          1           0       -5.811040   -4.667652   -0.249416
     80         12           0       10.850372    0.733860   -0.278354
     81          6           0       10.421250   -2.713504   -0.304393
     82          6           0        7.283220    0.943785   -0.071215
     83          6           0       11.112886    3.967681    0.249628
     84          6           0       14.290847    0.226587    0.234998
     85          7           0        9.094751   -0.729832   -0.076584
     86          6           0        9.213762   -2.094901   -0.211490
     87          6           0        7.836982   -2.756553   -0.106785
     88          6           0        6.887624   -1.544484   -0.316160
     89          6           0        7.781254   -0.350636   -0.105310
     90          6           0        6.124409   -1.413207   -1.692403
     91          6           0        7.616879   -3.483094    1.230266
     92          6           0        6.375559   -4.284838    1.327638
     93          1           0        6.345997   -5.434948    2.405353
     94          7           0        9.395098    2.282745    0.062544
     95          6           0        7.996226    2.169281    0.082090
     96          6           0        7.446847    3.478930    0.296812
     97          6           0        8.561334    4.365864    0.532140
     98          6           0        9.782848    3.534199    0.253548
     99          6           0        5.921052    3.745740    0.417886
    100          6           0        8.381059    5.843960    0.892315
    101          8           0        7.289971    6.388213    0.855877
    102          6           0        9.568137    6.636393    1.287771
    103          7           0       12.514388    1.935254   -0.042643
    104          6           0       12.346219    3.252553    0.115208
    105          6           0       13.735817    3.931872    0.448823
    106          6           0       14.786859    2.757702    0.510761
    107          6           0       13.781832    1.504454    0.263315
    108          6           0       14.173874    5.136009   -0.425713
    109          6           0       15.441670    2.699757    1.907495
    110          6           0       16.874257    2.153288    1.935069
    111          7           0       12.177075   -0.880136   -0.067604
    112          6           0       13.540279   -0.946183    0.006175
    113          6           0       13.944195   -2.351552   -0.121351
    114          6           0       12.778089   -3.036903   -0.333178
    115          6           0       11.730751   -2.149668   -0.230497
    116          6           0       15.382897   -2.876771   -0.161777
    117          6           0       12.230961   -4.345654   -0.529275
    118          8           0       12.747968   -5.427961   -0.658494
    119          6           0       10.673740   -4.187266   -0.533513
    120          6           0       10.187305   -4.575017   -1.886094
    121          8           0       10.605675   -4.195081   -2.944425
    122          8           0        9.038283   -5.370683   -1.735786
    123          6           0        8.393473   -5.766206   -2.955509
    124          1           0        6.192878    0.907595   -0.108273
    125          1           0       11.356772    5.021503    0.402448
    126          1           0       15.362902    0.036704    0.320718
    127          1           0        7.751978   -3.402353   -0.979701
    128          1           0        6.111398   -1.411995    0.436699
    129          1           0        5.083509   -1.273073   -1.401647
    130          1           0        6.417602   -2.080277   -2.503499
    131          1           0        6.410951   -0.447566   -2.108715
    132          1           0        7.497236   -2.839400    2.102149
    133          1           0        8.473674   -4.120276    1.449636
    134          1           0        6.200294   -4.707932    0.338510
    135          1           0        5.535925   -3.612549    1.503253
    136          1           0        5.896239    3.881412    1.499595
    137          1           0        5.270783    2.886936    0.250199
    138          1           0        5.412067    4.568822   -0.084021
    139          1           0       10.064197    6.026418    2.042715
    140          1           0        9.224723    7.549559    1.774141
    141          1           0       10.123459    6.740436    0.355302
    142          1           0       13.615362    4.359492    1.444579
    143          1           0       15.545584    2.772212   -0.271043
    144          1           0       14.059632    6.042604    0.169390
    145          1           0       13.605715    5.113718   -1.355067
    146          1           0       15.245477    5.080502   -0.617143
    147          1           0       14.775719    2.072817    2.499871
    148          1           0       15.419731    3.645835    2.448751
    149          1           0       17.434891    2.967603    2.395350
    150          1           0       17.259301    1.839316    0.964801
    151          1           0       16.941720    1.304460    2.615649
    152          1           0       15.590191   -3.767374    0.430559
    153          1           0       15.945575   -2.007573    0.179619
    154          1           0       15.653482   -2.924216   -1.216709
    155          1           0       10.296787   -4.863344    0.233997
    156          1           0        8.575324   -6.835348   -3.065285
    157          1           0        8.659824   -5.268597   -3.888312
    158          1           0        7.327961   -5.572911   -2.834310
 ---------------------------------------------------------------------

 SCF Done:  E(RwB97XD) =  -4070.60391773     A.U. after   19 cycles

 Excitation energies and oscillator strengths:

 Excited State   1:      Singlet-A      1.6580 eV  747.80 nm  f=0.3921  <S**2>=0.000
     310 -> 315        0.16683
     312 -> 313        0.68334
     310 <- 315        0.10833
 This state for optimization and/or second-order correction.
 Total Energy, E(TD-HF/TD-DFT) =  -4070.54298778
 Copying the excited state density for this state as the 1-particle RhoCI density.

 Excited State   2:      Singlet-A      1.7246 eV  718.90 nm  f=0.3760  <S**2>=0.000
     309 -> 316       -0.17541
     311 -> 314        0.68310
     309 <- 316       -0.11050

 Excited State   3:      Singlet-A      2.1688 eV  571.66 nm  f=0.1039  <S**2>=0.000
     310 -> 313        0.63813
     312 -> 315       -0.28203

 Excited State   4:      Singlet-A      2.2433 eV  552.68 nm  f=0.1150  <S**2>=0.000
     309 -> 314        0.63509
     311 -> 316        0.29241

 Excited State   5:      Singlet-A      3.6241 eV  342.11 nm  f=0.0000  <S**2>=0.000
     312 -> 314        0.70691

 The electronic state is 1-A.
 Alpha  occ. eigenvalues --  -46.95774 -46.95637 -19.30843 -19.29949 -19.25184
 Alpha  occ. eigenvalues --  -19.24656 -19.24089 -19.23530 -19.23306 -19.22975
 Alpha  occ. eigenvalues --  -14.47005 -14.46741 -14.46727 -14.46563 -14.45027
 Alpha  occ. eigenvalues --  -14.44627 -14.43419 -14.43205 -10.43113 -10.42599
 Alpha  occ. eigenvalues --  -10.39845 -10.38636 -10.38109 -10.37893 -10.36520
 Alpha  occ. eigenvalues --  -10.36241 -10.35944 -10.35557 -10.35495 -10.35228
 Alpha  occ. eigenvalues --  -10.35100 -10.34945 -10.34835 -10.34754 -10.34732
 Alpha  occ. eigenvalues --  -10.34292 -10.34225 -10.33996 -10.33711 -10.33554
 Alpha  occ. eigenvalues --  -10.32926 -10.32800 -10.32492 -10.32327 -10.32313
 Alpha  occ. eigenvalues --  -10.32224 -10.32206 -10.32181 -10.32084 -10.32050
 Alpha  occ. eigenvalues --  -10.32039 -10.32032 -10.31938 -10.31921 -10.31919
 Alpha  occ. eigenvalues --  -10.31811 -10.31775 -10.31750 -10.31709 -10.31651
 Alpha  occ. eigenvalues --  -10.31554 -10.31538 -10.31455 -10.31384 -10.31362
 Alpha  occ. eigenvalues --  -10.31335 -10.31201 -10.30938 -10.30738 -10.30715
 Alpha  occ. eigenvalues --  -10.30667 -10.30651 -10.30639 -10.30380 -10.30228
 Alpha  occ. eigenvalues --  -10.30186 -10.30160 -10.30145 -10.30083 -10.30020
 Alpha  occ. eigenvalues --  -10.29970 -10.29779 -10.29677 -10.29272 -10.28449
 Alpha  occ. eigenvalues --  -10.27697  -3.21652  -3.21647  -1.95244  -1.95223
 Alpha  occ. eigenvalues --   -1.94786  -1.94776  -1.94610  -1.94606  -1.18539
 Alpha  occ. eigenvalues --   -1.18189  -1.14297  -1.12309  -1.12152  -1.10798
 Alpha  occ. eigenvalues --   -1.10356  -1.09116  -1.08708  -1.06752  -1.06363
 Alpha  occ. eigenvalues --   -1.06042  -1.05604  -1.05497  -1.04878  -1.04630
 Alpha  occ. eigenvalues --   -0.94983  -0.94497  -0.91663  -0.90998  -0.90937
 Alpha  occ. eigenvalues --   -0.90669  -0.90509  -0.90203  -0.89785  -0.89308
 Alpha  occ. eigenvalues --   -0.88997  -0.88590  -0.88183  -0.87668  -0.86900
 Alpha  occ. eigenvalues --   -0.86276  -0.85740  -0.85719  -0.84816  -0.84310
 Alpha  occ. eigenvalues --   -0.84238  -0.83803  -0.83013  -0.82895  -0.82587
 Alpha  occ. eigenvalues --   -0.82364  -0.80407  -0.79879  -0.79471  -0.79041
 Alpha  occ. eigenvalues --   -0.78793  -0.78786  -0.77956  -0.77895  -0.77506
 Alpha  occ. eigenvalues --   -0.77258  -0.74977  -0.74709  -0.74284  -0.73794
 Alpha  occ. eigenvalues --   -0.72433  -0.71393  -0.71051  -0.70790  -0.70200
 Alpha  occ. eigenvalues --   -0.69746  -0.69508  -0.68806  -0.68500  -0.67786
 Alpha  occ. eigenvalues --   -0.67373  -0.67306  -0.66930  -0.66718  -0.66536
 Alpha  occ. eigenvalues --   -0.66374  -0.64476  -0.64445  -0.62637  -0.62069
 Alpha  occ. eigenvalues --   -0.61638  -0.61635  -0.61252  -0.61044  -0.60836
 Alpha  occ. eigenvalues --   -0.60557  -0.60214  -0.60056  -0.59343  -0.59033
 Alpha  occ. eigenvalues --   -0.58672  -0.58256  -0.58181  -0.57714  -0.57591
 Alpha  occ. eigenvalues --   -0.57213  -0.57007  -0.56620  -0.56147  -0.56047
 Alpha  occ. eigenvalues --   -0.55732  -0.55625  -0.55289  -0.55042  -0.54997
 Alpha  occ. eigenvalues --   -0.54859  -0.54730  -0.54410  -0.54332  -0.54006
 Alpha  occ. eigenvalues --   -0.53668  -0.53620  -0.53439  -0.53397  -0.53184
 Alpha  occ. eigenvalues --   -0.53163  -0.52600  -0.52569  -0.52474  -0.52421
 Alpha  occ. eigenvalues --   -0.52231  -0.52088  -0.51932  -0.51911  -0.51721
 Alpha  occ. eigenvalues --   -0.51575  -0.51133  -0.51018  -0.50895  -0.50758
 Alpha  occ. eigenvalues --   -0.50678  -0.50603  -0.50293  -0.49963  -0.49837
 Alpha  occ. eigenvalues --   -0.49767  -0.49654  -0.49428  -0.49252  -0.49084
 Alpha  occ. eigenvalues --   -0.48943  -0.48877  -0.48809  -0.48792  -0.48270
 Alpha  occ. eigenvalues --   -0.48229  -0.48175  -0.48097  -0.47872  -0.47812
 Alpha  occ. eigenvalues --   -0.47744  -0.47530  -0.47393  -0.47141  -0.47052
 Alpha  occ. eigenvalues --   -0.46806  -0.46633  -0.46425  -0.46360  -0.46305
 Alpha  occ. eigenvalues --   -0.46206  -0.46006  -0.45842  -0.45616  -0.45419
 Alpha  occ. eigenvalues --   -0.45361  -0.45167  -0.45042  -0.44943  -0.44937
 Alpha  occ. eigenvalues --   -0.44647  -0.44584  -0.44397  -0.44174  -0.44107
 Alpha  occ. eigenvalues --   -0.44007  -0.43893  -0.43874  -0.43859  -0.43567
 Alpha  occ. eigenvalues --   -0.43407  -0.43193  -0.43190  -0.42713  -0.42284
 Alpha  occ. eigenvalues --   -0.42044  -0.41884  -0.41558  -0.41482  -0.41398
 Alpha  occ. eigenvalues --   -0.40645  -0.40514  -0.40289  -0.39876  -0.39677
 Alpha  occ. eigenvalues --   -0.39429  -0.38959  -0.38866  -0.38585  -0.38472
 Alpha  occ. eigenvalues --   -0.38303  -0.37789  -0.37038  -0.36973  -0.36044
 Alpha  occ. eigenvalues --   -0.35869  -0.35694  -0.35431  -0.34027  -0.33750
 Alpha  occ. eigenvalues --   -0.33644  -0.32859  -0.32827  -0.32388  -0.32097
 Alpha  occ. eigenvalues --   -0.32030  -0.31894  -0.31102  -0.26377  -0.26209
 Alpha  occ. eigenvalues --   -0.23253  -0.23048
 Alpha virt. eigenvalues --   -0.07176  -0.07134   0.00078   0.00204   0.02226
 Alpha virt. eigenvalues --    0.03224   0.04086   0.05055   0.05076   0.05427
 Alpha virt. eigenvalues --    0.06902   0.07258   0.07809   0.08035   0.08794

 Mulliken charges:
               1
     1  Mg   0.966925
     2  C    0.015872
     3  C   -0.089475
     4  C   -0.073222
     5  C   -0.081630
     6  N   -0.340884
     7  C   -0.050134
     8  C   -0.024620
     9  C   -0.146492
    10  C    0.111156
    11  C    0.045280
    12  C    0.022938
    13  C   -0.130036
    14  H    0.029163
    15  N   -0.460578
    16  C    0.119412
    17  C   -0.139220
    18  C   -0.060526
    19  C    0.168384
    20  C    0.086756
    21  C    0.018702
    22  O   -0.210925
    23  C   -0.019714
    24  N   -0.295241
    25  C    0.031500
    26  C   -0.087987
    27  C   -0.051448
    28  C    0.005310
    29  C    0.018735
    30  C   -0.018518
    31  C   -0.065413
    32  N   -0.451086
    33  C    0.151237
    34  C   -0.200779
    35  C   -0.007783
    36  C    0.106177
    37  C    0.098649
    38  C    0.085770
    39  O   -0.227208
    40  C   -0.061181
    41  C    0.241297
    42  O   -0.258558
    43  O   -0.369911
    44  C    0.138551
    45  H    0.002974
    46  H   -0.045350
    47  H   -0.027115
    48  H    0.025853
    49  H    0.042574
    50  H    0.041743
    51  H    0.029620
    52  H    0.040866
    53  H    0.040814
    54  H    0.032339
    55  H    0.057471
    56  H    0.062754
    57  H    0.069920
    58  H    0.019282
    59  H    0.052931
    60  H    0.067275
    61  H    0.060749
    62  H    0.051665
    63  H    0.046780
    64  H    0.042031
    65  H    0.030696
    66  H    0.057223
    67  H    0.038844
    68  H    0.041069
    69  H    0.036666
    70  H    0.040279
    71  H    0.033024
    72  H    0.044230
    73  H    0.043455
    74  H    0.064599
    75  H    0.064739
    76  H    0.078457
    77  H    0.064219
    78  H    0.047437
    79  H    0.060644
    80  Mg   0.953280
    81  C   -0.018582
    82  C   -0.077904
    83  C   -0.102808
    84  C   -0.071139
    85  N   -0.331757
    86  C   -0.062199
    87  C    0.031549
    88  C   -0.154013
    89  C    0.038692
    90  C    0.035660
    91  C    0.037993
    92  C   -0.109698
    93  H    0.041129
    94  N   -0.434361
    95  C    0.181754
    96  C   -0.135406
    97  C   -0.121372
    98  C    0.236483
    99  C    0.062602
   100  C    0.024929
   101  O   -0.229392
   102  C    0.001924
   103  N   -0.396607
   104  C    0.068731
   105  C   -0.119328
   106  C   -0.097007
   107  C    0.094399
   108  C    0.022164
   109  C   -0.030625
   110  C   -0.043081
   111  N   -0.424938
   112  C    0.085775
   113  C   -0.233968
   114  C    0.018247
   115  C    0.142554
   116  C    0.107312
   117  C    0.094237
   118  O   -0.187144
   119  C   -0.073523
   120  C    0.259912
   121  O   -0.213444
   122  O   -0.378190
   123  C    0.124770
   124  H   -0.004472
   125  H   -0.020136
   126  H   -0.006577
   127  H    0.020621
   128  H    0.032959
   129  H    0.045805
   130  H    0.048707
   131  H    0.028665
   132  H    0.030081
   133  H    0.034846
   134  H    0.036234
   135  H    0.041666
   136  H    0.058977
   137  H    0.021549
   138  H    0.074659
   139  H    0.052410
   140  H    0.057690
   141  H    0.078696
   142  H    0.040255
   143  H    0.041821
   144  H    0.035667
   145  H    0.049941
   146  H    0.035003
   147  H    0.033240
   148  H    0.029705
   149  H    0.037922
   150  H    0.042177
   151  H    0.038877
   152  H    0.070266
   153  H    0.005150
   154  H    0.057741
   155  H    0.072851
   156  H    0.056677
   157  H    0.061936
   158  H    0.040776
 Sum of Mulliken charges =  -0.00000

 Dipole moment (field-independent basis, Debye):
    X=             -5.7055    Y=              5.1630    Z=             -2.0895  Tot=              7.9734
 Quadrupole moment (field-independent basis, Debye-Ang):
   XX=           -450.5848   YY=           -501.2999   ZZ=           -507.2204
   XY=             37.0250   XZ=             38.5098   YZ=              0.6488

 Normal termination of Gaussian 16 at Mon Sep 20 07:57:44 2021.
