 Gaussian 16, Revision A.03,
 Gaussian 16:  ES64L-G16RevA.03 25-Dec-2016

 --------------------------------
 #p wB97XD/Def2SVP td=(nstates=5)
 --------------------------------

 --------------------------------
 TDDFT excited states in gaussian
 --------------------------------
 Symbolic Z-matrix:
 Charge =  0 Multiplicity = 1

                         Standard orientation:
 ---------------------------------------------------------------------
 Center     Atomic      Atomic             Coordinates (Angstroms)
 Number     Number       Type             X           Y           Z
 ---------------------------------------------------------------------
      1         12           0      -22.227877   -0.163653    0.279004
      2          6           0      -19.677267    1.969259   -0.848540
      3          6           0      -23.744384    0.203491   -2.738899
      4          6           0      -24.282018   -2.494124    1.301649
      5          6           0      -19.965390   -0.979829    2.958821
      6          7           0      -21.778838    1.004086   -1.511841
      7          6           0      -20.687204    1.784284   -1.769640
      8          6           0      -20.671269    2.106053   -3.271491
      9          6           0      -22.151960    2.021289   -3.625128
     10          6           0      -22.554987    0.933053   -2.611596
     11          6           0      -22.907728    3.346504   -3.373613
     12          6           0      -19.803506    1.066415   -4.072748
     13          6           0      -18.448859    1.578051   -4.770139
     14          1           0      -17.107189    0.962261   -4.337943
     15          7           0      -23.763041   -1.070258   -0.615495
     16          6           0      -24.259259   -0.766647   -1.862453
     17          6           0      -25.472543   -1.499107   -2.049212
     18          6           0      -25.770025   -2.230763   -0.852146
     19          6           0      -24.592510   -1.970912    0.025927
     20          6           0      -26.322903   -1.434770   -3.363995
     21          6           0      -27.079653   -3.065649   -0.610428
     22          8           0      -27.957557   -3.047239   -1.417301
     23          6           0      -27.310000   -3.619166    0.718432
     24          7           0      -21.985923   -1.767866    1.732640
     25          6           0      -23.165925   -2.295703    2.136335
     26          6           0      -23.160402   -2.731709    3.591943
     27          6           0      -21.698668   -2.593812    3.989358
     28          6           0      -21.150344   -1.718030    2.809617
     29          6           0      -24.107439   -1.860359    4.497336
     30          6           0      -20.818310   -3.908788    4.232179
     31          6           0      -20.386053   -4.336069    5.609190
     32          7           0      -20.357282    0.489946    1.059768
     33          6           0      -19.566662    0.077734    2.140167
     34          6           0      -18.305338    0.785635    2.179650
     35          6           0      -18.329396    1.552993    1.041072
     36          6           0      -19.569498    1.350010    0.350604
     37          6           0      -17.252006    0.601486    3.191329
     38          6           0      -17.561724    2.512537    0.262193
     39          8           0      -16.477493    3.049765    0.520194
     40          6           0      -18.433699    2.897737   -0.914283
     41          6           0      -18.717451    4.391313   -0.796977
     42          8           0      -19.268104    4.852094    0.200341
     43          8           0      -18.162396    5.108771   -1.868011
     44          6           0      -18.363480    6.531683   -1.803180
     45          1           0      -24.281401    0.465567   -3.652548
     46          1           0      -25.142101   -3.007108    1.734756
     47          1           0      -19.335650   -1.152240    3.834359
     48          1           0      -20.150681    3.057676   -3.381631
     49          1           0      -22.232455    1.720169   -4.668869
     50          1           0      -23.406742    3.433166   -4.338162
     51          1           0      -22.121883    4.085368   -3.214184
     52          1           0      -23.608783    3.363289   -2.539056
     53          1           0      -20.420076    0.696415   -4.891827
     54          1           0      -19.628468    0.211156   -3.420546
     55          1           0      -18.363488    2.628456   -4.490795
     56          1           0      -18.464091    1.561891   -5.859260
     57          1           0      -26.627467   -2.374915   -3.822812
     58          1           0      -25.709169   -0.889644   -4.081860
     59          1           0      -27.243426   -0.863685   -3.241840
     60          1           0      -26.531716   -4.300132    1.063589
     61          1           0      -28.262738   -4.148530    0.708752
     62          1           0      -27.552657   -2.821917    1.419668
     63          1           0      -23.541532   -3.744409    3.727575
     64          1           0      -21.606498   -1.970727    4.878962
     65          1           0      -25.074514   -2.326799    4.684443
     66          1           0      -24.158533   -0.846375    4.100722
     67          1           0      -23.621693   -1.769652    5.469955
     68          1           0      -19.977293   -4.092987    3.564570
     69          1           0      -21.590782   -4.606573    3.907846
     70          1           0      -20.844071   -5.268023    5.939012
     71          1           0      -20.663211   -3.568967    6.332670
     72          1           0      -19.302937   -4.429547    5.533716
     73          1           0      -17.358737   -0.403048    3.601646
     74          1           0      -17.484185    1.312182    3.984998
     75          1           0      -16.266449    0.826958    2.786548
     76          1           0      -17.776942    2.710810   -1.762809
     77          1           0      -19.365272    6.861752   -2.079373
     78          1           0      -17.670234    7.064155   -2.453712
     79          1           0      -18.173973    6.968249   -0.822944
     80         12           0       21.591254   -0.974760   -0.313699
     81          6           0       22.623455    2.427308    0.579549
     82          6           0       18.302237    0.112575    0.211660
     83          6           0       20.614245   -4.054574   -0.747034
     84          6           0       24.867967   -1.764658   -0.947060
     85          7           0       20.608996    0.948007    0.511978
     86          6           0       21.197740    2.268982    0.694480
     87          6           0       20.182033    3.349884    1.122507
     88          6           0       18.826967    2.432387    1.172484
     89          6           0       19.228667    1.052903    0.614610
     90          6           0       18.191040    2.354968    2.546861
     91          6           0       20.202104    4.547858    0.125523
     92          6           0       19.064181    5.514561    0.260063
     93          1           0       19.332833    7.002237    0.211957
     94          7           0       19.700869   -1.899147   -0.256783
     95          6           0       18.459381   -1.292590   -0.034564
     96          6           0       17.396988   -2.290193   -0.147669
     97          6           0       18.058936   -3.551953   -0.442154
     98          6           0       19.534569   -3.239033   -0.502919
     99          6           0       15.857302   -1.981706   -0.059964
    100          6           0       17.523195   -4.928008   -0.610804
    101          8           0       18.193791   -5.912640   -0.891076
    102          6           0       16.070816   -5.165180   -0.558718
    103          7           0       22.549986   -2.602767   -0.855408
    104          6           0       21.972113   -3.805414   -0.856677
    105          6           0       22.953472   -4.939441   -1.235146
    106          6           0       24.147736   -4.140653   -1.714429
    107          6           0       23.887363   -2.721671   -1.075427
    108          6           0       23.282798   -5.864798   -0.069475
    109          6           0       24.507355   -3.999632   -3.170867
    110          6           0       23.465260   -3.283554   -4.003210
    111          7           0       23.402857    0.035534   -0.126199
    112          6           0       24.670730   -0.417586   -0.533180
    113          6           0       25.635521    0.629710   -0.304687
    114          6           0       24.814920    1.731396    0.049522
    115          6           0       23.469005    1.334096    0.163133
    116          6           0       27.109072    0.625293   -0.589592
    117          6           0       24.917279    3.197284    0.328459
    118          8           0       25.884342    3.982954    0.233318
    119          6           0       23.506537    3.645284    0.703998
    120          6           0       23.517673    4.310180    2.082078
    121          8           0       23.791816    3.828100    3.220639
    122          8           0       23.013707    5.566628    1.918617
    123          6           0       22.857782    6.362533    3.157196
    124          1           0       17.283105    0.500709    0.176621
    125          1           0       20.317889   -5.102034   -0.832815
    126          1           0       25.932398   -1.951430   -1.104498
    127          1           0       20.562381    3.735555    2.068344
    128          1           0       18.127049    2.799251    0.421706
    129          1           0       17.169761    2.730427    2.476569
    130          1           0       18.772557    3.014577    3.189974
    131          1           0       18.332538    1.437161    3.117162
    132          1           0       20.331553    4.101978   -0.861259
    133          1           0       21.124465    5.108273    0.278614
    134          1           0       18.489086    5.476559    1.184937
    135          1           0       18.390344    5.392466   -0.587470
    136          1           0       15.466308   -2.253474   -1.040883
    137          1           0       15.634744   -0.931058    0.125716
    138          1           0       15.466595   -2.618343    0.733952
    139          1           0       15.566461   -4.637575    0.251088
    140          1           0       15.995135   -6.239969   -0.397580
    141          1           0       15.699529   -4.689040   -1.465698
    142          1           0       22.471410   -5.529089   -2.014993
    143          1           0       25.086858   -4.534020   -1.324294
    144          1           0       23.313639   -6.888561   -0.440591
    145          1           0       22.524853   -5.802501    0.710655
    146          1           0       24.303897   -5.691394    0.272115
    147          1           0       24.760447   -4.990314   -3.549484
    148          1           0       25.360576   -3.333786   -3.299280
    149          1           0       23.262964   -3.802530   -4.939423
    150          1           0       23.786703   -2.290383   -4.317675
    151          1           0       22.496759   -3.174993   -3.514867
    152          1           0       27.366374    1.493357   -1.196025
    153          1           0       27.578102   -0.223930   -1.086455
    154          1           0       27.615437    0.711576    0.372015
    155          1           0       23.205765    4.431062    0.010454
    156          1           0       21.816761    6.342041    3.478952
    157          1           0       23.247651    7.312696    2.792073
    158          1           0       23.553885    6.057120    3.939443
 ---------------------------------------------------------------------

 SCF Done:  E(RwB97XD) =  -4070.62343460     A.U. after   19 cycles

 Excitation energies and oscillator strengths:

 Excited State   1:      Singlet-A      1.6110 eV  769.62 nm  f=0.4072  <S**2>=0.000
     310 -> 316        0.17046
     311 -> 313        0.68649
     310 <- 316        0.11381
 This state for optimization and/or second-order correction.
 Total Energy, E(TD-HF/TD-DFT) =  -4070.56423182
 Copying the excited state density for this state as the 1-particle RhoCI density.

 Excited State   2:      Singlet-A      1.6667 eV  743.89 nm  f=0.3540  <S**2>=0.000
     309 -> 315        0.19753
     312 -> 314        0.68090
     309 <- 315        0.12066

 Excited State   3:      Singlet-A      2.1162 eV  585.88 nm  f=0.1335  <S**2>=0.000
     310 -> 313        0.64977
     311 -> 316       -0.25752

 Excited State   4:      Singlet-A      2.2261 eV  556.96 nm  f=0.0509  <S**2>=0.000
     309 -> 314        0.60369
     312 -> 315       -0.35674

 Excited State   5:      Singlet-A      3.2646 eV  379.78 nm  f=0.0056  <S**2>=0.000
     304 -> 313       -0.31898
     308 -> 313        0.60932

 The electronic state is 1-A.
 Alpha  occ. eigenvalues --  -46.95070 -46.94100 -19.31332 -19.30971 -19.25598
 Alpha  occ. eigenvalues --  -19.24595 -19.24104 -19.23897 -19.23843 -19.23480
 Alpha  occ. eigenvalues --  -14.47134 -14.46770 -14.46766 -14.46716 -14.44601
 Alpha  occ. eigenvalues --  -14.44030 -14.44014 -14.43415 -10.44195 -10.43811
 Alpha  occ. eigenvalues --  -10.39015 -10.38727 -10.38655 -10.38633 -10.36002
 Alpha  occ. eigenvalues --  -10.35632 -10.35565 -10.35506 -10.35300 -10.35211
 Alpha  occ. eigenvalues --  -10.35180 -10.35145 -10.34912 -10.34791 -10.34735
 Alpha  occ. eigenvalues --  -10.34734 -10.34610 -10.34586 -10.33876 -10.33585
 Alpha  occ. eigenvalues --  -10.33327 -10.33203 -10.33019 -10.32982 -10.32898
 Alpha  occ. eigenvalues --  -10.32867 -10.32666 -10.32611 -10.32588 -10.32582
 Alpha  occ. eigenvalues --  -10.32533 -10.32437 -10.32236 -10.32184 -10.31987
 Alpha  occ. eigenvalues --  -10.31983 -10.31983 -10.31959 -10.31697 -10.31605
 Alpha  occ. eigenvalues --  -10.31553 -10.31410 -10.31258 -10.31064 -10.30998
 Alpha  occ. eigenvalues --  -10.30983 -10.30979 -10.30975 -10.30945 -10.30776
 Alpha  occ. eigenvalues --  -10.30768 -10.30402 -10.30166 -10.30130 -10.30125
 Alpha  occ. eigenvalues --  -10.29894 -10.29789 -10.29782 -10.29724 -10.29547
 Alpha  occ. eigenvalues --  -10.29537 -10.29478 -10.29461 -10.29243 -10.28687
 Alpha  occ. eigenvalues --  -10.28354  -3.21115  -3.20254  -1.94681  -1.94254
 Alpha  occ. eigenvalues --   -1.94084  -1.93854  -1.93392  -1.93233  -1.18213
 Alpha  occ. eigenvalues --   -1.18168  -1.14139  -1.12640  -1.11399  -1.10508
 Alpha  occ. eigenvalues --   -1.09982  -1.07938  -1.07044  -1.06822  -1.06318
 Alpha  occ. eigenvalues --   -1.04952  -1.04795  -1.04345  -1.04151  -1.02603
 Alpha  occ. eigenvalues --   -0.95098  -0.94239  -0.91543  -0.91051  -0.90886
 Alpha  occ. eigenvalues --   -0.90811  -0.90547  -0.90496  -0.89614  -0.89254
 Alpha  occ. eigenvalues --   -0.89091  -0.88985  -0.87785  -0.86974  -0.86666
 Alpha  occ. eigenvalues --   -0.86542  -0.86183  -0.85919  -0.84851  -0.84506
 Alpha  occ. eigenvalues --   -0.84482  -0.84268  -0.83357  -0.83050  -0.82868
 Alpha  occ. eigenvalues --   -0.82032  -0.80516  -0.79989  -0.79217  -0.79177
 Alpha  occ. eigenvalues --   -0.78698  -0.78380  -0.78261  -0.77878  -0.77439
 Alpha  occ. eigenvalues --   -0.77083  -0.74919  -0.74726  -0.74151  -0.73909
 Alpha  occ. eigenvalues --   -0.72202  -0.71396  -0.70992  -0.70639  -0.70146
 Alpha  occ. eigenvalues --   -0.69616  -0.69157  -0.68795  -0.67831  -0.67603
 Alpha  occ. eigenvalues --   -0.67031  -0.66904  -0.66651  -0.66515  -0.66265
 Alpha  occ. eigenvalues --   -0.65796  -0.64769  -0.63904  -0.62250  -0.62239
 Alpha  occ. eigenvalues --   -0.62091  -0.61146  -0.61138  -0.61069  -0.60921
 Alpha  occ. eigenvalues --   -0.60527  -0.60282  -0.59749  -0.59662  -0.59379
 Alpha  occ. eigenvalues --   -0.58290  -0.58257  -0.58105  -0.57859  -0.57450
 Alpha  occ. eigenvalues --   -0.57293  -0.57211  -0.56934  -0.56705  -0.56222
 Alpha  occ. eigenvalues --   -0.55961  -0.55520  -0.55422  -0.55142  -0.55030
 Alpha  occ. eigenvalues --   -0.54980  -0.54757  -0.54693  -0.54657  -0.54390
 Alpha  occ. eigenvalues --   -0.54168  -0.54081  -0.53770  -0.53069  -0.52996
 Alpha  occ. eigenvalues --   -0.52855  -0.52788  -0.52693  -0.52424  -0.52285
 Alpha  occ. eigenvalues --   -0.52130  -0.52092  -0.51777  -0.51686  -0.51623
 Alpha  occ. eigenvalues --   -0.51515  -0.51295  -0.51084  -0.50739  -0.50714
 Alpha  occ. eigenvalues --   -0.50653  -0.50530  -0.50412  -0.50302  -0.50058
 Alpha  occ. eigenvalues --   -0.50021  -0.49654  -0.49531  -0.49479  -0.49071
 Alpha  occ. eigenvalues --   -0.48912  -0.48687  -0.48559  -0.48425  -0.48351
 Alpha  occ. eigenvalues --   -0.48250  -0.48081  -0.48080  -0.47936  -0.47920
 Alpha  occ. eigenvalues --   -0.47577  -0.47413  -0.47373  -0.47325  -0.46816
 Alpha  occ. eigenvalues --   -0.46463  -0.46428  -0.46284  -0.46259  -0.46137
 Alpha  occ. eigenvalues --   -0.46099  -0.45845  -0.45837  -0.45571  -0.45373
 Alpha  occ. eigenvalues --   -0.45302  -0.45146  -0.45074  -0.44588  -0.44580
 Alpha  occ. eigenvalues --   -0.44452  -0.44419  -0.44130  -0.44115  -0.43928
 Alpha  occ. eigenvalues --   -0.43835  -0.43714  -0.43691  -0.43567  -0.43219
 Alpha  occ. eigenvalues --   -0.43041  -0.42815  -0.42801  -0.42645  -0.42389
 Alpha  occ. eigenvalues --   -0.42330  -0.41995  -0.41866  -0.41142  -0.40988
 Alpha  occ. eigenvalues --   -0.40936  -0.40786  -0.39981  -0.39512  -0.39300
 Alpha  occ. eigenvalues --   -0.39213  -0.39131  -0.38780  -0.38661  -0.38629
 Alpha  occ. eigenvalues --   -0.38467  -0.38097  -0.36874  -0.36758  -0.36292
 Alpha  occ. eigenvalues --   -0.36051  -0.35780  -0.35289  -0.33715  -0.33592
 Alpha  occ. eigenvalues --   -0.33247  -0.33235  -0.32991  -0.32577  -0.32366
 Alpha  occ. eigenvalues --   -0.32282  -0.31859  -0.31282  -0.26362  -0.26170
 Alpha  occ. eigenvalues --   -0.23272  -0.22843
 Alpha virt. eigenvalues --   -0.07641  -0.06697  -0.00372   0.00267   0.02382
 Alpha virt. eigenvalues --    0.02549   0.04309   0.04563   0.05152   0.06265
 Alpha virt. eigenvalues --    0.06321   0.06695   0.07436   0.07705   0.08455

 Mulliken charges:
               1
     1  Mg   0.956921
     2  C   -0.054695
     3  C   -0.098021
     4  C   -0.052956
     5  C   -0.094220
     6  N   -0.331659
     7  C   -0.023724
     8  C   -0.115098
     9  C   -0.115614
    10  C    0.039152
    11  C    0.060835
    12  C    0.025476
    13  C   -0.134555
    14  H    0.044746
    15  N   -0.518759
    16  C    0.210400
    17  C   -0.172931
    18  C   -0.106213
    19  C    0.151488
    20  C    0.083557
    21  C    0.062129
    22  O   -0.196864
    23  C   -0.021451
    24  N   -0.326886
    25  C    0.062370
    26  C   -0.102106
    27  C   -0.070013
    28  C    0.069737
    29  C    0.021100
    30  C   -0.022415
    31  C   -0.034778
    32  N   -0.428939
    33  C    0.127631
    34  C   -0.206730
    35  C   -0.016888
    36  C    0.192873
    37  C    0.097438
    38  C    0.099136
    39  O   -0.220941
    40  C   -0.022051
    41  C    0.288757
    42  O   -0.244349
    43  O   -0.362545
    44  C    0.139827
    45  H    0.001629
    46  H   -0.029207
    47  H   -0.001583
    48  H    0.017279
    49  H    0.023689
    50  H    0.042934
    51  H    0.038764
    52  H    0.055153
    53  H    0.032709
    54  H    0.055653
    55  H    0.047933
    56  H    0.058765
    57  H    0.056031
    58  H    0.011795
    59  H    0.051562
    60  H    0.070901
    61  H    0.042062
    62  H    0.069565
    63  H    0.033461
    64  H    0.024326
    65  H    0.046158
    66  H    0.041578
    67  H    0.029665
    68  H    0.043951
    69  H    0.016356
    70  H    0.044069
    71  H    0.026354
    72  H    0.041535
    73  H    0.036665
    74  H    0.058300
    75  H    0.065972
    76  H    0.061017
    77  H    0.042355
    78  H    0.050404
    79  H    0.054026
    80  Mg   0.975183
    81  C   -0.025702
    82  C   -0.091564
    83  C   -0.091429
    84  C   -0.077717
    85  N   -0.366292
    86  C   -0.005907
    87  C   -0.064577
    88  C   -0.111870
    89  C    0.088894
    90  C    0.051901
    91  C   -0.006005
    92  C   -0.128121
    93  H    0.029139
    94  N   -0.467489
    95  C    0.162999
    96  C   -0.170398
    97  C   -0.057409
    98  C    0.152459
    99  C    0.067318
   100  C    0.022062
   101  O   -0.243526
   102  C    0.001877
   103  N   -0.422476
   104  C    0.103790
   105  C   -0.088016
   106  C   -0.066271
   107  C    0.109935
   108  C    0.042974
   109  C    0.010288
   110  C   -0.067785
   111  N   -0.449597
   112  C    0.078756
   113  C   -0.151498
   114  C   -0.101688
   115  C    0.167177
   116  C    0.064825
   117  C    0.158587
   118  O   -0.236435
   119  C   -0.063607
   120  C    0.278981
   121  O   -0.286788
   122  O   -0.366273
   123  C    0.125332
   124  H   -0.007255
   125  H    0.021583
   126  H    0.001295
   127  H    0.051998
   128  H    0.035115
   129  H    0.045625
   130  H    0.021888
   131  H    0.048104
   132  H    0.034809
   133  H    0.058194
   134  H    0.052530
   135  H    0.055250
   136  H    0.061417
   137  H    0.044243
   138  H    0.067020
   139  H    0.027211
   140  H    0.066560
   141  H    0.059759
   142  H    0.041417
   143  H    0.013848
   144  H    0.035639
   145  H    0.048284
   146  H    0.036537
   147  H    0.035144
   148  H    0.029056
   149  H    0.029053
   150  H    0.034941
   151  H    0.040816
   152  H    0.061465
   153  H    0.026444
   154  H    0.055474
   155  H    0.079621
   156  H    0.065879
   157  H    0.060820
   158  H    0.076172
 Sum of Mulliken charges =  -0.00000

 Dipole moment (field-independent basis, Debye):
    X=             -7.0716    Y=             -1.0483    Z=              0.2184  Tot=              7.1522
 Quadrupole moment (field-independent basis, Debye-Ang):
   XX=           -691.7948   YY=           -506.0440   ZZ=           -481.1221
   XY=            -38.8206   XZ=            -81.9125   YZ=            -25.2974

 Normal termination of Gaussian 16 at Mon Sep 20 16:13:05 2021.
