 Gaussian 16, Revision A.03,
 Gaussian 16:  ES64L-G16RevA.03 25-Dec-2016

 --------------------------------
 #p wB97XD/Def2SVP td=(nstates=5)
 --------------------------------

 --------------------------------
 TDDFT excited states in gaussian
 --------------------------------
 Symbolic Z-matrix:
 Charge =  0 Multiplicity = 1

                         Standard orientation:
 ---------------------------------------------------------------------
 Center     Atomic      Atomic             Coordinates (Angstroms)
 Number     Number       Type             X           Y           Z
 ---------------------------------------------------------------------
      1         12           0      -29.777716   -0.451851    0.672236
      2          6           0      -29.467979    2.017490   -1.847769
      3          6           0      -29.481210   -2.784495   -1.914162
      4          6           0      -29.937708   -2.868981    2.888408
      5          6           0      -30.850509    1.993201    2.899513
      6          7           0      -29.474930   -0.342478   -1.589928
      7          6           0      -29.230723    0.747074   -2.369909
      8          6           0      -29.001474    0.467479   -3.865125
      9          6           0      -29.147365   -1.137145   -3.813488
     10          6           0      -29.395091   -1.404013   -2.358290
     11          6           0      -30.342418   -1.710108   -4.673561
     12          6           0      -27.596516    0.935589   -4.366712
     13          6           0      -27.365647    2.079454   -5.346539
     14          1           0      -26.242491    2.025931   -6.373745
     15          7           0      -29.644292   -2.551000    0.550501
     16          6           0      -29.595114   -3.333518   -0.612175
     17          6           0      -29.689532   -4.717591   -0.204753
     18          6           0      -29.659876   -4.780019    1.186236
     19          6           0      -29.690021   -3.364575    1.603311
     20          6           0      -29.564590   -5.775039   -1.247900
     21          6           0      -29.717149   -5.966509    2.147821
     22          8           0      -29.716492   -5.873211    3.379064
     23          6           0      -29.624950   -7.316715    1.553761
     24          7           0      -30.412699   -0.493655    2.599244
     25          6           0      -30.196564   -1.570587    3.413648
     26          6           0      -30.274864   -1.160392    4.923290
     27          6           0      -30.652530    0.313763    4.857763
     28          6           0      -30.718112    0.635837    3.338917
     29          6           0      -31.220187   -2.072859    5.771206
     30          6           0      -29.611206    1.148083    5.619142
     31          6           0      -30.091759    2.227199    6.519809
     32          7           0      -30.208932    1.574338    0.582313
     33          6           0      -30.606277    2.447780    1.562885
     34          6           0      -30.702402    3.786552    1.062746
     35          6           0      -30.157949    3.745974   -0.313326
     36          6           0      -29.870573    2.340389   -0.526697
     37          6           0      -31.211621    5.007071    1.848476
     38          6           0      -29.811137    4.505767   -1.540786
     39          8           0      -29.775232    5.731564   -1.742029
     40          6           0      -29.346579    3.392425   -2.567524
     41          6           0      -30.333367    3.628624   -3.667897
     42          8           0      -31.461026    3.166683   -3.793457
     43          8           0      -29.799751    4.337886   -4.624488
     44          6           0      -30.648086    4.828480   -5.737700
     45          1           0      -29.224171   -3.387721   -2.787003
     46          1           0      -30.054953   -3.569830    3.717182
     47          1           0      -31.120205    2.756201    3.632193
     48          1           0      -29.835132    0.906992   -4.414227
     49          1           0      -28.276088   -1.743452   -4.063147
     50          1           0      -31.104165   -1.002319   -4.999337
     51          1           0      -30.876441   -2.469837   -4.103907
     52          1           0      -29.926664   -2.186613   -5.561550
     53          1           0      -27.141766    0.070460   -4.849535
     54          1           0      -26.974621    1.230895   -3.522600
     55          1           0      -27.041832    2.861110   -4.659173
     56          1           0      -28.357290    2.195716   -5.783951
     57          1           0      -28.692493   -6.406658   -1.084479
     58          1           0      -29.472683   -5.337185   -2.242172
     59          1           0      -30.416299   -6.453939   -1.277372
     60          1           0      -28.780115   -7.353950    0.865916
     61          1           0      -30.453210   -7.532452    0.878670
     62          1           0      -29.457311   -8.115731    2.275255
     63          1           0      -29.247816   -1.329240    5.246548
     64          1           0      -31.589833    0.503603    5.380494
     65          1           0      -31.570931   -2.962699    5.248665
     66          1           0      -32.122633   -1.570238    6.117171
     67          1           0      -30.747640   -2.305130    6.725477
     68          1           0      -29.026787    1.584346    4.810065
     69          1           0      -28.963822    0.574062    6.281626
     70          1           0      -29.580462    3.123059    6.168297
     71          1           0      -29.924658    1.951833    7.561085
     72          1           0      -31.145557    2.483475    6.408461
     73          1           0      -32.285462    5.104820    1.693385
     74          1           0      -30.666289    5.885496    1.503725
     75          1           0      -31.075740    4.890603    2.923906
     76          1           0      -28.338931    3.661586   -2.883703
     77          1           0      -31.119125    4.036393   -6.318752
     78          1           0      -30.133521    5.493950   -6.430584
     79          1           0      -31.480918    5.478508   -5.471204
     80         12           0       30.311229    0.525216   -0.128830
     81          6           0       28.324449   -2.299721   -0.343243
     82          6           0       27.597633    2.311427    1.058436
     83          6           0       32.445227    2.984049    0.762813
     84          6           0       33.012435   -1.557842   -1.024377
     85          7           0       28.258661   -0.028279    0.577492
     86          6           0       27.674985   -1.167421    0.194742
     87          6           0       26.201306   -1.210399    0.704749
     88          6           0       25.900242    0.350821    0.895530
     89          6           0       27.344594    0.970014    0.768653
     90          6           0       24.817131    0.879134   -0.075688
     91          6           0       26.123776   -1.925452    2.034449
     92          6           0       24.930164   -2.850804    2.212281
     93          1           0       24.168740   -3.007518    3.582246
     94          7           0       29.980390    2.488244    0.643062
     95          6           0       28.847808    3.019246    1.135054
     96          6           0       29.139550    4.357114    1.536499
     97          6           0       30.516681    4.648735    1.297018
     98          6           0       31.066052    3.365407    0.842369
     99          6           0       28.065783    5.303436    1.928693
    100          6           0       31.179541    5.923494    1.681757
    101          8           0       30.522169    6.841576    2.143176
    102          6           0       32.668818    6.150541    1.451352
    103          7           0       32.517135    0.703378   -0.222291
    104          6           0       33.097566    1.824425    0.290166
    105          6           0       34.574998    1.641827    0.418459
    106          6           0       34.740848    0.157454   -0.159895
    107          6           0       33.363422   -0.294651   -0.577122
    108          6           0       35.422507    2.726262   -0.272792
    109          6           0       35.465313   -0.887861    0.798962
    110          6           0       36.662027   -1.724472    0.288496
    111          7           0       30.636290   -1.460830   -0.609137
    112          6           0       31.748510   -2.129964   -1.013461
    113          6           0       31.391187   -3.350567   -1.587901
    114          6           0       30.025662   -3.497313   -1.387335
    115          6           0       29.628245   -2.362234   -0.726250
    116          6           0       32.400369   -4.372929   -2.187998
    117          6           0       28.917092   -4.307728   -1.586738
    118          8           0       28.886632   -5.451021   -2.028445
    119          6           0       27.658820   -3.616954   -0.870022
    120          6           0       26.654265   -3.248117   -1.801010
    121          8           0       26.597830   -2.309380   -2.598936
    122          8           0       25.635163   -4.184279   -1.655091
    123          6           0       24.433320   -4.108634   -2.467926
    124          1           0       26.718516    2.918693    1.282884
    125          1           0       33.250353    3.683815    0.998352
    126          1           0       33.905155   -2.082291   -1.371757
    127          1           0       25.604019   -1.727245   -0.045885
    128          1           0       25.639034    0.631258    1.915419
    129          1           0       24.517705    0.121017   -0.799095
    130          1           0       25.194146    1.759977   -0.596353
    131          1           0       23.974119    1.215880    0.527226
    132          1           0       26.177245   -1.318603    2.938545
    133          1           0       27.078154   -2.445621    2.116031
    134          1           0       25.241341   -3.827608    1.842369
    135          1           0       24.238923   -2.442568    1.474987
    136          1           0       27.896602    5.865076    1.010168
    137          1           0       28.377590    5.943248    2.754457
    138          1           0       27.148277    4.805843    2.243021
    139          1           0       33.173445    5.642127    2.273057
    140          1           0       32.835768    7.210333    1.642332
    141          1           0       32.966741    5.794000    0.465424
    142          1           0       34.674634    1.682048    1.502669
    143          1           0       35.419431    0.133370   -1.012584
    144          1           0       35.826913    3.343526    0.530100
    145          1           0       34.853181    3.317613   -0.990664
    146          1           0       36.271152    2.257484   -0.770345
    147          1           0       34.724168   -1.614921    1.130596
    148          1           0       35.901519   -0.420682    1.682167
    149          1           0       36.122990   -2.589952   -0.096622
    150          1           0       37.285143   -2.043014    1.123170
    151          1           0       37.215610   -1.407397   -0.595209
    152          1           0       32.929736   -4.855504   -1.367413
    153          1           0       33.202547   -3.955100   -2.796608
    154          1           0       31.881362   -5.140778   -2.762374
    155          1           0       27.330479   -4.323106   -0.107211
    156          1           0       24.082152   -5.130182   -2.610317
    157          1           0       24.532480   -3.539168   -3.392417
    158          1           0       23.655368   -3.649083   -1.858086
 ---------------------------------------------------------------------

 SCF Done:  E(RwB97XD) =  -4070.58161876     A.U. after   19 cycles

 Excitation energies and oscillator strengths:

 Excited State   1:      Singlet-A      1.6376 eV  757.12 nm  f=0.3990  <S**2>=0.000
     309 -> 315        0.19102
     311 -> 313        0.68256
     309 <- 315        0.11968
 This state for optimization and/or second-order correction.
 Total Energy, E(TD-HF/TD-DFT) =  -4070.52143892
 Copying the excited state density for this state as the 1-particle RhoCI density.

 Excited State   2:      Singlet-A      1.7237 eV  719.29 nm  f=0.3816  <S**2>=0.000
     310 -> 316       -0.18636
     312 -> 314        0.68177
     310 <- 316       -0.11196

 Excited State   3:      Singlet-A      2.1685 eV  571.75 nm  f=0.1029  <S**2>=0.000
     310 -> 314        0.63396
     312 -> 316        0.29506

 Excited State   4:      Singlet-A      2.1723 eV  570.76 nm  f=0.0972  <S**2>=0.000
     309 -> 313        0.63454
     311 -> 315       -0.29671

 Excited State   5:      Singlet-A      3.2598 eV  380.34 nm  f=0.0048  <S**2>=0.000
     307 -> 313        0.67180
     311 -> 315        0.12873

 The electronic state is 1-A.
 Alpha  occ. eigenvalues --  -46.96047 -46.94874 -19.30465 -19.29899 -19.25151
 Alpha  occ. eigenvalues --  -19.24686 -19.24338 -19.23881 -19.23384 -19.23108
 Alpha  occ. eigenvalues --  -14.47174 -14.46938 -14.46629 -14.46492 -14.44468
 Alpha  occ. eigenvalues --  -14.44437 -14.43831 -14.43553 -10.43469 -10.42453
 Alpha  occ. eigenvalues --  -10.40013 -10.39438 -10.39270 -10.38591 -10.35756
 Alpha  occ. eigenvalues --  -10.35679 -10.35583 -10.35472 -10.35456 -10.35405
 Alpha  occ. eigenvalues --  -10.35330 -10.35287 -10.35168 -10.34905 -10.34899
 Alpha  occ. eigenvalues --  -10.34874 -10.34497 -10.33822 -10.33669 -10.33449
 Alpha  occ. eigenvalues --  -10.33117 -10.32820 -10.32818 -10.32781 -10.32777
 Alpha  occ. eigenvalues --  -10.32717 -10.32654 -10.32506 -10.32492 -10.32407
 Alpha  occ. eigenvalues --  -10.32367 -10.32364 -10.32258 -10.32244 -10.32223
 Alpha  occ. eigenvalues --  -10.32148 -10.32027 -10.32012 -10.31933 -10.31925
 Alpha  occ. eigenvalues --  -10.31906 -10.31755 -10.31534 -10.31449 -10.31090
 Alpha  occ. eigenvalues --  -10.31066 -10.31001 -10.30754 -10.30745 -10.30722
 Alpha  occ. eigenvalues --  -10.30458 -10.30430 -10.30429 -10.30323 -10.30002
 Alpha  occ. eigenvalues --  -10.29922 -10.29905 -10.29740 -10.29734 -10.29715
 Alpha  occ. eigenvalues --  -10.29706 -10.29453 -10.29121 -10.28883 -10.28842
 Alpha  occ. eigenvalues --  -10.28648  -3.21836  -3.20903  -1.95434  -1.94948
 Alpha  occ. eigenvalues --   -1.94795  -1.94495  -1.94029  -1.93879  -1.19951
 Alpha  occ. eigenvalues --   -1.17926  -1.12367  -1.12301  -1.12210  -1.10576
 Alpha  occ. eigenvalues --   -1.09730  -1.08636  -1.07578  -1.07494  -1.06119
 Alpha  occ. eigenvalues --   -1.06104  -1.05888  -1.04782  -1.04683  -1.03335
 Alpha  occ. eigenvalues --   -0.95919  -0.93774  -0.91488  -0.91424  -0.91022
 Alpha  occ. eigenvalues --   -0.90962  -0.90693  -0.90280  -0.89850  -0.89708
 Alpha  occ. eigenvalues --   -0.88866  -0.88682  -0.88189  -0.87388  -0.87045
 Alpha  occ. eigenvalues --   -0.86549  -0.86210  -0.85359  -0.84966  -0.84773
 Alpha  occ. eigenvalues --   -0.84671  -0.84179  -0.83471  -0.82764  -0.82762
 Alpha  occ. eigenvalues --   -0.82499  -0.80795  -0.80151  -0.79572  -0.79410
 Alpha  occ. eigenvalues --   -0.78774  -0.78522  -0.78442  -0.78087  -0.77143
 Alpha  occ. eigenvalues --   -0.77127  -0.75519  -0.74402  -0.74193  -0.73805
 Alpha  occ. eigenvalues --   -0.71854  -0.71228  -0.71218  -0.70115  -0.70112
 Alpha  occ. eigenvalues --   -0.69594  -0.69372  -0.68970  -0.68112  -0.67863
 Alpha  occ. eigenvalues --   -0.67771  -0.67508  -0.67195  -0.66883  -0.66875
 Alpha  occ. eigenvalues --   -0.66195  -0.64727  -0.64366  -0.63017  -0.62503
 Alpha  occ. eigenvalues --   -0.61941  -0.61486  -0.61115  -0.61081  -0.60940
 Alpha  occ. eigenvalues --   -0.60463  -0.60186  -0.60022  -0.59775  -0.59643
 Alpha  occ. eigenvalues --   -0.58747  -0.58353  -0.58123  -0.57543  -0.57480
 Alpha  occ. eigenvalues --   -0.56931  -0.56807  -0.56334  -0.56214  -0.56123
 Alpha  occ. eigenvalues --   -0.55766  -0.55552  -0.55530  -0.55350  -0.54907
 Alpha  occ. eigenvalues --   -0.54606  -0.54587  -0.54491  -0.54273  -0.54067
 Alpha  occ. eigenvalues --   -0.54052  -0.54022  -0.53826  -0.53462  -0.53352
 Alpha  occ. eigenvalues --   -0.53235  -0.52555  -0.52412  -0.52315  -0.52099
 Alpha  occ. eigenvalues --   -0.51974  -0.51946  -0.51863  -0.51670  -0.51538
 Alpha  occ. eigenvalues --   -0.51438  -0.51391  -0.51045  -0.50993  -0.50939
 Alpha  occ. eigenvalues --   -0.50597  -0.50458  -0.50348  -0.50219  -0.50122
 Alpha  occ. eigenvalues --   -0.50014  -0.49732  -0.49453  -0.49332  -0.48852
 Alpha  occ. eigenvalues --   -0.48724  -0.48664  -0.48565  -0.48549  -0.48263
 Alpha  occ. eigenvalues --   -0.48095  -0.48009  -0.47913  -0.47774  -0.47768
 Alpha  occ. eigenvalues --   -0.47527  -0.47438  -0.47395  -0.47275  -0.47108
 Alpha  occ. eigenvalues --   -0.47064  -0.46971  -0.46679  -0.46553  -0.46505
 Alpha  occ. eigenvalues --   -0.46301  -0.46203  -0.45933  -0.45852  -0.45574
 Alpha  occ. eigenvalues --   -0.45393  -0.45172  -0.45101  -0.45005  -0.44845
 Alpha  occ. eigenvalues --   -0.44749  -0.44281  -0.44161  -0.44023  -0.43973
 Alpha  occ. eigenvalues --   -0.43873  -0.43818  -0.43628  -0.43345  -0.43302
 Alpha  occ. eigenvalues --   -0.43149  -0.42935  -0.42700  -0.42321  -0.42218
 Alpha  occ. eigenvalues --   -0.41972  -0.41730  -0.41646  -0.41407  -0.40351
 Alpha  occ. eigenvalues --   -0.40314  -0.40161  -0.39923  -0.39874  -0.39424
 Alpha  occ. eigenvalues --   -0.39279  -0.39258  -0.38705  -0.38366  -0.38299
 Alpha  occ. eigenvalues --   -0.37775  -0.37602  -0.36850  -0.36514  -0.36418
 Alpha  occ. eigenvalues --   -0.35780  -0.35524  -0.35147  -0.34131  -0.34052
 Alpha  occ. eigenvalues --   -0.33824  -0.33287  -0.32692  -0.32641  -0.32609
 Alpha  occ. eigenvalues --   -0.32489  -0.31662  -0.30827  -0.26499  -0.25864
 Alpha  occ. eigenvalues --   -0.23366  -0.23013
 Alpha virt. eigenvalues --   -0.07567  -0.06863  -0.00392   0.00055   0.01852
 Alpha virt. eigenvalues --    0.01877   0.04166   0.04430   0.05660   0.05776
 Alpha virt. eigenvalues --    0.06207   0.07168   0.07698   0.08112   0.08337

 Mulliken charges:
               1
     1  Mg   0.972829
     2  C    0.039474
     3  C   -0.094871
     4  C   -0.084676
     5  C   -0.089026
     6  N   -0.280044
     7  C   -0.033659
     8  C   -0.039271
     9  C   -0.125385
    10  C    0.009675
    11  C    0.001834
    12  C   -0.006527
    13  C   -0.125639
    14  H    0.045867
    15  N   -0.445368
    16  C    0.189165
    17  C   -0.135216
    18  C   -0.078159
    19  C    0.173962
    20  C    0.050446
    21  C    0.084248
    22  O   -0.232495
    23  C   -0.006836
    24  N   -0.424826
    25  C    0.030624
    26  C   -0.065380
    27  C   -0.064789
    28  C    0.113731
    29  C    0.012606
    30  C   -0.040724
    31  C   -0.047847
    32  N   -0.454845
    33  C    0.145701
    34  C   -0.198917
    35  C   -0.045554
    36  C    0.123291
    37  C    0.077677
    38  C    0.112861
    39  O   -0.226543
    40  C   -0.112953
    41  C    0.233071
    42  O   -0.268634
    43  O   -0.310188
    44  C    0.148265
    45  H    0.001873
    46  H    0.016036
    47  H   -0.006147
    48  H    0.060593
    49  H    0.045607
    50  H    0.052695
    51  H    0.037788
    52  H    0.037495
    53  H    0.038512
    54  H    0.032732
    55  H    0.062085
    56  H    0.051827
    57  H    0.054670
    58  H    0.035486
    59  H    0.048413
    60  H    0.039641
    61  H    0.049832
    62  H    0.061290
    63  H    0.053977
    64  H    0.031671
    65  H    0.057309
    66  H    0.025274
    67  H    0.035169
    68  H    0.036539
    69  H    0.031247
    70  H    0.037267
    71  H    0.043611
    72  H    0.025479
    73  H    0.056360
    74  H    0.061414
    75  H    0.025344
    76  H    0.075632
    77  H    0.050762
    78  H    0.052462
    79  H    0.053098
    80  Mg   0.939240
    81  C   -0.063577
    82  C   -0.087982
    83  C   -0.039716
    84  C   -0.124260
    85  N   -0.332183
    86  C    0.013046
    87  C   -0.124714
    88  C   -0.102955
    89  C    0.083782
    90  C    0.035817
    91  C    0.029651
    92  C   -0.116564
    93  H    0.044709
    94  N   -0.455901
    95  C    0.158219
    96  C   -0.182174
    97  C   -0.057365
    98  C    0.198390
    99  C    0.076282
   100  C    0.004781
   101  O   -0.236049
   102  C    0.002908
   103  N   -0.353982
   104  C   -0.009655
   105  C   -0.086584
   106  C   -0.051259
   107  C    0.062281
   108  C    0.022943
   109  C   -0.053273
   110  C   -0.067787
   111  N   -0.433997
   112  C    0.194305
   113  C   -0.187288
   114  C    0.053534
   115  C    0.162313
   116  C    0.075194
   117  C    0.056220
   118  O   -0.207024
   119  C   -0.077451
   120  C    0.295393
   121  O   -0.257316
   122  O   -0.388865
   123  C    0.139745
   124  H   -0.000128
   125  H   -0.030078
   126  H   -0.003583
   127  H    0.037092
   128  H    0.045712
   129  H    0.048945
   130  H    0.034016
   131  H    0.036031
   132  H    0.037196
   133  H    0.027164
   134  H    0.055788
   135  H    0.044463
   136  H    0.060693
   137  H    0.065567
   138  H    0.024399
   139  H    0.059351
   140  H    0.052007
   141  H    0.063631
   142  H    0.053046
   143  H    0.024106
   144  H    0.042387
   145  H    0.053159
   146  H    0.040441
   147  H    0.043624
   148  H    0.030921
   149  H    0.022321
   150  H    0.048001
   151  H    0.040155
   152  H    0.047477
   153  H    0.037852
   154  H    0.062242
   155  H    0.083012
   156  H    0.056857
   157  H    0.068866
   158  H    0.036435
 Sum of Mulliken charges =  -0.00000

 Dipole moment (field-independent basis, Debye):
    X=              4.0227    Y=             -4.6867    Z=             -0.7293  Tot=              6.2193
 Quadrupole moment (field-independent basis, Debye-Ang):
   XX=           -431.1043   YY=           -559.8331   ZZ=           -488.4699
   XY=            145.4845   XZ=             52.4780   YZ=              7.6623

 Normal termination of Gaussian 16 at Mon Sep 20 13:07:30 2021.
