 Gaussian 16, Revision A.03,
 Gaussian 16:  ES64L-G16RevA.03 25-Dec-2016

 --------------------------------
 #p wB97XD/Def2SVP td=(nstates=5)
 --------------------------------

 --------------------------------
 TDDFT excited states in gaussian
 --------------------------------
 Symbolic Z-matrix:
 Charge =  0 Multiplicity = 1

                         Standard orientation:
 ---------------------------------------------------------------------
 Center     Atomic      Atomic             Coordinates (Angstroms)
 Number     Number       Type             X           Y           Z
 ---------------------------------------------------------------------
      1         12           0       20.489686    0.313229    0.341504
      2          6           0       18.450518   -1.928641   -1.359427
      3          6           0       21.951042    1.167915   -2.571133
      4          6           0       22.949098    1.869260    2.064638
      5          6           0       19.507635   -1.221155    3.380417
      6          7           0       20.107793   -0.290599   -1.663230
      7          6           0       19.141722   -1.096545   -2.225088
      8          6           0       19.301258   -1.141126   -3.769773
      9          6           0       20.746981   -0.581217   -3.941706
     10          6           0       20.917366    0.251434   -2.679562
     11          6           0       21.868196   -1.675107   -4.035942
     12          6           0       18.082347   -0.433719   -4.389795
     13          6           0       17.517466   -1.120058   -5.574784
     14          1           0       16.139679   -0.756375   -5.899676
     15          7           0       22.054274    1.537496   -0.209347
     16          6           0       22.447659    1.808273   -1.480731
     17          6           0       23.340396    2.939442   -1.449848
     18          6           0       23.636715    3.152694   -0.055268
     19          6           0       22.923113    2.097152    0.669491
     20          6           0       23.895824    3.585371   -2.668327
     21          6           0       24.630582    4.132712    0.649234
     22          8           0       24.756358    4.191584    1.874061
     23          6           0       25.390650    5.167463   -0.132530
     24          7           0       21.330693    0.033296    2.397668
     25          6           0       22.302293    0.951819    2.880679
     26          6           0       22.503491    0.881449    4.358302
     27          6           0       21.230770    0.049635    4.721901
     28          6           0       20.593401   -0.363277    3.397817
     29          6           0       23.864896    0.239899    4.792164
     30          6           0       20.189859    0.846641    5.590136
     31          6           0       19.775181    2.233734    5.036613
     32          7           0       19.170358   -1.171594    0.946450
     33          6           0       18.836546   -1.655009    2.221046
     34          6           0       17.848888   -2.649903    2.028846
     35          6           0       17.662778   -2.753955    0.655977
     36          6           0       18.486729   -1.855901    0.061730
     37          6           0       17.130138   -3.381197    3.117543
     38          6           0       17.000409   -3.488731   -0.316891
     39          8           0       16.194138   -4.427786   -0.186708
     40          6           0       17.433089   -3.018322   -1.738272
     41          6           0       16.097140   -2.527733   -2.378686
     42          8           0       15.459415   -1.517190   -2.033140
     43          8           0       15.752604   -3.418630   -3.389418
     44          6           0       14.385166   -3.316417   -3.991266
     45          1           0       22.405631    1.288381   -3.556753
     46          1           0       23.573949    2.388090    2.795568
     47          1           0       19.018613   -1.579058    4.288895
     48          1           0       19.204842   -2.164636   -4.130467
     49          1           0       20.766876    0.098144   -4.793350
     50          1           0       21.528984   -2.711245   -4.052375
     51          1           0       22.492009   -1.660900   -3.143124
     52          1           0       22.412571   -1.536558   -4.969827
     53          1           0       18.460341    0.512102   -4.775397
     54          1           0       17.340090   -0.303955   -3.601727
     55          1           0       17.501615   -2.179656   -5.319098
     56          1           0       18.208271   -0.994628   -6.408313
     57          1           0       23.302558    3.348038   -3.551190
     58          1           0       24.969296    3.395007   -2.693895
     59          1           0       23.800565    4.667224   -2.574829
     60          1           0       26.270076    5.373906    0.477887
     61          1           0       24.816643    6.090695   -0.214926
     62          1           0       25.722771    4.788346   -1.099500
     63          1           0       22.432121    1.847104    4.860780
     64          1           0       21.541528   -0.845245    5.262049
     65          1           0       24.250966   -0.360052    3.967640
     66          1           0       23.843128   -0.416557    5.662188
     67          1           0       24.661490    0.938756    5.049004
     68          1           0       20.612135    0.886959    6.594352
     69          1           0       19.349320    0.157031    5.667068
     70          1           0       18.703684    2.308120    4.849902
     71          1           0       20.343924    2.385438    4.118793
     72          1           0       20.020419    3.048335    5.717413
     73          1           0       17.298349   -4.440120    2.921564
     74          1           0       16.081322   -3.087191    3.077237
     75          1           0       17.512194   -3.215621    4.124951
     76          1           0       17.789812   -3.888180   -2.289172
     77          1           0       13.683570   -3.477208   -3.173039
     78          1           0       14.128433   -4.014148   -4.788300
     79          1           0       14.465171   -2.279825   -4.318764
     80         12           0      -20.302068   -0.553800   -0.316703
     81          6           0      -19.978876    2.850176    0.089224
     82          6           0      -16.896479   -0.796414   -0.402667
     83          6           0      -20.650960   -3.720316    0.557462
     84          6           0      -23.783481   -0.124659   -0.164769
     85          7           0      -18.672782    0.869973    0.302452
     86          6           0      -18.762142    2.219420    0.179893
     87          6           0      -17.423282    2.895223    0.213957
     88          6           0      -16.531327    1.750021   -0.365676
     89          6           0      -17.436328    0.535289   -0.222513
     90          6           0      -16.029057    2.039749   -1.809210
     91          6           0      -16.977765    3.289808    1.710540
     92          6           0      -16.144081    4.647749    1.842680
     93          1           0      -14.799048    4.310781    2.437137
     94          7           0      -18.952680   -2.086896   -0.168329
     95          6           0      -17.603020   -2.030482   -0.140168
     96          6           0      -17.036604   -3.355064    0.080842
     97          6           0      -18.121749   -4.220689    0.328592
     98          6           0      -19.316560   -3.334204    0.248288
     99          6           0      -15.505171   -3.580723    0.088724
    100          6           0      -17.944783   -5.636749    0.801185
    101          8           0      -16.836250   -6.094453    0.900702
    102          6           0      -19.095373   -6.567522    1.229436
    103          7           0      -21.996332   -1.842513    0.020139
    104          6           0      -21.863490   -3.045038    0.366692
    105          6           0      -23.143204   -3.698390    0.737864
    106          6           0      -24.195408   -2.545801    0.496293
    107          6           0      -23.312656   -1.443162    0.100463
    108          6           0      -23.361324   -5.035347   -0.048132
    109          6           0      -25.038560   -2.215969    1.813858
    110          6           0      -26.391875   -1.440775    1.632383
    111          7           0      -21.657085    0.995994   -0.170256
    112          6           0      -23.038809    1.016594   -0.227907
    113          6           0      -23.522091    2.367993   -0.292100
    114          6           0      -22.318376    3.152906   -0.219202
    115          6           0      -21.258404    2.284602   -0.042810
    116          6           0      -24.938440    2.831361   -0.408702
    117          6           0      -21.824152    4.486132   -0.249375
    118          8           0      -22.337863    5.608853   -0.336856
    119          6           0      -20.314889    4.357993    0.142705
    120          6           0      -19.556039    5.243515   -0.788519
    121          8           0      -19.235566    6.415693   -0.546635
    122          8           0      -19.320951    4.585381   -1.964063
    123          6           0      -18.606066    5.501159   -2.896883
    124          1           0      -15.833691   -0.977101   -0.578864
    125          1           0      -20.729804   -4.753001    0.901972
    126          1           0      -24.853626    0.000875    0.016898
    127          1           0      -17.523654    3.710133   -0.501833
    128          1           0      -15.623607    1.670135    0.232685
    129          1           0      -14.942861    2.125677   -1.801467
    130          1           0      -16.406549    3.024348   -2.087125
    131          1           0      -16.431991    1.262378   -2.457639
    132          1           0      -16.472579    2.512839    2.284106
    133          1           0      -17.855580    3.433271    2.339766
    134          1           0      -16.696953    5.225518    2.583518
    135          1           0      -16.052007    5.312629    0.983792
    136          1           0      -15.106520   -3.994497    1.014916
    137          1           0      -14.923940   -2.695477   -0.171748
    138          1           0      -15.284903   -4.258000   -0.735758
    139          1           0      -19.779327   -6.808681    0.416367
    140          1           0      -19.663219   -6.198242    2.083788
    141          1           0      -18.596231   -7.430495    1.671211
    142          1           0      -23.029220   -3.877255    1.806947
    143          1           0      -24.883087   -2.638634   -0.343949
    144          1           0      -23.459712   -5.825204    0.696225
    145          1           0      -22.540494   -5.242607   -0.734940
    146          1           0      -24.340216   -5.120932   -0.519623
    147          1           0      -24.433932   -1.630689    2.506981
    148          1           0      -25.230113   -3.182408    2.277822
    149          1           0      -27.337871   -1.876808    1.952253
    150          1           0      -26.582349   -1.247571    0.577573
    151          1           0      -26.341146   -0.473678    2.132660
    152          1           0      -25.688525    2.066316   -0.608192
    153          1           0      -24.821815    3.537546   -1.229786
    154          1           0      -25.029170    3.384836    0.526018
    155          1           0      -20.096538    4.619812    1.178570
    156          1           0      -19.284891    6.290625   -3.217862
    157          1           0      -18.377939    5.033287   -3.854590
    158          1           0      -17.707116    5.851290   -2.389110
 ---------------------------------------------------------------------

 SCF Done:  E(RwB97XD) =  -4070.60501765     A.U. after   19 cycles

 Excitation energies and oscillator strengths:

 Excited State   1:      Singlet-A      1.6038 eV  773.07 nm  f=0.3780  <S**2>=0.000
     309 -> 316        0.16815
     311 -> 313        0.68662
     309 <- 316        0.11352
 This state for optimization and/or second-order correction.
 Total Energy, E(TD-HF/TD-DFT) =  -4070.54607908
 Copying the excited state density for this state as the 1-particle RhoCI density.

 Excited State   2:      Singlet-A      1.6579 eV  747.84 nm  f=0.3599  <S**2>=0.000
     310 -> 315        0.16763
     312 -> 314        0.68557
     310 <- 315        0.10878

 Excited State   3:      Singlet-A      2.1619 eV  573.49 nm  f=0.1253  <S**2>=0.000
     309 -> 313        0.64150
     311 -> 316       -0.27558

 Excited State   4:      Singlet-A      2.1685 eV  571.74 nm  f=0.1037  <S**2>=0.000
     310 -> 314        0.63802
     312 -> 315       -0.28234

 Excited State   5:      Singlet-A      3.2512 eV  381.35 nm  f=0.0002  <S**2>=0.000
     304 -> 313       -0.18360
     304 -> 318       -0.10920
     304 -> 320       -0.12625
     306 -> 313        0.55400
     307 -> 313        0.31642

 The electronic state is 1-A.
 Alpha  occ. eigenvalues --  -46.95552 -46.94671 -19.30720 -19.29993 -19.24987
 Alpha  occ. eigenvalues --  -19.24585 -19.23963 -19.23739 -19.22867 -19.22757
 Alpha  occ. eigenvalues --  -14.46664 -14.46563 -14.46483 -14.46074 -14.44949
 Alpha  occ. eigenvalues --  -14.43918 -14.43121 -14.43113 -10.43945 -10.42477
 Alpha  occ. eigenvalues --  -10.39774 -10.39237 -10.38002 -10.37672 -10.36434
 Alpha  occ. eigenvalues --  -10.35862 -10.35734 -10.35426 -10.35143 -10.35015
 Alpha  occ. eigenvalues --  -10.34675 -10.34559 -10.34338 -10.34233 -10.34216
 Alpha  occ. eigenvalues --  -10.34150 -10.33910 -10.33631 -10.33370 -10.33163
 Alpha  occ. eigenvalues --  -10.32711 -10.32425 -10.32407 -10.32345 -10.32340
 Alpha  occ. eigenvalues --  -10.32248 -10.32233 -10.32210 -10.32158 -10.32095
 Alpha  occ. eigenvalues --  -10.31977 -10.31837 -10.31831 -10.31823 -10.31803
 Alpha  occ. eigenvalues --  -10.31724 -10.31670 -10.31606 -10.31590 -10.31494
 Alpha  occ. eigenvalues --  -10.31368 -10.31283 -10.31249 -10.31231 -10.31056
 Alpha  occ. eigenvalues --  -10.30914 -10.30874 -10.30789 -10.30652 -10.30640
 Alpha  occ. eigenvalues --  -10.30577 -10.30573 -10.30529 -10.30329 -10.30248
 Alpha  occ. eigenvalues --  -10.30091 -10.30072 -10.29998 -10.29964 -10.29782
 Alpha  occ. eigenvalues --  -10.29689 -10.29673 -10.29639 -10.29398 -10.28361
 Alpha  occ. eigenvalues --  -10.27819  -3.21564  -3.20699  -1.95140  -1.94702
 Alpha  occ. eigenvalues --   -1.94525  -1.94268  -1.93829  -1.93673  -1.18065
 Alpha  occ. eigenvalues --   -1.16602  -1.14225  -1.11661  -1.10246  -1.10193
 Alpha  occ. eigenvalues --   -1.09039  -1.08871  -1.08583  -1.06861  -1.06670
 Alpha  occ. eigenvalues --   -1.05958  -1.05923  -1.05523  -1.04794  -1.04236
 Alpha  occ. eigenvalues --   -0.94549  -0.94405  -0.91591  -0.91017  -0.90919
 Alpha  occ. eigenvalues --   -0.90596  -0.90454  -0.90116  -0.89707  -0.89225
 Alpha  occ. eigenvalues --   -0.89076  -0.88919  -0.88507  -0.88473  -0.86491
 Alpha  occ. eigenvalues --   -0.86195  -0.85660  -0.85444  -0.84161  -0.84056
 Alpha  occ. eigenvalues --   -0.83727  -0.83517  -0.82939  -0.82811  -0.82349
 Alpha  occ. eigenvalues --   -0.82265  -0.80331  -0.80151  -0.79802  -0.78986
 Alpha  occ. eigenvalues --   -0.78860  -0.78699  -0.77960  -0.77854  -0.77428
 Alpha  occ. eigenvalues --   -0.77392  -0.75242  -0.74627  -0.74201  -0.74001
 Alpha  occ. eigenvalues --   -0.72368  -0.71704  -0.71311  -0.70749  -0.70119
 Alpha  occ. eigenvalues --   -0.69660  -0.69519  -0.68732  -0.68487  -0.67328
 Alpha  occ. eigenvalues --   -0.67287  -0.66845  -0.66590  -0.66452  -0.66445
 Alpha  occ. eigenvalues --   -0.66040  -0.64368  -0.63597  -0.62559  -0.61873
 Alpha  occ. eigenvalues --   -0.61758  -0.61551  -0.61169  -0.61134  -0.60754
 Alpha  occ. eigenvalues --   -0.60434  -0.59975  -0.59560  -0.58964  -0.58952
 Alpha  occ. eigenvalues --   -0.58568  -0.58091  -0.57944  -0.57630  -0.57564
 Alpha  occ. eigenvalues --   -0.57266  -0.56971  -0.56914  -0.56726  -0.56054
 Alpha  occ. eigenvalues --   -0.55530  -0.55441  -0.54965  -0.54913  -0.54895
 Alpha  occ. eigenvalues --   -0.54767  -0.54644  -0.54380  -0.54316  -0.53922
 Alpha  occ. eigenvalues --   -0.53854  -0.53634  -0.53595  -0.53394  -0.53101
 Alpha  occ. eigenvalues --   -0.53094  -0.52514  -0.52417  -0.52396  -0.52274
 Alpha  occ. eigenvalues --   -0.52151  -0.51829  -0.51642  -0.51558  -0.51335
 Alpha  occ. eigenvalues --   -0.51093  -0.51044  -0.50824  -0.50818  -0.50685
 Alpha  occ. eigenvalues --   -0.50585  -0.50450  -0.50224  -0.50026  -0.49902
 Alpha  occ. eigenvalues --   -0.49686  -0.49637  -0.49553  -0.49339  -0.49321
 Alpha  occ. eigenvalues --   -0.49001  -0.48867  -0.48723  -0.48518  -0.48205
 Alpha  occ. eigenvalues --   -0.48188  -0.48145  -0.47889  -0.47793  -0.47662
 Alpha  occ. eigenvalues --   -0.47642  -0.47391  -0.47310  -0.47065  -0.46546
 Alpha  occ. eigenvalues --   -0.46544  -0.46404  -0.46332  -0.46231  -0.46116
 Alpha  occ. eigenvalues --   -0.46074  -0.45919  -0.45683  -0.45379  -0.45375
 Alpha  occ. eigenvalues --   -0.45269  -0.45117  -0.45090  -0.45000  -0.44859
 Alpha  occ. eigenvalues --   -0.44597  -0.44503  -0.44301  -0.44063  -0.43857
 Alpha  occ. eigenvalues --   -0.43816  -0.43796  -0.43752  -0.43508  -0.43325
 Alpha  occ. eigenvalues --   -0.43092  -0.43055  -0.42806  -0.42647  -0.42607
 Alpha  occ. eigenvalues --   -0.42154  -0.41957  -0.41865  -0.41492  -0.41055
 Alpha  occ. eigenvalues --   -0.40558  -0.40207  -0.40180  -0.39967  -0.39596
 Alpha  occ. eigenvalues --   -0.39285  -0.38887  -0.38870  -0.38748  -0.38540
 Alpha  occ. eigenvalues --   -0.38389  -0.38085  -0.36955  -0.36166  -0.36102
 Alpha  occ. eigenvalues --   -0.35787  -0.35468  -0.35313  -0.33953  -0.33568
 Alpha  occ. eigenvalues --   -0.33536  -0.32773  -0.32734  -0.32048  -0.31991
 Alpha  occ. eigenvalues --   -0.31914  -0.31536  -0.31011  -0.26157  -0.26126
 Alpha  occ. eigenvalues --   -0.22998  -0.22966
 Alpha virt. eigenvalues --   -0.07354  -0.07095   0.00156   0.00434   0.02314
 Alpha virt. eigenvalues --    0.02606   0.04170   0.04466   0.05158   0.05402
 Alpha virt. eigenvalues --    0.06987   0.07135   0.07428   0.08145   0.08944

 Mulliken charges:
               1
     1  Mg   0.955750
     2  C   -0.066875
     3  C   -0.119232
     4  C   -0.020924
     5  C   -0.102795
     6  N   -0.406855
     7  C    0.020037
     8  C   -0.101608
     9  C   -0.087811
    10  C    0.034035
    11  C    0.034880
    12  C    0.039847
    13  C   -0.123621
    14  H    0.052805
    15  N   -0.463919
    16  C    0.229681
    17  C   -0.175565
    18  C   -0.078309
    19  C    0.188211
    20  C    0.069120
    21  C    0.055809
    22  O   -0.248560
    23  C   -0.006156
    24  N   -0.316470
    25  C   -0.057207
    26  C   -0.058174
    27  C   -0.099762
    28  C    0.111936
    29  C    0.018222
    30  C   -0.021900
    31  C   -0.053860
    32  N   -0.434821
    33  C    0.116930
    34  C   -0.197882
    35  C    0.053986
    36  C    0.194159
    37  C    0.092941
    38  C    0.016702
    39  O   -0.242800
    40  C   -0.028762
    41  C    0.287638
    42  O   -0.268763
    43  O   -0.389808
    44  C    0.142333
    45  H   -0.000918
    46  H    0.018639
    47  H    0.002578
    48  H    0.020109
    49  H    0.019447
    50  H    0.035600
    51  H    0.053069
    52  H    0.043465
    53  H    0.021637
    54  H    0.065552
    55  H    0.039907
    56  H    0.040157
    57  H    0.041071
    58  H    0.067730
    59  H    0.043174
    60  H    0.054705
    61  H    0.075066
    62  H    0.027157
    63  H    0.045819
    64  H    0.030926
    65  H    0.039590
    66  H    0.032777
    67  H    0.042667
    68  H    0.031257
    69  H    0.022874
    70  H    0.046455
    71  H    0.045730
    72  H    0.042294
    73  H    0.058132
    74  H    0.067999
    75  H    0.019639
    76  H    0.066926
    77  H    0.068304
    78  H    0.069535
    79  H    0.058348
    80  Mg   0.966823
    81  C    0.015898
    82  C   -0.089472
    83  C   -0.073329
    84  C   -0.081687
    85  N   -0.340794
    86  C   -0.050101
    87  C   -0.024398
    88  C   -0.146494
    89  C    0.111141
    90  C    0.045247
    91  C    0.022907
    92  C   -0.129977
    93  H    0.028941
    94  N   -0.460513
    95  C    0.119228
    96  C   -0.139244
    97  C   -0.060629
    98  C    0.168454
    99  C    0.086762
   100  C    0.018658
   101  O   -0.211016
   102  C   -0.019650
   103  N   -0.295212
   104  C    0.031342
   105  C   -0.087949
   106  C   -0.051397
   107  C    0.005333
   108  C    0.018788
   109  C   -0.018468
   110  C   -0.065371
   111  N   -0.451155
   112  C    0.151345
   113  C   -0.200816
   114  C   -0.007576
   115  C    0.105941
   116  C    0.098586
   117  C    0.085823
   118  O   -0.226263
   119  C   -0.061123
   120  C    0.241260
   121  O   -0.258084
   122  O   -0.370098
   123  C    0.138513
   124  H    0.002922
   125  H   -0.045532
   126  H   -0.027282
   127  H    0.025997
   128  H    0.042496
   129  H    0.041652
   130  H    0.029805
   131  H    0.040805
   132  H    0.040704
   133  H    0.032333
   134  H    0.057533
   135  H    0.062914
   136  H    0.069831
   137  H    0.019272
   138  H    0.052859
   139  H    0.067211
   140  H    0.060691
   141  H    0.051557
   142  H    0.046694
   143  H    0.041935
   144  H    0.030585
   145  H    0.057224
   146  H    0.038709
   147  H    0.041070
   148  H    0.036541
   149  H    0.040086
   150  H    0.033022
   151  H    0.044195
   152  H    0.043232
   153  H    0.064978
   154  H    0.064714
   155  H    0.078456
   156  H    0.064853
   157  H    0.047282
   158  H    0.060482
 Sum of Mulliken charges =  -0.00000

 Dipole moment (field-independent basis, Debye):
    X=              1.3883    Y=             -4.3259    Z=             -3.2808  Tot=              5.6040
 Quadrupole moment (field-independent basis, Debye-Ang):
   XX=           -361.1232   YY=           -566.2354   ZZ=           -462.3881
   XY=            182.9343   XZ=            -35.6792   YZ=            -11.4912

 Normal termination of Gaussian 16 at Sun Sep 19 11:07:00 2021.
