 Gaussian 16, Revision A.03,
 Gaussian 16:  ES64L-G16RevA.03 25-Dec-2016

 --------------------------------
 #p wB97XD/Def2SVP td=(nstates=5)
 --------------------------------

 --------------------------------
 TDDFT excited states in gaussian
 --------------------------------
 Symbolic Z-matrix:
 Charge =  0 Multiplicity = 1

                         Standard orientation:
 ---------------------------------------------------------------------
 Center     Atomic      Atomic             Coordinates (Angstroms)
 Number     Number       Type             X           Y           Z
 ---------------------------------------------------------------------
      1         12           0       30.067676    0.412445    0.379560
      2          6           0       29.436797   -2.375540   -1.457456
      3          6           0       29.104394    2.557872   -2.144782
      4          6           0       30.963892    3.068379    2.345821
      5          6           0       31.513688   -1.709883    2.928219
      6          7           0       29.558054    0.105707   -1.627787
      7          6           0       29.097714   -1.160019   -2.123682
      8          6           0       28.332901   -0.990276   -3.375076
      9          6           0       28.631331    0.537599   -3.719666
     10          6           0       29.139230    1.153557   -2.435055
     11          6           0       29.705118    0.721745   -4.905104
     12          6           0       26.848625   -1.463922   -3.303223
     13          6           0       26.380261   -2.273634   -4.469186
     14          1           0       26.888210   -1.804935   -5.889465
     15          7           0       29.969617    2.527762    0.159586
     16          6           0       29.550237    3.151553   -0.977678
     17          6           0       29.611227    4.553620   -0.743746
     18          6           0       30.073458    4.772226    0.612636
     19          6           0       30.306946    3.400084    1.175283
     20          6           0       29.313468    5.586088   -1.852964
     21          6           0       30.279573    6.003893    1.437778
     22          8           0       30.781613    6.099854    2.563304
     23          6           0       29.737183    7.336953    0.796538
     24          7           0       31.215000    0.672779    2.361537
     25          6           0       31.337122    1.834265    2.954451
     26          6           0       31.787237    1.702127    4.407921
     27          6           0       31.957378    0.164998    4.574296
     28          6           0       31.553380   -0.342384    3.191415
     29          6           0       33.139175    2.514978    4.743201
     30          6           0       30.974357   -0.337591    5.721594
     31          6           0       29.437744   -0.290141    5.534291
     32          7           0       30.563430   -1.618478    0.626101
     33          6           0       31.079951   -2.299781    1.712033
     34          6           0       30.956902   -3.737697    1.397320
     35          6           0       30.322533   -3.878481    0.199699
     36          6           0       30.103459   -2.521143   -0.235378
     37          6           0       31.584959   -4.824530    2.199893
     38          6           0       29.803681   -4.804758   -0.806437
     39          8           0       29.806790   -6.023422   -0.854195
     40          6           0       29.218933   -3.830484   -1.920984
     41          6           0       29.996533   -4.064910   -3.154695
     42          8           0       31.227889   -3.989159   -3.309599
     43          8           0       29.041824   -4.398141   -4.094024
     44          6           0       29.551432   -4.501115   -5.467684
     45          1           0       28.759244    3.268851   -2.898133
     46          1           0       31.115783    3.956360    2.964031
     47          1           0       31.874106   -2.370012    3.719124
     48          1           0       28.833345   -1.647968   -4.086909
     49          1           0       27.687681    1.008152   -3.994037
     50          1           0       29.889130   -0.189937   -5.473502
     51          1           0       30.662539    0.902288   -4.416582
     52          1           0       29.334714    1.591278   -5.446484
     53          1           0       26.190455   -0.598079   -3.230351
     54          1           0       26.838888   -2.077332   -2.402372
     55          1           0       25.299697   -2.242644   -4.603256
     56          1           0       26.524079   -3.353449   -4.509268
     57          1           0       28.260397    5.740508   -2.087826
     58          1           0       29.901618    5.203987   -2.687173
     59          1           0       29.587976    6.602769   -1.572523
     60          1           0       30.399469    7.631881   -0.017438
     61          1           0       29.535186    8.039765    1.604634
     62          1           0       28.725066    7.250829    0.400657
     63          1           0       30.977737    2.044638    5.052072
     64          1           0       32.968007   -0.135315    4.851111
     65          1           0       32.827472    3.381090    5.328076
     66          1           0       33.607067    2.862153    3.821412
     67          1           0       33.916151    2.046068    5.345618
     68          1           0       31.150032    0.100468    6.703979
     69          1           0       31.218088   -1.400159    5.748152
     70          1           0       29.167813   -1.346228    5.544793
     71          1           0       29.140632    0.226762    4.622663
     72          1           0       28.910598    0.227624    6.335593
     73          1           0       30.884857   -5.649110    2.069206
     74          1           0       31.713978   -4.557387    3.248910
     75          1           0       32.448339   -5.180890    1.639558
     76          1           0       28.227214   -4.268483   -2.030764
     77          1           0       28.680582   -4.878457   -6.004502
     78          1           0       30.305459   -5.287942   -5.446380
     79          1           0       30.042107   -3.610054   -5.859826
     80         12           0      -30.423138   -0.688593   -0.351582
     81          6           0      -28.431004    2.126310   -1.083903
     82          6           0      -27.634050   -2.171591    0.924690
     83          6           0      -32.461893   -3.058749    1.029464
     84          6           0      -33.218508    1.321024   -1.272101
     85          7           0      -28.267269   -0.014719    0.022508
     86          6           0      -27.617209    1.078760   -0.473653
     87          6           0      -26.149631    1.141876   -0.016366
     88          6           0      -25.959781   -0.429487    0.261658
     89          6           0      -27.380830   -0.912856    0.411882
     90          6           0      -25.206595   -1.222431   -0.839923
     91          6           0      -25.902810    1.997243    1.306813
     92          6           0      -24.522686    2.585965    1.555348
     93          1           0      -23.600048    2.071832    2.680928
     94          7           0      -30.156103   -2.469345    0.823666
     95          6           0      -28.905492   -2.939745    1.101007
     96          6           0      -28.959745   -4.231295    1.627763
     97          6           0      -30.366912   -4.561625    1.658456
     98          6           0      -31.097913   -3.349165    1.193129
     99          6           0      -27.749406   -5.064945    2.030894
    100          6           0      -30.876639   -5.905889    2.126646
    101          8           0      -30.057371   -6.785088    2.498833
    102          6           0      -32.386726   -6.330003    2.076764
    103          7           0      -32.494819   -0.791468   -0.186898
    104          6           0      -33.116867   -1.920652    0.411275
    105          6           0      -34.584335   -1.930459    0.084564
    106          6           0      -34.898660   -0.471503   -0.311551
    107          6           0      -33.485203    0.056266   -0.694238
    108          6           0      -35.113744   -2.835561   -1.050735
    109          6           0      -35.494822    0.386992    0.924436
    110          6           0      -36.986276    0.305553    1.212841
    111          7           0      -30.720311    1.261560   -1.213644
    112          6           0      -31.895257    1.924337   -1.535280
    113          6           0      -31.651421    3.210425   -1.979003
    114          6           0      -30.256109    3.343909   -1.876539
    115          6           0      -29.744478    2.132707   -1.381059
    116          6           0      -32.695810    4.176445   -2.442198
    117          6           0      -29.202916    4.165929   -2.165490
    118          8           0      -29.176114    5.226040   -2.758990
    119          6           0      -28.015465    3.512783   -1.427398
    120          6           0      -27.750585    4.409456   -0.254965
    121          8           0      -28.559345    4.674843    0.579032
    122          8           0      -26.460646    4.937447   -0.333217
    123          6           0      -26.219764    5.922982    0.662609
    124          1           0      -26.743891   -2.762472    1.151431
    125          1           0      -33.149619   -3.873606    1.266964
    126          1           0      -34.106784    1.819833   -1.664736
    127          1           0      -25.467849    1.373553   -0.833975
    128          1           0      -25.350473   -0.509048    1.161516
    129          1           0      -24.194730   -1.278147   -0.437536
    130          1           0      -25.170490   -0.683172   -1.786418
    131          1           0      -25.602643   -2.232113   -0.949733
    132          1           0      -26.076164    1.385254    2.192029
    133          1           0      -26.683425    2.757948    1.330093
    134          1           0      -24.718074    3.646264    1.722069
    135          1           0      -23.970922    2.515763    0.618080
    136          1           0      -27.757399   -6.143209    1.868081
    137          1           0      -27.695905   -4.756674    3.074764
    138          1           0      -26.885904   -4.780028    1.429785
    139          1           0      -32.726789   -6.337240    1.041547
    140          1           0      -32.858835   -5.571540    2.700915
    141          1           0      -32.643211   -7.256469    2.590379
    142          1           0      -35.102703   -2.143324    1.018926
    143          1           0      -35.596794   -0.410464   -1.146487
    144          1           0      -35.494380   -2.307721   -1.924974
    145          1           0      -35.617050   -3.717176   -0.653279
    146          1           0      -34.212212   -3.298886   -1.451255
    147          1           0      -35.207455    1.389298    0.607424
    148          1           0      -34.979827    0.138680    1.852648
    149          1           0      -37.133337    0.054470    2.262937
    150          1           0      -37.430186   -0.471986    0.590547
    151          1           0      -37.474018    1.268460    1.058923
    152          1           0      -32.498010    5.106686   -1.910420
    153          1           0      -33.703931    3.876854   -2.153120
    154          1           0      -32.643420    4.377147   -3.512419
    155          1           0      -27.161152    3.508267   -2.103448
    156          1           0      -26.453284    6.909859    0.263991
    157          1           0      -25.163775    6.045302    0.906483
    158          1           0      -26.811460    5.758999    1.561606
 ---------------------------------------------------------------------

 SCF Done:  E(RwB97XD) =  -4070.58216953     A.U. after   20 cycles

 Excitation energies and oscillator strengths:

 Excited State   1:      Singlet-A      1.6459 eV  753.29 nm  f=0.0386  <S**2>=0.000
     309 -> 316       -0.15714
     310 -> 315       -0.10967
     311 -> 313        0.39035
     312 -> 314        0.55841
 This state for optimization and/or second-order correction.
 Total Energy, E(TD-HF/TD-DFT) =  -4070.52168402
 Copying the excited state density for this state as the 1-particle RhoCI density.

 Excited State   2:      Singlet-A      1.6462 eV  753.13 nm  f=0.7413  <S**2>=0.000
     309 -> 316        0.11008
     310 -> 315       -0.15670
     311 -> 313        0.55746
     312 -> 314       -0.39098

 Excited State   3:      Singlet-A      2.0912 eV  592.87 nm  f=0.1261  <S**2>=0.000
     310 -> 313        0.64852
     311 -> 315        0.26309

 Excited State   4:      Singlet-A      2.2139 eV  560.04 nm  f=0.0444  <S**2>=0.000
     309 -> 314        0.60812
     312 -> 316        0.34954

 Excited State   5:      Singlet-A      3.1710 eV  391.00 nm  f=0.0097  <S**2>=0.000
     307 -> 313       -0.26199
     308 -> 313        0.60963
     308 -> 318       -0.13685

 The electronic state is 1-A.
 Alpha  occ. eigenvalues --  -46.96672 -46.95616 -19.30882 -19.30652 -19.25864
 Alpha  occ. eigenvalues --  -19.25218 -19.24604 -19.24596 -19.23187 -19.22943
 Alpha  occ. eigenvalues --  -14.47801 -14.47294 -14.46916 -14.46804 -14.44427
 Alpha  occ. eigenvalues --  -14.44132 -14.44084 -14.43835 -10.43580 -10.43386
 Alpha  occ. eigenvalues --  -10.39753 -10.39440 -10.39040 -10.37374 -10.36492
 Alpha  occ. eigenvalues --  -10.36386 -10.36085 -10.35833 -10.35709 -10.35591
 Alpha  occ. eigenvalues --  -10.35012 -10.34910 -10.34764 -10.34748 -10.34446
 Alpha  occ. eigenvalues --  -10.34306 -10.34160 -10.33998 -10.33984 -10.33581
 Alpha  occ. eigenvalues --  -10.33467 -10.33343 -10.33103 -10.33071 -10.32799
 Alpha  occ. eigenvalues --  -10.32494 -10.32468 -10.32410 -10.32393 -10.32388
 Alpha  occ. eigenvalues --  -10.32190 -10.32129 -10.32112 -10.32055 -10.32027
 Alpha  occ. eigenvalues --  -10.31965 -10.31920 -10.31885 -10.31823 -10.31730
 Alpha  occ. eigenvalues --  -10.31670 -10.31669 -10.31551 -10.31549 -10.31517
 Alpha  occ. eigenvalues --  -10.31510 -10.31444 -10.31422 -10.31416 -10.31324
 Alpha  occ. eigenvalues --  -10.30493 -10.30483 -10.30454 -10.30449 -10.30367
 Alpha  occ. eigenvalues --  -10.30360 -10.30250 -10.29982 -10.29813 -10.29772
 Alpha  occ. eigenvalues --  -10.29737 -10.29482 -10.29438 -10.29323 -10.28756
 Alpha  occ. eigenvalues --  -10.28214  -3.22443  -3.21473  -1.96023  -1.95552
 Alpha  occ. eigenvalues --   -1.95401  -1.95062  -1.94585  -1.94442  -1.19820
 Alpha  occ. eigenvalues --   -1.18141  -1.12438  -1.12283  -1.11883  -1.11763
 Alpha  occ. eigenvalues --   -1.09668  -1.09548  -1.07799  -1.07147  -1.06734
 Alpha  occ. eigenvalues --   -1.05999  -1.05797  -1.04971  -1.03926  -1.03749
 Alpha  occ. eigenvalues --   -0.96394  -0.94349  -0.91052  -0.90887  -0.90683
 Alpha  occ. eigenvalues --   -0.90654  -0.90579  -0.89918  -0.89545  -0.89219
 Alpha  occ. eigenvalues --   -0.89049  -0.88863  -0.88247  -0.87887  -0.86597
 Alpha  occ. eigenvalues --   -0.86322  -0.85552  -0.85295  -0.84856  -0.84310
 Alpha  occ. eigenvalues --   -0.83838  -0.83489  -0.83197  -0.82672  -0.82322
 Alpha  occ. eigenvalues --   -0.81947  -0.80066  -0.80040  -0.79329  -0.79300
 Alpha  occ. eigenvalues --   -0.79150  -0.78917  -0.77927  -0.77744  -0.77669
 Alpha  occ. eigenvalues --   -0.76933  -0.75629  -0.74461  -0.74262  -0.74187
 Alpha  occ. eigenvalues --   -0.71808  -0.71498  -0.71237  -0.70437  -0.70413
 Alpha  occ. eigenvalues --   -0.70339  -0.69465  -0.69186  -0.68275  -0.67345
 Alpha  occ. eigenvalues --   -0.67274  -0.66965  -0.66733  -0.66691  -0.66386
 Alpha  occ. eigenvalues --   -0.66259  -0.64828  -0.64525  -0.62526  -0.62342
 Alpha  occ. eigenvalues --   -0.62181  -0.61607  -0.61401  -0.61212  -0.61053
 Alpha  occ. eigenvalues --   -0.60926  -0.60787  -0.60108  -0.59951  -0.59502
 Alpha  occ. eigenvalues --   -0.58516  -0.57924  -0.57714  -0.57493  -0.57304
 Alpha  occ. eigenvalues --   -0.57098  -0.56961  -0.56923  -0.56385  -0.55831
 Alpha  occ. eigenvalues --   -0.55531  -0.55476  -0.55169  -0.55143  -0.55138
 Alpha  occ. eigenvalues --   -0.54756  -0.54547  -0.54324  -0.54239  -0.54216
 Alpha  occ. eigenvalues --   -0.54103  -0.53926  -0.53805  -0.53470  -0.53377
 Alpha  occ. eigenvalues --   -0.53172  -0.53004  -0.52856  -0.52811  -0.52568
 Alpha  occ. eigenvalues --   -0.52088  -0.51843  -0.51802  -0.51685  -0.51589
 Alpha  occ. eigenvalues --   -0.51357  -0.51243  -0.50954  -0.50910  -0.50761
 Alpha  occ. eigenvalues --   -0.50509  -0.50484  -0.50438  -0.50415  -0.50101
 Alpha  occ. eigenvalues --   -0.49892  -0.49635  -0.49328  -0.49299  -0.49193
 Alpha  occ. eigenvalues --   -0.49177  -0.48985  -0.48820  -0.48721  -0.48564
 Alpha  occ. eigenvalues --   -0.48365  -0.48278  -0.48143  -0.47992  -0.47790
 Alpha  occ. eigenvalues --   -0.47743  -0.47529  -0.47257  -0.47133  -0.47025
 Alpha  occ. eigenvalues --   -0.46719  -0.46686  -0.46534  -0.46506  -0.45871
 Alpha  occ. eigenvalues --   -0.45839  -0.45737  -0.45436  -0.45307  -0.45192
 Alpha  occ. eigenvalues --   -0.45186  -0.44959  -0.44917  -0.44893  -0.44747
 Alpha  occ. eigenvalues --   -0.44575  -0.44460  -0.44319  -0.44177  -0.44083
 Alpha  occ. eigenvalues --   -0.44028  -0.43889  -0.43626  -0.43471  -0.43460
 Alpha  occ. eigenvalues --   -0.43313  -0.43195  -0.42937  -0.42708  -0.42422
 Alpha  occ. eigenvalues --   -0.42414  -0.42223  -0.41704  -0.41419  -0.41380
 Alpha  occ. eigenvalues --   -0.40461  -0.39864  -0.39844  -0.39600  -0.39541
 Alpha  occ. eigenvalues --   -0.39154  -0.39116  -0.38920  -0.38731  -0.38653
 Alpha  occ. eigenvalues --   -0.38370  -0.38288  -0.37512  -0.37081  -0.36642
 Alpha  occ. eigenvalues --   -0.36218  -0.35733  -0.35692  -0.33676  -0.33440
 Alpha  occ. eigenvalues --   -0.33142  -0.32984  -0.32541  -0.32482  -0.32178
 Alpha  occ. eigenvalues --   -0.32105  -0.32000  -0.31657  -0.26367  -0.26257
 Alpha  occ. eigenvalues --   -0.23858  -0.22779
 Alpha virt. eigenvalues --   -0.07975  -0.06849  -0.00603  -0.00481   0.01788
 Alpha virt. eigenvalues --    0.01985   0.04209   0.04543   0.04676   0.05039
 Alpha virt. eigenvalues --    0.06731   0.06921   0.07419   0.07429   0.07788

 Mulliken charges:
               1
     1  Mg   0.932422
     2  C   -0.005103
     3  C   -0.105839
     4  C   -0.037119
     5  C   -0.077737
     6  N   -0.442351
     7  C   -0.001180
     8  C   -0.039761
     9  C   -0.135939
    10  C    0.130552
    11  C    0.033347
    12  C    0.070043
    13  C   -0.138411
    14  H    0.000489
    15  N   -0.460745
    16  C    0.168973
    17  C   -0.150586
    18  C   -0.078126
    19  C    0.134178
    20  C    0.056867
    21  C    0.061799
    22  O   -0.237547
    23  C   -0.054636
    24  N   -0.260605
    25  C    0.017945
    26  C   -0.075301
    27  C   -0.047604
    28  C    0.027393
    29  C   -0.001701
    30  C   -0.063179
    31  C   -0.056296
    32  N   -0.406569
    33  C    0.141140
    34  C   -0.240992
    35  C   -0.006298
    36  C    0.120273
    37  C    0.082682
    38  C    0.139214
    39  O   -0.194701
    40  C   -0.109548
    41  C    0.275724
    42  O   -0.259070
    43  O   -0.369989
    44  C    0.139929
    45  H    0.001512
    46  H    0.024233
    47  H    0.003058
    48  H    0.030668
    49  H    0.027179
    50  H    0.043615
    51  H    0.045667
    52  H    0.050288
    53  H    0.039583
    54  H    0.041739
    55  H    0.043895
    56  H    0.061550
    57  H    0.055332
    58  H    0.062152
    59  H    0.016755
    60  H    0.079273
    61  H    0.051755
    62  H    0.041948
    63  H    0.050158
    64  H    0.039077
    65  H    0.042694
    66  H    0.048642
    67  H    0.040735
    68  H    0.041659
    69  H    0.020571
    70  H    0.044561
    71  H    0.039781
    72  H    0.038682
    73  H    0.047131
    74  H    0.040294
    75  H    0.066254
    76  H    0.068451
    77  H    0.059484
    78  H    0.056222
    79  H    0.059365
    80  Mg   0.948428
    81  C    0.000518
    82  C   -0.064771
    83  C   -0.087303
    84  C   -0.085817
    85  N   -0.297901
    86  C   -0.038003
    87  C   -0.036500
    88  C   -0.151950
    89  C    0.082340
    90  C    0.029917
    91  C   -0.001095
    92  C   -0.097676
    93  H    0.043753
    94  N   -0.425916
    95  C    0.122579
    96  C   -0.157795
    97  C   -0.085106
    98  C    0.168882
    99  C    0.086306
   100  C    0.032030
   101  O   -0.271668
   102  C   -0.011438
   103  N   -0.428306
   104  C    0.087223
   105  C   -0.092044
   106  C   -0.113410
   107  C    0.082502
   108  C    0.055266
   109  C   -0.033202
   110  C   -0.022709
   111  N   -0.388286
   112  C    0.120802
   113  C   -0.174786
   114  C    0.038982
   115  C    0.121182
   116  C    0.098355
   117  C    0.025935
   118  O   -0.206352
   119  C   -0.074506
   120  C    0.254100
   121  O   -0.209744
   122  O   -0.358098
   123  C    0.118622
   124  H   -0.004373
   125  H   -0.015934
   126  H    0.009993
   127  H    0.028201
   128  H    0.041454
   129  H    0.039125
   130  H    0.042954
   131  H    0.043395
   132  H    0.044060
   133  H    0.047738
   134  H    0.049646
   135  H    0.043071
   136  H    0.069607
   137  H    0.065482
   138  H    0.029176
   139  H    0.067714
   140  H    0.050353
   141  H    0.051454
   142  H    0.031777
   143  H    0.027930
   144  H    0.049157
   145  H    0.044407
   146  H    0.015813
   147  H    0.024911
   148  H    0.036994
   149  H    0.036034
   150  H    0.032858
   151  H    0.043095
   152  H    0.055730
   153  H    0.023786
   154  H    0.063713
   155  H    0.047886
   156  H    0.048940
   157  H    0.048430
   158  H    0.062085
 Sum of Mulliken charges =  -0.00000

 Dipole moment (field-independent basis, Debye):
    X=             -4.4998    Y=              1.8159    Z=             -1.6178  Tot=              5.1150
 Quadrupole moment (field-independent basis, Debye-Ang):
   XX=           -600.7539   YY=           -577.9534   ZZ=           -490.1639
   XY=            129.6782   XZ=              3.1513   YZ=              5.9702

 Normal termination of Gaussian 16 at Sat Sep 18 08:56:44 2021.
