 Gaussian 16, Revision A.03,
 Gaussian 16:  ES64L-G16RevA.03 25-Dec-2016

 --------------------------------
 #p wB97XD/Def2SVP td=(nstates=5)
 --------------------------------

 --------------------------------
 TDDFT excited states in gaussian
 --------------------------------
 Symbolic Z-matrix:
 Charge =  0 Multiplicity = 1

                         Standard orientation:
 ---------------------------------------------------------------------
 Center     Atomic      Atomic             Coordinates (Angstroms)
 Number     Number       Type             X           Y           Z
 ---------------------------------------------------------------------
      1         12           0       -5.022473   -0.365424    0.905983
      2          6           0       -4.740503    3.107548    0.177265
      3          6           0       -2.426353   -0.021562    3.134101
      4          6           0       -5.389113   -3.611107    1.405982
      5          6           0       -7.365977   -0.680292   -1.801077
      6          7           0       -3.634354    1.383762    1.560451
      7          6           0       -3.833315    2.694586    1.167427
      8          6           0       -2.798694    3.551846    1.974106
      9          6           0       -1.996002    2.515054    2.926858
     10          6           0       -2.710931    1.226369    2.507984
     11          6           0       -0.458549    2.524554    2.797897
     12          6           0       -3.348161    4.847161    2.702829
     13          6           0       -2.706478    6.142538    2.298490
     14          1           0       -1.293918    6.251211    1.787937
     15          7           0       -4.082901   -1.672515    2.255503
     16          6           0       -3.044456   -1.327888    3.062138
     17          6           0       -2.815744   -2.464663    3.916529
     18          6           0       -3.571163   -3.529586    3.379961
     19          6           0       -4.411342   -3.001402    2.256369
     20          6           0       -1.760271   -2.388545    5.032614
     21          6           0       -3.476382   -4.979892    3.745756
     22          8           0       -4.114222   -5.858038    3.117848
     23          6           0       -2.563433   -5.396332    4.838708
     24          7           0       -6.204218   -1.917971   -0.157612
     25          6           0       -6.222532   -3.119704    0.304057
     26          6           0       -7.241591   -4.163177   -0.402945
     27          6           0       -7.848196   -3.205405   -1.439697
     28          6           0       -7.146403   -1.901400   -1.149114
     29          6           0       -6.429880   -5.372378   -0.996324
     30          6           0       -9.408911   -3.043269   -1.427032
     31          6           0      -10.012194   -2.245366   -0.246725
     32          7           0       -5.756310    0.869751   -0.548948
     33          6           0       -6.676726    0.570110   -1.580775
     34          6           0       -6.999816    1.825465   -2.272456
     35          6           0       -6.270637    2.842220   -1.610363
     36          6           0       -5.556145    2.215833   -0.533862
     37          6           0       -7.991162    1.971019   -3.465625
     38          6           0       -6.056120    4.191377   -1.627488
     39          8           0       -6.440781    5.070387   -2.371509
     40          6           0       -5.098481    4.491739   -0.440732
     41          6           0       -3.960153    5.224024   -0.945798
     42          8           0       -2.932105    4.706883   -1.397302
     43          8           0       -4.287614    6.579734   -1.066906
     44          6           0       -3.257795    7.397775   -1.754196
     45          1           0       -1.475394   -0.103193    3.665355
     46          1           0       -5.377675   -4.701100    1.472340
     47          1           0       -8.075352   -0.719403   -2.630302
     48          1           0       -2.243404    3.953840    1.127653
     49          1           0       -2.158269    2.797542    3.966087
     50          1           0        0.008280    2.702736    3.767464
     51          1           0       -0.030456    3.219053    2.075248
     52          1           0       -0.221381    1.518281    2.452539
     53          1           0       -3.261676    4.732070    3.783458
     54          1           0       -4.393791    4.920875    2.403852
     55          1           0       -2.522481    6.692979    3.221814
     56          1           0       -3.382530    6.647240    1.609230
     57          1           0       -1.488233   -1.360104    5.271219
     58          1           0       -0.868879   -2.937786    4.732268
     59          1           0       -2.238821   -2.862050    5.889266
     60          1           0       -2.873570   -4.854534    5.732244
     61          1           0       -1.533603   -5.103800    4.630265
     62          1           0       -2.561876   -6.480281    4.946100
     63          1           0       -8.002016   -4.511172    0.296601
     64          1           0       -7.460497   -3.448278   -2.429307
     65          1           0       -5.438277   -5.006830   -1.263011
     66          1           0       -6.920250   -5.689486   -1.917370
     67          1           0       -6.299575   -6.257024   -0.372475
     68          1           0       -9.881573   -4.010670   -1.593852
     69          1           0       -9.689329   -2.535330   -2.349250
     70          1           0       -9.491653   -2.311803    0.708056
     71          1           0      -11.066790   -2.510622   -0.163970
     72          1           0      -10.013852   -1.208632   -0.582939
     73          1           0       -8.718711    2.770184   -3.323454
     74          1           0       -8.512707    1.045825   -3.708188
     75          1           0       -7.467702    2.428897   -4.305311
     76          1           0       -5.723527    5.126631    0.186364
     77          1           0       -3.206033    7.139285   -2.811529
     78          1           0       -2.244529    7.255054   -1.380422
     79          1           0       -3.462559    8.434439   -1.486249
     80         12           0        4.274216   -0.794015   -1.246136
     81          6           0        7.361281    0.660770   -0.155971
     82          6           0        2.854822    2.395866   -0.742603
     83          6           0        1.279795   -2.084360   -1.515614
     84          6           0        5.785257   -3.839484   -1.312045
     85          7           0        5.065179    1.275816   -0.580103
     86          6           0        6.361747    1.565779   -0.315283
     87          6           0        6.498306    3.070332   -0.149428
     88          6           0        5.093635    3.705279   -0.351676
     89          6           0        4.285653    2.417636   -0.603320
     90          6           0        4.593544    4.606087    0.913430
     91          6           0        7.528709    3.710998   -1.174925
     92          6           0        8.561731    4.676800   -0.593515
     93          1           0        8.208214    5.604006    0.637809
     94          7           0        2.313282    0.042589   -1.089424
     95          6           0        1.985281    1.305857   -0.919328
     96          6           0        0.551394    1.378840   -0.909734
     97          6           0        0.001220    0.125462   -1.279832
     98          6           0        1.184070   -0.694848   -1.270238
     99          6           0       -0.207367    2.703132   -0.841240
    100          6           0       -1.383257   -0.347098   -1.694916
    101          8           0       -1.647509   -1.515696   -1.910710
    102          6           0       -2.417569    0.727211   -1.889853
    103          7           0        3.619219   -2.723846   -1.037289
    104          6           0        2.306141   -3.022951   -1.405337
    105          6           0        2.096790   -4.522621   -1.749815
    106          6           0        3.603812   -4.975399   -1.822158
    107          6           0        4.413386   -3.763318   -1.361534
    108          6           0        1.237432   -5.214660   -0.681852
    109          6           0        4.092683   -5.339803   -3.303202
    110          6           0        4.284779   -6.776797   -3.655555
    111          7           0        6.157051   -1.456575   -0.947345
    112          6           0        6.617736   -2.755023   -0.981148
    113          6           0        8.011940   -2.872535   -0.562054
    114          6           0        8.368929   -1.519191   -0.221178
    115          6           0        7.193230   -0.742872   -0.351340
    116          6           0        8.829924   -4.103521   -0.715398
    117          6           0        9.461401   -0.634939    0.154511
    118          8           0       10.651782   -0.948249    0.337961
    119          6           0        8.834361    0.870166    0.248757
    120          6           0        9.021021    1.264369    1.636168
    121          8           0        8.599180    0.630620    2.578695
    122          8           0        9.701777    2.412501    1.732774
    123          6           0       10.079328    3.008980    3.052403
    124          1           0        2.377686    3.375673   -0.674771
    125          1           0        0.417750   -2.529329   -2.018249
    126          1           0        6.245363   -4.822562   -1.429408
    127          1           0        6.812716    3.249931    0.878685
    128          1           0        5.088418    4.434747   -1.161761
    129          1           0        5.442262    4.948525    1.505552
    130          1           0        3.929292    3.949295    1.475718
    131          1           0        4.017594    5.457910    0.552165
    132          1           0        7.078921    4.194076   -2.041270
    133          1           0        8.133122    2.918274   -1.615640
    134          1           0        8.961960    5.344151   -1.357062
    135          1           0        9.392171    4.015413   -0.346431
    136          1           0       -0.517887    3.090598   -1.811716
    137          1           0        0.325073    3.441089   -0.240459
    138          1           0       -1.102534    2.505050   -0.252149
    139          1           0       -2.062390    1.629478   -2.388624
    140          1           0       -2.894210    1.074566   -0.974262
    141          1           0       -3.132812    0.394213   -2.641991
    142          1           0        1.586124   -4.564678   -2.711484
    143          1           0        3.720899   -5.847029   -1.178089
    144          1           0        0.765054   -4.535653    0.027879
    145          1           0        1.828542   -5.893372   -0.068006
    146          1           0        0.463269   -5.805266   -1.172800
    147          1           0        5.044759   -4.895322   -3.593129
    148          1           0        3.447280   -4.918016   -4.072809
    149          1           0        3.584722   -7.069572   -4.437011
    150          1           0        4.069503   -7.288252   -2.717198
    151          1           0        5.297976   -6.948754   -4.018696
    152          1           0        9.866444   -3.864639   -0.951004
    153          1           0        8.305039   -4.729299   -1.436964
    154          1           0        8.808040   -4.612553    0.249163
    155          1           0        9.365123    1.570047   -0.395253
    156          1           0       10.557137    2.247668    3.669288
    157          1           0        9.218502    3.390490    3.602070
    158          1           0       10.674665    3.917739    2.968326
 ---------------------------------------------------------------------

 SCF Done:  E(RwB97XD) =  -4070.62386382     A.U. after   19 cycles

 Excitation energies and oscillator strengths:

 Excited State   1:      Singlet-A      1.6172 eV  766.64 nm  f=0.4266  <S**2>=0.000
     310 -> 316       -0.17653
     312 -> 314        0.68230
     310 <- 316       -0.11596
 This state for optimization and/or second-order correction.
 Total Energy, E(TD-HF/TD-DFT) =  -4070.56443107
 Copying the excited state density for this state as the 1-particle RhoCI density.

 Excited State   2:      Singlet-A      1.7372 eV  713.70 nm  f=0.3627  <S**2>=0.000
     309 -> 315       -0.18725
     311 -> 313        0.67815
     309 <- 315       -0.11238

 Excited State   3:      Singlet-A      2.1463 eV  577.67 nm  f=0.0321  <S**2>=0.000
     309 -> 313        0.26402
     310 -> 314        0.59038
     311 -> 315        0.10804
     312 -> 316        0.24639

 Excited State   4:      Singlet-A      2.1620 eV  573.47 nm  f=0.1759  <S**2>=0.000
     309 -> 313        0.58155
     310 -> 314       -0.25873
     311 -> 315        0.25623
     312 -> 316       -0.11230

 Excited State   5:      Singlet-A      2.7004 eV  459.13 nm  f=0.0000  <S**2>=0.000
     312 -> 313        0.70323

 The electronic state is 1-A.
 Alpha  occ. eigenvalues --  -46.96250 -46.94692 -19.30352 -19.30082 -19.25006
 Alpha  occ. eigenvalues --  -19.23949 -19.23913 -19.23841 -19.23322 -19.22763
 Alpha  occ. eigenvalues --  -14.47326 -14.46716 -14.46250 -14.46029 -14.44439
 Alpha  occ. eigenvalues --  -14.44419 -14.43710 -14.43337 -10.43132 -10.42175
 Alpha  occ. eigenvalues --  -10.39277 -10.39116 -10.38987 -10.37507 -10.36219
 Alpha  occ. eigenvalues --  -10.36088 -10.36073 -10.35694 -10.35415 -10.35220
 Alpha  occ. eigenvalues --  -10.35170 -10.35077 -10.34595 -10.34188 -10.34183
 Alpha  occ. eigenvalues --  -10.33964 -10.33902 -10.33684 -10.33404 -10.33239
 Alpha  occ. eigenvalues --  -10.32927 -10.32885 -10.32860 -10.32729 -10.32678
 Alpha  occ. eigenvalues --  -10.32609 -10.32413 -10.32371 -10.32326 -10.32275
 Alpha  occ. eigenvalues --  -10.32231 -10.32116 -10.32094 -10.32091 -10.31950
 Alpha  occ. eigenvalues --  -10.31906 -10.31859 -10.31784 -10.31699 -10.31653
 Alpha  occ. eigenvalues --  -10.31590 -10.31484 -10.31479 -10.31319 -10.31232
 Alpha  occ. eigenvalues --  -10.31169 -10.30878 -10.30855 -10.30785 -10.30234
 Alpha  occ. eigenvalues --  -10.30216 -10.30175 -10.30111 -10.29949 -10.29948
 Alpha  occ. eigenvalues --  -10.29946 -10.29711 -10.29696 -10.29537 -10.29334
 Alpha  occ. eigenvalues --  -10.29320 -10.29319 -10.29189 -10.28650 -10.28251
 Alpha  occ. eigenvalues --  -10.28024  -3.22058  -3.20758  -1.95653  -1.95214
 Alpha  occ. eigenvalues --   -1.94979  -1.94314  -1.93889  -1.93734  -1.18606
 Alpha  occ. eigenvalues --   -1.17136  -1.12422  -1.11696  -1.10760  -1.10451
 Alpha  occ. eigenvalues --   -1.09424  -1.09188  -1.08167  -1.06380  -1.05935
 Alpha  occ. eigenvalues --   -1.05299  -1.05237  -1.04897  -1.03871  -1.03632
 Alpha  occ. eigenvalues --   -0.94525  -0.93878  -0.91607  -0.90337  -0.90264
 Alpha  occ. eigenvalues --   -0.89986  -0.89925  -0.89768  -0.89360  -0.88794
 Alpha  occ. eigenvalues --   -0.88771  -0.88300  -0.88038  -0.87551  -0.86410
 Alpha  occ. eigenvalues --   -0.85922  -0.85808  -0.85380  -0.84686  -0.84369
 Alpha  occ. eigenvalues --   -0.84222  -0.83090  -0.82806  -0.82792  -0.82213
 Alpha  occ. eigenvalues --   -0.82001  -0.80379  -0.79637  -0.79534  -0.79381
 Alpha  occ. eigenvalues --   -0.78587  -0.78428  -0.78016  -0.78003  -0.77048
 Alpha  occ. eigenvalues --   -0.76461  -0.74643  -0.74161  -0.73672  -0.73145
 Alpha  occ. eigenvalues --   -0.72380  -0.71186  -0.70380  -0.70033  -0.69514
 Alpha  occ. eigenvalues --   -0.69265  -0.69097  -0.68570  -0.67288  -0.67239
 Alpha  occ. eigenvalues --   -0.67078  -0.66911  -0.66856  -0.66418  -0.66390
 Alpha  occ. eigenvalues --   -0.66230  -0.64221  -0.63811  -0.62322  -0.61889
 Alpha  occ. eigenvalues --   -0.61689  -0.60923  -0.60807  -0.60524  -0.60382
 Alpha  occ. eigenvalues --   -0.60211  -0.60189  -0.59786  -0.59690  -0.59152
 Alpha  occ. eigenvalues --   -0.58288  -0.58176  -0.57612  -0.57486  -0.57410
 Alpha  occ. eigenvalues --   -0.57120  -0.56706  -0.56083  -0.55890  -0.55401
 Alpha  occ. eigenvalues --   -0.55262  -0.55238  -0.55159  -0.55014  -0.54792
 Alpha  occ. eigenvalues --   -0.54569  -0.54354  -0.54162  -0.54011  -0.53817
 Alpha  occ. eigenvalues --   -0.53761  -0.53592  -0.53376  -0.52963  -0.52938
 Alpha  occ. eigenvalues --   -0.52869  -0.52476  -0.52262  -0.52062  -0.51852
 Alpha  occ. eigenvalues --   -0.51534  -0.51480  -0.51372  -0.51214  -0.51123
 Alpha  occ. eigenvalues --   -0.50985  -0.50929  -0.50847  -0.50784  -0.50723
 Alpha  occ. eigenvalues --   -0.50297  -0.50235  -0.50081  -0.50025  -0.49946
 Alpha  occ. eigenvalues --   -0.49845  -0.49700  -0.49521  -0.49129  -0.48831
 Alpha  occ. eigenvalues --   -0.48801  -0.48651  -0.48531  -0.48443  -0.48114
 Alpha  occ. eigenvalues --   -0.48085  -0.47897  -0.47811  -0.47744  -0.47566
 Alpha  occ. eigenvalues --   -0.47315  -0.47089  -0.46970  -0.46817  -0.46700
 Alpha  occ. eigenvalues --   -0.46356  -0.46221  -0.45968  -0.45875  -0.45771
 Alpha  occ. eigenvalues --   -0.45523  -0.45457  -0.45311  -0.45253  -0.44981
 Alpha  occ. eigenvalues --   -0.44904  -0.44554  -0.44409  -0.44348  -0.44336
 Alpha  occ. eigenvalues --   -0.44210  -0.44067  -0.43853  -0.43632  -0.43565
 Alpha  occ. eigenvalues --   -0.43402  -0.43386  -0.43339  -0.43139  -0.43121
 Alpha  occ. eigenvalues --   -0.43062  -0.42921  -0.42684  -0.42679  -0.42221
 Alpha  occ. eigenvalues --   -0.42024  -0.41977  -0.41940  -0.41379  -0.41121
 Alpha  occ. eigenvalues --   -0.41101  -0.40070  -0.39491  -0.39005  -0.38828
 Alpha  occ. eigenvalues --   -0.38776  -0.38661  -0.38503  -0.38392  -0.38006
 Alpha  occ. eigenvalues --   -0.37947  -0.37856  -0.36402  -0.36160  -0.36040
 Alpha  occ. eigenvalues --   -0.35549  -0.35466  -0.34937  -0.33655  -0.33229
 Alpha  occ. eigenvalues --   -0.33215  -0.32897  -0.32627  -0.32500  -0.32215
 Alpha  occ. eigenvalues --   -0.31858  -0.31821  -0.31279  -0.25891  -0.25487
 Alpha  occ. eigenvalues --   -0.23256  -0.22464
 Alpha virt. eigenvalues --   -0.06978  -0.06746  -0.00021   0.01072   0.02055
 Alpha virt. eigenvalues --    0.02638   0.04246   0.04525   0.05217   0.05606
 Alpha virt. eigenvalues --    0.06601   0.07484   0.07992   0.08110   0.08313

 Mulliken charges:
               1
     1  Mg   0.929421
     2  C    0.014154
     3  C   -0.087301
     4  C   -0.043275
     5  C   -0.086695
     6  N   -0.318385
     7  C   -0.034027
     8  C   -0.066436
     9  C   -0.100894
    10  C    0.074350
    11  C    0.020305
    12  C    0.014272
    13  C   -0.139522
    14  H    0.027820
    15  N   -0.488387
    16  C    0.145614
    17  C   -0.180268
    18  C   -0.071962
    19  C    0.166914
    20  C    0.073464
    21  C    0.037552
    22  O   -0.261268
    23  C    0.005776
    24  N   -0.270324
    25  C    0.020105
    26  C   -0.111745
    27  C    0.028754
    28  C   -0.036632
    29  C   -0.005880
    30  C   -0.033002
    31  C   -0.035994
    32  N   -0.473653
    33  C    0.148612
    34  C   -0.178179
    35  C    0.004896
    36  C    0.128080
    37  C    0.087933
    38  C    0.030577
    39  O   -0.201622
    40  C   -0.064867
    41  C    0.269426
    42  O   -0.268056
    43  O   -0.376408
    44  C    0.149627
    45  H    0.012030
    46  H    0.030016
    47  H   -0.009104
    48  H    0.048888
    49  H    0.045897
    50  H    0.037111
    51  H    0.038449
    52  H    0.044246
    53  H    0.032823
    54  H    0.035738
    55  H    0.050104
    56  H    0.061764
    57  H    0.048147
    58  H    0.067804
    59  H    0.046140
    60  H    0.051075
    61  H    0.052008
    62  H    0.058730
    63  H    0.052071
    64  H    0.038271
    65  H    0.052178
    66  H    0.036841
    67  H    0.063288
    68  H    0.031033
    69  H    0.024883
    70  H    0.049666
    71  H    0.041170
    72  H    0.038292
    73  H    0.043513
    74  H    0.032280
    75  H    0.049666
    76  H    0.074855
    77  H    0.064716
    78  H    0.040268
    79  H    0.055941
    80  Mg   0.963736
    81  C   -0.048719
    82  C   -0.092868
    83  C   -0.061350
    84  C   -0.106912
    85  N   -0.316913
    86  C    0.009827
    87  C   -0.040221
    88  C   -0.104466
    89  C    0.049630
    90  C   -0.005177
    91  C   -0.008283
    92  C   -0.109294
    93  H    0.015726
    94  N   -0.388482
    95  C    0.167126
    96  C   -0.200477
    97  C   -0.052953
    98  C    0.114454
    99  C    0.066865
   100  C    0.080473
   101  O   -0.224669
   102  C   -0.045574
   103  N   -0.404321
   104  C    0.018893
   105  C   -0.074591
   106  C   -0.053570
   107  C    0.101747
   108  C    0.033675
   109  C   -0.055988
   110  C   -0.031181
   111  N   -0.481190
   112  C    0.160514
   113  C   -0.189487
   114  C   -0.019575
   115  C    0.157646
   116  C    0.090177
   117  C    0.118982
   118  O   -0.228351
   119  C   -0.062005
   120  C    0.257824
   121  O   -0.246931
   122  O   -0.357379
   123  C    0.146871
   124  H   -0.006710
   125  H    0.024844
   126  H   -0.000497
   127  H    0.042667
   128  H    0.047368
   129  H    0.047074
   130  H    0.042561
   131  H    0.038351
   132  H    0.030309
   133  H    0.028544
   134  H    0.044163
   135  H    0.052230
   136  H    0.083151
   137  H    0.032852
   138  H    0.024660
   139  H    0.047716
   140  H    0.103825
   141  H    0.054935
   142  H    0.043874
   143  H    0.034239
   144  H    0.051204
   145  H    0.024499
   146  H    0.042725
   147  H    0.029476
   148  H    0.020430
   149  H    0.036129
   150  H    0.024669
   151  H    0.038624
   152  H    0.065631
   153  H    0.036669
   154  H    0.053679
   155  H    0.057387
   156  H    0.069917
   157  H    0.045878
   158  H    0.060021
 Sum of Mulliken charges =  -0.00000

 Dipole moment (field-independent basis, Debye):
    X=             -2.8568    Y=              1.0042    Z=              1.4374  Tot=              3.3520
 Quadrupole moment (field-independent basis, Debye-Ang):
   XX=           -546.5767   YY=           -487.5649   ZZ=           -484.3067
   XY=             43.4057   XZ=            -17.6822   YZ=             28.5440

 Normal termination of Gaussian 16 at Sun Sep 19 04:48:09 2021.
