 Gaussian 16, Revision A.03,
 Gaussian 16:  ES64L-G16RevA.03 25-Dec-2016

 --------------------------------
 #p wB97XD/Def2SVP td=(nstates=5)
 --------------------------------

 --------------------------------
 TDDFT excited states in gaussian
 --------------------------------
 Symbolic Z-matrix:
 Charge =  0 Multiplicity = 1

                         Standard orientation:
 ---------------------------------------------------------------------
 Center     Atomic      Atomic             Coordinates (Angstroms)
 Number     Number       Type             X           Y           Z
 ---------------------------------------------------------------------
      1         12           0        4.838136   -0.701450   -0.457036
      2          6           0        2.935421    2.064542   -1.055880
      3          6           0        7.474719    1.432899    0.546411
      4          6           0        6.816588   -3.376305   -0.077412
      5          6           0        2.186305   -2.675328   -1.389974
      6          7           0        5.288869    1.472031   -0.568389
      7          6           0        4.275086    2.422151   -0.746082
      8          6           0        4.800726    3.874247   -0.564216
      9          6           0        6.254079    3.552200   -0.125756
     10          6           0        6.394444    2.040915   -0.100385
     11          6           0        7.505918    4.208381   -0.849871
     12          6           0        4.030997    4.788887    0.487212
     13          6           0        4.668999    6.198915    0.606621
     14          1           0        3.816836    7.302581   -0.021539
     15          7           0        6.900041   -0.934963    0.213188
     16          6           0        7.679797    0.047578    0.784436
     17          6           0        8.952427   -0.591274    1.098574
     18          6           0        8.748577   -1.995308    0.903950
     19          6           0        7.444912   -2.178581    0.347956
     20          6           0       10.097045    0.199814    1.603198
     21          6           0        9.876634   -3.062834    1.124088
     22          8           0        9.783079   -4.252599    0.759895
     23          6           0       11.189746   -2.653404    1.738575
     24          7           0        4.571226   -2.621699   -0.711980
     25          6           0        5.567107   -3.616389   -0.500803
     26          6           0        5.128801   -4.949024   -1.064595
     27          6           0        3.612677   -4.774904   -0.999490
     28          6           0        3.402872   -3.267456   -0.982158
     29          6           0        5.652065   -5.200033   -2.518706
     30          6           0        2.998743   -5.355694    0.293976
     31          6           0        2.644759   -6.818284    0.325805
     32          7           0        2.910564   -0.468796   -1.150477
     33          6           0        1.895566   -1.326253   -1.344489
     34          6           0        0.732647   -0.599649   -1.761033
     35          6           0        1.064701    0.733876   -1.650249
     36          6           0        2.402922    0.771219   -1.228685
     37          6           0       -0.550281   -1.270967   -2.107973
     38          6           0        0.553195    2.028967   -1.800746
     39          8           0       -0.552457    2.431871   -2.106656
     40          6           0        1.777234    2.982844   -1.409098
     41          6           0        2.038876    3.886201   -2.561798
     42          8           0        2.464678    3.577941   -3.648283
     43          8           0        1.882996    5.167900   -2.217082
     44          6           0        2.172893    6.192847   -3.292583
     45          1           0        8.178539    2.142384    0.986222
     46          1           0        7.447687   -4.258399    0.048104
     47          1           0        1.265179   -3.230874   -1.576096
     48          1           0        4.806116    4.363096   -1.538485
     49          1           0        6.387048    3.831329    0.919904
     50          1           0        8.352848    4.464783   -0.212865
     51          1           0        7.170821    4.997972   -1.522682
     52          1           0        7.907572    3.401155   -1.462229
     53          1           0        4.048654    4.191894    1.398191
     54          1           0        2.993004    4.875783    0.166350
     55          1           0        5.697499    6.173196    0.246578
     56          1           0        4.706099    6.430451    1.670694
     57          1           0       10.866174    0.204833    0.830617
     58          1           0       10.342022   -0.222894    2.577585
     59          1           0        9.793292    1.223502    1.822530
     60          1           0       11.825772   -3.528653    1.870938
     61          1           0       10.918799   -2.347907    2.750131
     62          1           0       11.740380   -1.853462    1.244299
     63          1           0        5.483006   -5.774290   -0.446256
     64          1           0        3.090960   -5.196539   -1.858394
     65          1           0        5.105971   -4.595843   -3.242119
     66          1           0        5.576821   -6.258238   -2.770392
     67          1           0        6.705671   -4.923840   -2.495964
     68          1           0        2.121749   -4.804903    0.631616
     69          1           0        3.667765   -5.160152    1.132110
     70          1           0        3.226446   -7.260623    1.134051
     71          1           0        3.099742   -7.199271   -0.588624
     72          1           0        1.575203   -7.025756    0.362830
     73          1           0       -1.225372   -1.262631   -1.253122
     74          1           0       -0.510931   -2.247262   -2.592066
     75          1           0       -1.015648   -0.621332   -2.849465
     76          1           0        1.487511    3.568176   -0.536128
     77          1           0        3.155159    5.954645   -3.701238
     78          1           0        2.235192    7.211904   -2.909925
     79          1           0        1.396321    6.104286   -4.052634
     80         12           0       -4.922917   -0.696927    0.278526
     81          6           0       -3.196164    2.342668    1.073609
     82          6           0       -7.597614    1.229467   -0.734657
     83          6           0       -6.670798   -3.454934    0.162267
     84          6           0       -2.185104   -2.394041    1.557048
     85          7           0       -5.459349    1.598757    0.443957
     86          6           0       -4.524009    2.567555    0.688267
     87          6           0       -5.080949    3.947635    0.247137
     88          6           0       -6.535502    3.608052   -0.286031
     89          6           0       -6.598874    2.040167   -0.187609
     90          6           0       -7.772037    4.254416    0.469210
     91          6           0       -4.239145    4.686867   -0.826973
     92          6           0       -3.984622    6.139005   -0.630584
     93          1           0       -4.842690    7.051349    0.326775
     94          7           0       -6.923198   -1.106956   -0.217714
     95          6           0       -7.855918   -0.214539   -0.745562
     96          6           0       -9.124261   -0.932655   -0.975151
     97          6           0       -8.807002   -2.336363   -0.817139
     98          6           0       -7.431917   -2.354380   -0.266419
     99          6           0      -10.429135   -0.313100   -1.374740
    100          6           0       -9.650480   -3.604783   -1.086390
    101          8           0       -9.188930   -4.759124   -1.207886
    102          6           0      -11.082741   -3.417230   -1.388922
    103          7           0       -4.497247   -2.566826    0.834803
    104          6           0       -5.463557   -3.543484    0.734121
    105          6           0       -4.861353   -4.955499    0.974948
    106          6           0       -3.309711   -4.606248    1.060529
    107          6           0       -3.309189   -3.089581    1.142078
    108          6           0       -5.390506   -5.794155    2.209015
    109          6           0       -2.427641   -5.091726   -0.078816
    110          6           0       -1.370825   -6.150487    0.299644
    111          7           0       -2.989245   -0.188453    0.964980
    112          6           0       -2.000158   -0.992811    1.479619
    113          6           0       -0.878999   -0.169878    1.951908
    114          6           0       -1.307729    1.129432    1.746100
    115          6           0       -2.587630    1.075563    1.150408
    116          6           0        0.401816   -0.598086    2.588665
    117          6           0       -0.872861    2.472256    1.888991
    118          8           0        0.235141    2.972753    2.234474
    119          6           0       -2.025293    3.290288    1.484648
    120          6           0       -2.357712    4.286893    2.561996
    121          8           0       -2.834203    4.026391    3.613533
    122          8           0       -2.101374    5.522235    2.132241
    123          6           0       -2.044398    6.591526    3.070257
    124          1           0       -8.493187    1.761068   -1.063482
    125          1           0       -7.112677   -4.453974    0.132635
    126          1           0       -1.362603   -2.934333    2.028642
    127          1           0       -5.115679    4.556013    1.151650
    128          1           0       -6.617957    3.881364   -1.337554
    129          1           0       -7.521612    5.011748    1.211540
    130          1           0       -8.243839    3.452422    1.038800
    131          1           0       -8.496432    4.641522   -0.248023
    132          1           0       -4.689053    4.646121   -1.819640
    133          1           0       -3.235551    4.275782   -0.932236
    134          1           0       -4.121169    6.666603   -1.575049
    135          1           0       -2.944879    6.244615   -0.322175
    136          1           0      -11.202497   -0.611414   -0.667247
    137          1           0      -10.673470   -0.722955   -2.354755
    138          1           0      -10.323321    0.754400   -1.570746
    139          1           0      -11.549027   -2.979645   -0.506146
    140          1           0      -11.487340   -4.423233   -1.497425
    141          1           0      -11.238076   -2.912167   -2.341888
    142          1           0       -5.038421   -5.505556    0.050175
    143          1           0       -2.938961   -5.055129    1.981970
    144          1           0       -6.156862   -5.232930    2.742442
    145          1           0       -4.590235   -6.158966    2.854035
    146          1           0       -5.817664   -6.714372    1.810149
    147          1           0       -1.969537   -4.324673   -0.703374
    148          1           0       -3.083405   -5.602929   -0.782831
    149          1           0       -0.370259   -6.019389   -0.111917
    150          1           0       -1.651029   -7.066895   -0.220457
    151          1           0       -1.225475   -6.307284    1.367617
    152          1           0        0.622814   -1.652221    2.418716
    153          1           0        0.306779   -0.568708    3.674020
    154          1           0        1.152394    0.134822    2.292989
    155          1           0       -1.714522    3.813374    0.580649
    156          1           0       -1.104681    6.470558    3.610989
    157          1           0       -2.815485    6.482823    3.833100
    158          1           0       -2.011053    7.557379    2.565458
 ---------------------------------------------------------------------

 SCF Done:  E(RwB97XD) =  -4070.64958483     A.U. after   19 cycles

 Excitation energies and oscillator strengths:

 Excited State   1:      Singlet-A      1.5647 eV  792.37 nm  f=0.7866  <S**2>=0.000
     309 -> 315        0.13445
     311 -> 314       -0.28673
     312 -> 313        0.59542
     312 -> 314        0.19544
 This state for optimization and/or second-order correction.
 Total Energy, E(TD-HF/TD-DFT) =  -4070.59208202
 Copying the excited state density for this state as the 1-particle RhoCI density.

 Excited State   2:      Singlet-A      1.6706 eV  742.16 nm  f=0.1405  <S**2>=0.000
     310 -> 316        0.15817
     311 -> 313       -0.30017
     311 -> 314        0.54294
     312 -> 313        0.20581
     312 -> 314        0.20240

 Excited State   3:      Singlet-A      2.1408 eV  579.16 nm  f=0.0489  <S**2>=0.000
     309 -> 313       -0.15705
     309 -> 314       -0.11769
     310 -> 313       -0.27800
     310 -> 314        0.55613
     311 -> 316       -0.23370

 Excited State   4:      Singlet-A      2.1904 eV  566.03 nm  f=0.1450  <S**2>=0.000
     309 -> 313        0.56583
     309 -> 314        0.22299
     310 -> 314        0.19075
     312 -> 315       -0.24767
     312 -> 316       -0.10850

 Excited State   5:      Singlet-A      2.5943 eV  477.91 nm  f=0.0005  <S**2>=0.000
     311 -> 314       -0.10930
     312 -> 313       -0.26526
     312 -> 314        0.63598

 The electronic state is 1-A.
 Alpha  occ. eigenvalues --  -46.95093 -46.93746 -19.30078 -19.30073 -19.24722
 Alpha  occ. eigenvalues --  -19.24449 -19.24271 -19.23618 -19.23495 -19.23434
 Alpha  occ. eigenvalues --  -14.47204 -14.46471 -14.46280 -14.46118 -14.44228
 Alpha  occ. eigenvalues --  -14.43980 -14.43394 -14.43353 -10.42722 -10.42266
 Alpha  occ. eigenvalues --  -10.39112 -10.39112 -10.38821 -10.38783 -10.36061
 Alpha  occ. eigenvalues --  -10.35947 -10.35514 -10.35345 -10.35176 -10.35000
 Alpha  occ. eigenvalues --  -10.34754 -10.34582 -10.34391 -10.34009 -10.33979
 Alpha  occ. eigenvalues --  -10.33594 -10.33476 -10.33382 -10.33187 -10.33171
 Alpha  occ. eigenvalues --  -10.33061 -10.32951 -10.32904 -10.32892 -10.32712
 Alpha  occ. eigenvalues --  -10.32502 -10.32348 -10.32346 -10.32212 -10.31991
 Alpha  occ. eigenvalues --  -10.31948 -10.31862 -10.31837 -10.31803 -10.31764
 Alpha  occ. eigenvalues --  -10.31577 -10.31552 -10.31460 -10.31417 -10.31415
 Alpha  occ. eigenvalues --  -10.31315 -10.31218 -10.30982 -10.30755 -10.30745
 Alpha  occ. eigenvalues --  -10.30703 -10.30657 -10.30587 -10.30440 -10.30385
 Alpha  occ. eigenvalues --  -10.30314 -10.30230 -10.30035 -10.29959 -10.29747
 Alpha  occ. eigenvalues --  -10.29669 -10.29657 -10.29624 -10.29606 -10.29513
 Alpha  occ. eigenvalues --  -10.29441 -10.29312 -10.29200 -10.29098 -10.29059
 Alpha  occ. eigenvalues --  -10.29016  -3.21119  -3.19934  -1.94689  -1.94254
 Alpha  occ. eigenvalues --   -1.94089  -1.93533  -1.93077  -1.92909  -1.20667
 Alpha  occ. eigenvalues --   -1.19025  -1.12918  -1.11774  -1.10429  -1.10403
 Alpha  occ. eigenvalues --   -1.10372  -1.09279  -1.07418  -1.06803  -1.05774
 Alpha  occ. eigenvalues --   -1.05719  -1.05037  -1.04327  -1.03898  -1.03620
 Alpha  occ. eigenvalues --   -0.95439  -0.95204  -0.91035  -0.90986  -0.90589
 Alpha  occ. eigenvalues --   -0.90272  -0.90240  -0.89933  -0.89780  -0.89594
 Alpha  occ. eigenvalues --   -0.89031  -0.88664  -0.88399  -0.88060  -0.86368
 Alpha  occ. eigenvalues --   -0.86181  -0.85790  -0.85278  -0.84453  -0.84332
 Alpha  occ. eigenvalues --   -0.83799  -0.83521  -0.83336  -0.83062  -0.82494
 Alpha  occ. eigenvalues --   -0.82350  -0.80265  -0.80164  -0.79589  -0.79457
 Alpha  occ. eigenvalues --   -0.78976  -0.78951  -0.78171  -0.78046  -0.77048
 Alpha  occ. eigenvalues --   -0.76968  -0.75142  -0.75081  -0.73681  -0.73333
 Alpha  occ. eigenvalues --   -0.71477  -0.71325  -0.70917  -0.70644  -0.70279
 Alpha  occ. eigenvalues --   -0.69102  -0.68095  -0.67954  -0.67785  -0.67576
 Alpha  occ. eigenvalues --   -0.66870  -0.66709  -0.66549  -0.66497  -0.66271
 Alpha  occ. eigenvalues --   -0.65971  -0.64919  -0.64037  -0.62205  -0.62176
 Alpha  occ. eigenvalues --   -0.61947  -0.61757  -0.61209  -0.61045  -0.60909
 Alpha  occ. eigenvalues --   -0.60718  -0.60205  -0.60085  -0.59831  -0.59518
 Alpha  occ. eigenvalues --   -0.58423  -0.58279  -0.57956  -0.57866  -0.56986
 Alpha  occ. eigenvalues --   -0.56928  -0.56761  -0.56577  -0.56047  -0.55764
 Alpha  occ. eigenvalues --   -0.55468  -0.55278  -0.55166  -0.54961  -0.54769
 Alpha  occ. eigenvalues --   -0.54705  -0.54644  -0.54511  -0.54314  -0.54133
 Alpha  occ. eigenvalues --   -0.53854  -0.53593  -0.53482  -0.53424  -0.53365
 Alpha  occ. eigenvalues --   -0.53211  -0.52891  -0.52368  -0.52082  -0.52009
 Alpha  occ. eigenvalues --   -0.51972  -0.51891  -0.51746  -0.51705  -0.51458
 Alpha  occ. eigenvalues --   -0.51182  -0.50953  -0.50898  -0.50825  -0.50549
 Alpha  occ. eigenvalues --   -0.50480  -0.50433  -0.50181  -0.50115  -0.49982
 Alpha  occ. eigenvalues --   -0.49914  -0.49653  -0.49535  -0.49358  -0.49266
 Alpha  occ. eigenvalues --   -0.49014  -0.48858  -0.48710  -0.48664  -0.48391
 Alpha  occ. eigenvalues --   -0.48353  -0.47941  -0.47921  -0.47837  -0.47744
 Alpha  occ. eigenvalues --   -0.47720  -0.47655  -0.47310  -0.47126  -0.47103
 Alpha  occ. eigenvalues --   -0.46737  -0.46562  -0.46442  -0.46311  -0.46085
 Alpha  occ. eigenvalues --   -0.45694  -0.45605  -0.45441  -0.45356  -0.45284
 Alpha  occ. eigenvalues --   -0.45249  -0.44746  -0.44719  -0.44440  -0.44374
 Alpha  occ. eigenvalues --   -0.43921  -0.43814  -0.43700  -0.43660  -0.43634
 Alpha  occ. eigenvalues --   -0.43449  -0.43390  -0.43228  -0.43028  -0.42934
 Alpha  occ. eigenvalues --   -0.42775  -0.42723  -0.42447  -0.42176  -0.42129
 Alpha  occ. eigenvalues --   -0.41991  -0.41921  -0.41499  -0.41471  -0.40582
 Alpha  occ. eigenvalues --   -0.40365  -0.40042  -0.39734  -0.39607  -0.39303
 Alpha  occ. eigenvalues --   -0.38950  -0.38922  -0.38594  -0.38492  -0.38422
 Alpha  occ. eigenvalues --   -0.37786  -0.37640  -0.36495  -0.36159  -0.35937
 Alpha  occ. eigenvalues --   -0.35894  -0.35369  -0.35024  -0.33695  -0.33657
 Alpha  occ. eigenvalues --   -0.33474  -0.33371  -0.32937  -0.32542  -0.32497
 Alpha  occ. eigenvalues --   -0.32360  -0.31486  -0.31165  -0.26420  -0.25880
 Alpha  occ. eigenvalues --   -0.22989  -0.22819
 Alpha virt. eigenvalues --   -0.07383  -0.07145   0.00477   0.00606   0.01798
 Alpha virt. eigenvalues --    0.02525   0.04189   0.04554   0.05664   0.06401
 Alpha virt. eigenvalues --    0.07493   0.08130   0.08227   0.08500   0.08509

 Mulliken charges:
               1
     1  Mg   0.968380
     2  C    0.005853
     3  C   -0.071346
     4  C   -0.077041
     5  C   -0.102489
     6  N   -0.341587
     7  C   -0.007568
     8  C   -0.026208
     9  C   -0.153635
    10  C    0.066138
    11  C    0.013417
    12  C   -0.003560
    13  C   -0.111138
    14  H    0.043365
    15  N   -0.435558
    16  C    0.163366
    17  C   -0.218425
    18  C   -0.078213
    19  C    0.134566
    20  C    0.083692
    21  C    0.066481
    22  O   -0.257034
    23  C   -0.006650
    24  N   -0.468735
    25  C    0.098734
    26  C   -0.069225
    27  C   -0.080274
    28  C    0.141228
    29  C    0.040845
    30  C   -0.039808
    31  C   -0.007064
    32  N   -0.428250
    33  C    0.105401
    34  C   -0.178556
    35  C    0.024820
    36  C    0.134310
    37  C    0.061727
    38  C    0.097544
    39  O   -0.202841
    40  C   -0.126983
    41  C    0.245957
    42  O   -0.247912
    43  O   -0.361423
    44  C    0.139455
    45  H   -0.003589
    46  H    0.019361
    47  H   -0.006109
    48  H    0.042431
    49  H    0.035963
    50  H    0.041830
    51  H    0.043057
    52  H    0.036594
    53  H    0.044052
    54  H    0.060641
    55  H    0.048455
    56  H    0.054012
    57  H    0.065526
    58  H    0.049397
    59  H    0.026214
    60  H    0.051004
    61  H    0.045885
    62  H    0.060787
    63  H    0.027760
    64  H    0.021638
    65  H    0.041871
    66  H    0.041620
    67  H    0.041940
    68  H    0.017584
    69  H    0.020249
    70  H    0.035600
    71  H    0.019452
    72  H    0.048258
    73  H    0.076870
    74  H    0.042518
    75  H    0.045670
    76  H    0.085569
    77  H    0.058543
    78  H    0.059862
    79  H    0.066949
    80  Mg   0.965406
    81  C   -0.008445
    82  C   -0.035798
    83  C   -0.070221
    84  C   -0.102788
    85  N   -0.319325
    86  C   -0.004160
    87  C   -0.027348
    88  C   -0.107636
    89  C    0.040400
    90  C    0.011037
    91  C   -0.001743
    92  C   -0.129788
    93  H    0.007135
    94  N   -0.444507
    95  C    0.110089
    96  C   -0.188333
    97  C   -0.082228
    98  C    0.151149
    99  C    0.090796
   100  C    0.056678
   101  O   -0.260415
   102  C   -0.010015
   103  N   -0.428768
   104  C    0.097216
   105  C   -0.123286
   106  C   -0.082114
   107  C    0.107212
   108  C    0.028224
   109  C    0.022804
   110  C   -0.073862
   111  N   -0.412764
   112  C    0.094651
   113  C   -0.165989
   114  C   -0.050201
   115  C    0.153585
   116  C    0.088386
   117  C    0.115534
   118  O   -0.262058
   119  C   -0.024729
   120  C    0.223109
   121  O   -0.206909
   122  O   -0.330674
   123  C    0.139964
   124  H   -0.013585
   125  H    0.019537
   126  H   -0.003982
   127  H    0.044124
   128  H    0.043157
   129  H    0.040720
   130  H    0.039118
   131  H    0.039571
   132  H    0.034300
   133  H    0.053248
   134  H    0.044794
   135  H    0.058207
   136  H    0.057984
   137  H    0.041565
   138  H    0.035835
   139  H    0.053995
   140  H    0.046658
   141  H    0.066398
   142  H    0.046074
   143  H    0.023031
   144  H    0.052066
   145  H    0.034255
   146  H    0.038175
   147  H    0.034255
   148  H    0.022308
   149  H    0.026798
   150  H    0.033454
   151  H    0.039448
   152  H    0.031892
   153  H    0.056004
   154  H    0.072927
   155  H    0.075361
   156  H    0.044824
   157  H    0.056052
   158  H    0.060943
 Sum of Mulliken charges =  -0.00000

 Dipole moment (field-independent basis, Debye):
    X=              0.5593    Y=              3.3881    Z=              0.4772  Tot=              3.4670
 Quadrupole moment (field-independent basis, Debye-Ang):
   XX=           -486.6759   YY=           -477.5173   ZZ=           -522.0940
   XY=             12.2613   XZ=             22.4780   YZ=             -9.0831

 Normal termination of Gaussian 16 at Mon Sep 20 04:24:53 2021.
