 Gaussian 16, Revision A.03,
 Gaussian 16:  ES64L-G16RevA.03 25-Dec-2016

 --------------------------------
 #p wB97XD/Def2SVP td=(nstates=5)
 --------------------------------

 --------------------------------
 TDDFT excited states in gaussian
 --------------------------------
 Symbolic Z-matrix:
 Charge =  0 Multiplicity = 1

                         Standard orientation:
 ---------------------------------------------------------------------
 Center     Atomic      Atomic             Coordinates (Angstroms)
 Number     Number       Type             X           Y           Z
 ---------------------------------------------------------------------
      1         12           0       19.901174    0.428470    0.553008
      2          6           0       17.799886   -1.573650   -1.381993
      3          6           0       20.559211    2.316223   -2.107866
      4          6           0       22.796819    1.380055    2.100529
      5          6           0       19.220174   -1.607309    3.296749
      6          7           0       19.111299    0.471854   -1.498002
      7          6           0       18.276640   -0.412910   -2.029724
      8          6           0       17.880250    0.063586   -3.473876
      9          6           0       18.860569    1.237525   -3.709600
     10          6           0       19.588370    1.357890   -2.374044
     11          6           0       19.985215    0.938399   -4.820560
     12          6           0       16.360017    0.517606   -3.647331
     13          6           0       15.768632    0.037373   -4.928169
     14          1           0       15.063232    1.025115   -5.844694
     15          7           0       21.439263    1.695876    0.057882
     16          6           0       21.523671    2.418678   -1.102562
     17          6           0       22.568056    3.440163   -0.943291
     18          6           0       23.214720    3.154360    0.291480
     19          6           0       22.499337    1.991420    0.842478
     20          6           0       22.905537    4.495616   -2.044275
     21          6           0       24.463190    3.844050    0.919536
     22          8           0       24.951832    3.531412    1.999507
     23          6           0       25.083724    4.966405    0.176899
     24          7           0       20.867305   -0.043129    2.351178
     25          6           0       22.112824    0.416357    2.789676
     26          6           0       22.541309   -0.373366    4.054056
     27          6           0       21.147806   -0.795864    4.696299
     28          6           0       20.374135   -0.794628    3.347393
     29          6           0       23.528701   -1.520576    3.750230
     30          6           0       20.528756    0.154539    5.681439
     31          6           0       19.806344    1.385730    5.221107
     32          7           0       18.619446   -1.123222    1.016756
     33          6           0       18.465567   -1.888412    2.149651
     34          6           0       17.451371   -2.930540    1.974362
     35          6           0       17.210767   -2.923872    0.526966
     36          6           0       17.969763   -1.798707    0.018817
     37          6           0       17.028316   -3.893847    2.960824
     38          6           0       16.527179   -3.585151   -0.577901
     39          8           0       15.878268   -4.561264   -0.639143
     40          6           0       16.833263   -2.660929   -1.868737
     41          6           0       17.283414   -3.425521   -3.087885
     42          8           0       18.451107   -3.654689   -3.388963
     43          8           0       16.161371   -3.737631   -3.854864
     44          6           0       16.379580   -4.463861   -5.119015
     45          1           0       20.757172    3.138108   -2.799599
     46          1           0       23.744405    1.717016    2.526850
     47          1           0       18.983114   -2.142535    4.218193
     48          1           0       18.105248   -0.688065   -4.230923
     49          1           0       18.417964    2.179188   -4.034314
     50          1           0       19.591698    1.301216   -5.770308
     51          1           0       20.202134   -0.115504   -4.992811
     52          1           0       20.875204    1.510674   -4.556184
     53          1           0       16.259234    1.602988   -3.634453
     54          1           0       15.683791    0.210713   -2.849311
     55          1           0       14.972234   -0.627513   -4.594956
     56          1           0       16.401101   -0.546895   -5.595947
     57          1           0       23.669695    4.033792   -2.668851
     58          1           0       23.201117    5.450457   -1.608852
     59          1           0       22.132611    4.606344   -2.805561
     60          1           0       25.204966    4.938679   -0.905869
     61          1           0       26.082816    5.155993    0.568507
     62          1           0       24.647276    5.905212    0.519059
     63          1           0       23.004538    0.388458    4.680411
     64          1           0       21.192441   -1.773323    5.176262
     65          1           0       23.251273   -2.511749    4.109044
     66          1           0       24.567562   -1.272567    3.969008
     67          1           0       23.602901   -1.668441    2.673002
     68          1           0       21.226008    0.553572    6.417138
     69          1           0       19.807141   -0.409010    6.273040
     70          1           0       18.769428    1.050559    5.205409
     71          1           0       20.041452    1.727700    4.212960
     72          1           0       19.959658    2.184670    5.947285
     73          1           0       15.965580   -4.054815    2.778855
     74          1           0       17.156974   -3.428715    3.937853
     75          1           0       17.574433   -4.828004    2.833412
     76          1           0       15.898633   -2.164968   -2.130672
     77          1           0       16.975261   -5.344948   -4.878849
     78          1           0       16.958401   -3.860712   -5.818006
     79          1           0       15.522017   -4.795783   -5.704495
     80         12           0      -19.918797   -0.495625   -0.173831
     81          6           0      -19.495021    2.912245    0.250866
     82          6           0      -16.502675   -0.933590    0.145630
     83          6           0      -20.474954   -3.807521    0.168029
     84          6           0      -23.387735    0.138555   -0.129862
     85          7           0      -18.220882    0.826762    0.447988
     86          6           0      -18.307146    2.157061    0.360339
     87          6           0      -16.930817    2.805662    0.704899
     88          6           0      -15.935816    1.590023    0.394030
     89          6           0      -16.943304    0.387127    0.240221
     90          6           0      -14.988846    1.875249   -0.796517
     91          6           0      -16.871388    3.169849    2.170931
     92          6           0      -16.204668    4.498993    2.489477
     93          1           0      -15.296516    4.715581    3.758129
     94          7           0      -18.585744   -2.159198   -0.054464
     95          6           0      -17.255558   -2.159532    0.138838
     96          6           0      -16.824155   -3.519599    0.155357
     97          6           0      -17.944238   -4.388536   -0.015655
     98          6           0      -19.092791   -3.474066   -0.011749
     99          6           0      -15.384548   -3.879493    0.137345
    100          6           0      -17.866208   -5.872787    0.042041
    101          8           0      -16.783886   -6.426559    0.141216
    102          6           0      -19.109908   -6.743673   -0.089678
    103          7           0      -21.773395   -1.703683   -0.086873
    104          6           0      -21.662250   -3.044322    0.128979
    105          6           0      -22.993557   -3.637779    0.457663
    106          6           0      -23.927259   -2.339804    0.363731
    107          6           0      -23.030053   -1.196797   -0.041654
    108          6           0      -23.409050   -4.824866   -0.431320
    109          6           0      -24.794742   -2.009412    1.658047
    110          6           0      -26.319831   -1.777620    1.544061
    111          7           0      -21.189427    1.129003   -0.010052
    112          6           0      -22.542684    1.237869   -0.081413
    113          6           0      -22.905537    2.566959   -0.303652
    114          6           0      -21.740514    3.315684   -0.211171
    115          6           0      -20.741304    2.409249    0.040491
    116          6           0      -24.370964    3.066475   -0.467343
    117          6           0      -21.184143    4.585212   -0.276055
    118          8           0      -21.765331    5.661373   -0.361213
    119          6           0      -19.622344    4.463671    0.070513
    120          6           0      -18.804596    4.837191   -1.026612
    121          8           0      -18.525828    4.237184   -2.067466
    122          8           0      -18.301283    6.097014   -0.717123
    123          6           0      -17.414733    6.790376   -1.635888
    124          1           0      -15.420459   -1.066039    0.088537
    125          1           0      -20.808875   -4.842790    0.268492
    126          1           0      -24.473640    0.220038   -0.212572
    127          1           0      -16.815576    3.692752    0.082707
    128          1           0      -15.349131    1.265681    1.252896
    129          1           0      -15.232037    2.815604   -1.290790
    130          1           0      -15.047027    1.054447   -1.512071
    131          1           0      -13.969733    1.874815   -0.410540
    132          1           0      -16.440009    2.439729    2.856022
    133          1           0      -17.909406    3.127482    2.500769
    134          1           0      -16.991712    5.252271    2.458719
    135          1           0      -15.596136    4.645503    1.597123
    136          1           0      -15.202659   -4.079689   -0.918397
    137          1           0      -15.180638   -4.747181    0.765044
    138          1           0      -14.736447   -3.076160    0.487829
    139          1           0      -19.581419   -6.731965    0.893109
    140          1           0      -18.742018   -7.763045   -0.203882
    141          1           0      -19.754168   -6.379921   -0.890021
    142          1           0      -22.810822   -3.948287    1.485890
    143          1           0      -24.723614   -2.471484   -0.368809
    144          1           0      -23.300652   -5.713848    0.190897
    145          1           0      -22.820754   -4.897064   -1.346669
    146          1           0      -24.466967   -4.737474   -0.677663
    147          1           0      -24.396863   -1.101421    2.110969
    148          1           0      -24.761607   -2.803655    2.404147
    149          1           0      -26.324402   -0.700432    1.377992
    150          1           0      -26.807119   -1.987315    2.495377
    151          1           0      -26.864296   -2.130763    0.668405
    152          1           0      -24.852758    3.044454    0.509315
    153          1           0      -25.022579    2.448837   -1.085726
    154          1           0      -24.393620    4.090947   -0.839920
    155          1           0      -19.473024    5.061856    0.969522
    156          1           0      -17.594816    7.857065   -1.505893
    157          1           0      -17.463317    6.453819   -2.671830
    158          1           0      -16.396130    6.652700   -1.272853
 ---------------------------------------------------------------------

 SCF Done:  E(RwB97XD) =  -4070.59539535     A.U. after   19 cycles

 Excitation energies and oscillator strengths:

 Excited State   1:      Singlet-A      1.6238 eV  763.55 nm  f=0.3645  <S**2>=0.000
     310 -> 316       -0.18231
     312 -> 314        0.68314
     310 <- 316       -0.11734
 This state for optimization and/or second-order correction.
 Total Energy, E(TD-HF/TD-DFT) =  -4070.53572214
 Copying the excited state density for this state as the 1-particle RhoCI density.

 Excited State   2:      Singlet-A      1.6376 eV  757.11 nm  f=0.4137  <S**2>=0.000
     309 -> 315       -0.19066
     311 -> 313        0.68150
     309 <- 315       -0.11948

 Excited State   3:      Singlet-A      2.1723 eV  570.76 nm  f=0.0978  <S**2>=0.000
     309 -> 313        0.63456
     311 -> 315        0.29666

 Excited State   4:      Singlet-A      2.2000 eV  563.57 nm  f=0.1017  <S**2>=0.000
     310 -> 314        0.63111
     312 -> 316        0.30775

 Excited State   5:      Singlet-A      3.2597 eV  380.36 nm  f=0.0049  <S**2>=0.000
     308 -> 313        0.67176
     311 -> 315       -0.12909

 The electronic state is 1-A.
 Alpha  occ. eigenvalues --  -46.96042 -46.94257 -19.30266 -19.29894 -19.25146
 Alpha  occ. eigenvalues --  -19.25045 -19.24752 -19.24333 -19.24178 -19.23376
 Alpha  occ. eigenvalues --  -14.46934 -14.46760 -14.46622 -14.46023 -14.44432
 Alpha  occ. eigenvalues --  -14.43901 -14.43827 -14.43792 -10.43555 -10.43465
 Alpha  occ. eigenvalues --  -10.39590 -10.39546 -10.39265 -10.38584 -10.35577
 Alpha  occ. eigenvalues --  -10.35543 -10.35451 -10.35399 -10.35363 -10.35326
 Alpha  occ. eigenvalues --  -10.35162 -10.34899 -10.34612 -10.34557 -10.34018
 Alpha  occ. eigenvalues --  -10.33875 -10.33816 -10.33801 -10.33528 -10.33443
 Alpha  occ. eigenvalues --  -10.33373 -10.32907 -10.32844 -10.32816 -10.32771
 Alpha  occ. eigenvalues --  -10.32500 -10.32486 -10.32461 -10.32401 -10.32374
 Alpha  occ. eigenvalues --  -10.32358 -10.32354 -10.32254 -10.32239 -10.32228
 Alpha  occ. eigenvalues --  -10.31931 -10.31927 -10.31920 -10.31900 -10.31703
 Alpha  occ. eigenvalues --  -10.31609 -10.31465 -10.31443 -10.31143 -10.31085
 Alpha  occ. eigenvalues --  -10.30820 -10.30748 -10.30739 -10.30734 -10.30716
 Alpha  occ. eigenvalues --  -10.30453 -10.30184 -10.30155 -10.29998 -10.29974
 Alpha  occ. eigenvalues --  -10.29915 -10.29791 -10.29734 -10.29710 -10.29660
 Alpha  occ. eigenvalues --  -10.29473 -10.29377 -10.29366 -10.28878 -10.28836
 Alpha  occ. eigenvalues --  -10.28357  -3.21831  -3.20378  -1.95428  -1.94943
 Alpha  occ. eigenvalues --   -1.94789  -1.93975  -1.93481  -1.93380  -1.17921
 Alpha  occ. eigenvalues --   -1.17330  -1.15224  -1.12342  -1.12296  -1.12202
 Alpha  occ. eigenvalues --   -1.09725  -1.09661  -1.07574  -1.07166  -1.06099
 Alpha  occ. eigenvalues --   -1.05882  -1.05569  -1.04891  -1.04678  -1.04173
 Alpha  occ. eigenvalues --   -0.95914  -0.93852  -0.91419  -0.91018  -0.90888
 Alpha  occ. eigenvalues --   -0.90464  -0.90274  -0.89942  -0.89845  -0.89138
 Alpha  occ. eigenvalues --   -0.88860  -0.88815  -0.88210  -0.88183  -0.87383
 Alpha  occ. eigenvalues --   -0.86543  -0.86053  -0.85486  -0.84961  -0.84444
 Alpha  occ. eigenvalues --   -0.84173  -0.83762  -0.83465  -0.82950  -0.82758
 Alpha  occ. eigenvalues --   -0.82328  -0.80187  -0.80145  -0.79566  -0.79163
 Alpha  occ. eigenvalues --   -0.78676  -0.78516  -0.78437  -0.77756  -0.77138
 Alpha  occ. eigenvalues --   -0.76782  -0.75514  -0.74396  -0.74249  -0.73430
 Alpha  occ. eigenvalues --   -0.71849  -0.71212  -0.71137  -0.70504  -0.70106
 Alpha  occ. eigenvalues --   -0.69678  -0.69367  -0.68697  -0.68107  -0.67858
 Alpha  occ. eigenvalues --   -0.67636  -0.67502  -0.66877  -0.66612  -0.66238
 Alpha  occ. eigenvalues --   -0.66032  -0.64722  -0.63803  -0.62498  -0.62131
 Alpha  occ. eigenvalues --   -0.61936  -0.61543  -0.61109  -0.61076  -0.60873
 Alpha  occ. eigenvalues --   -0.60180  -0.60097  -0.60016  -0.59752  -0.59206
 Alpha  occ. eigenvalues --   -0.58348  -0.58117  -0.57787  -0.57477  -0.57474
 Alpha  occ. eigenvalues --   -0.57295  -0.56801  -0.56753  -0.56329  -0.56049
 Alpha  occ. eigenvalues --   -0.55525  -0.55516  -0.55345  -0.55307  -0.54860
 Alpha  occ. eigenvalues --   -0.54600  -0.54425  -0.54267  -0.54087  -0.54061
 Alpha  occ. eigenvalues --   -0.54016  -0.53820  -0.53697  -0.53546  -0.53457
 Alpha  occ. eigenvalues --   -0.53304  -0.53230  -0.53202  -0.52328  -0.52309
 Alpha  occ. eigenvalues --   -0.52119  -0.52093  -0.52006  -0.51941  -0.51545
 Alpha  occ. eigenvalues --   -0.51533  -0.51432  -0.51428  -0.51042  -0.50987
 Alpha  occ. eigenvalues --   -0.50934  -0.50521  -0.50342  -0.50225  -0.50213
 Alpha  occ. eigenvalues --   -0.49896  -0.49722  -0.49447  -0.48888  -0.48847
 Alpha  occ. eigenvalues --   -0.48767  -0.48719  -0.48659  -0.48544  -0.48507
 Alpha  occ. eigenvalues --   -0.48182  -0.48089  -0.48036  -0.47908  -0.47768
 Alpha  occ. eigenvalues --   -0.47742  -0.47433  -0.47417  -0.47270  -0.47126
 Alpha  occ. eigenvalues --   -0.47103  -0.46866  -0.46674  -0.46547  -0.46500
 Alpha  occ. eigenvalues --   -0.46273  -0.46091  -0.45845  -0.45650  -0.45569
 Alpha  occ. eigenvalues --   -0.45387  -0.45256  -0.45196  -0.45096  -0.44839
 Alpha  occ. eigenvalues --   -0.44708  -0.44587  -0.44156  -0.44017  -0.43868
 Alpha  occ. eigenvalues --   -0.43812  -0.43782  -0.43507  -0.43439  -0.43357
 Alpha  occ. eigenvalues --   -0.43339  -0.43080  -0.42930  -0.42376  -0.42213
 Alpha  occ. eigenvalues --   -0.42111  -0.41641  -0.41034  -0.40589  -0.40309
 Alpha  occ. eigenvalues --   -0.40156  -0.39954  -0.39918  -0.39597  -0.39419
 Alpha  occ. eigenvalues --   -0.39253  -0.38939  -0.38647  -0.38590  -0.38294
 Alpha  occ. eigenvalues --   -0.37836  -0.37596  -0.36845  -0.36508  -0.36419
 Alpha  occ. eigenvalues --   -0.36273  -0.35775  -0.35060  -0.34046  -0.33396
 Alpha  occ. eigenvalues --   -0.33282  -0.33273  -0.33124  -0.32686  -0.32633
 Alpha  occ. eigenvalues --   -0.32183  -0.31761  -0.31656  -0.26493  -0.25901
 Alpha  occ. eigenvalues --   -0.23360  -0.22580
 Alpha virt. eigenvalues --   -0.07562  -0.06807  -0.00387   0.00543   0.01883
 Alpha virt. eigenvalues --    0.02488   0.04436   0.04544   0.05666   0.05916
 Alpha virt. eigenvalues --    0.06212   0.06735   0.07172   0.08079   0.08118

 Mulliken charges:
               1
     1  Mg   0.983706
     2  C    0.016708
     3  C   -0.089883
     4  C   -0.082495
     5  C   -0.106121
     6  N   -0.316792
     7  C    0.009719
     8  C   -0.040627
     9  C   -0.128959
    10  C    0.104126
    11  C   -0.004703
    12  C    0.028243
    13  C   -0.147856
    14  H    0.026105
    15  N   -0.453040
    16  C    0.111536
    17  C   -0.155598
    18  C   -0.103415
    19  C    0.123747
    20  C    0.045665
    21  C    0.084721
    22  O   -0.233071
    23  C   -0.023252
    24  N   -0.364464
    25  C    0.051464
    26  C   -0.052994
    27  C   -0.060175
    28  C    0.046872
    29  C    0.044651
    30  C   -0.025406
    31  C   -0.034932
    32  N   -0.447998
    33  C    0.163617
    34  C   -0.168828
    35  C   -0.084454
    36  C    0.117512
    37  C    0.076994
    38  C    0.137650
    39  O   -0.142189
    40  C   -0.139060
    41  C    0.283421
    42  O   -0.249103
    43  O   -0.383364
    44  C    0.147037
    45  H   -0.013083
    46  H    0.021614
    47  H   -0.009713
    48  H    0.043019
    49  H    0.044045
    50  H    0.031210
    51  H    0.051242
    52  H    0.038052
    53  H    0.037897
    54  H    0.036938
    55  H    0.053916
    56  H    0.051454
    57  H    0.057705
    58  H    0.063582
    59  H    0.032716
    60  H    0.059299
    61  H    0.038656
    62  H    0.062553
    63  H    0.024369
    64  H    0.023882
    65  H    0.039150
    66  H    0.044476
    67  H    0.032107
    68  H    0.026702
    69  H    0.023445
    70  H    0.026954
    71  H    0.051709
    72  H    0.040141
    73  H    0.057396
    74  H    0.036660
    75  H    0.074619
    76  H    0.075988
    77  H    0.054245
    78  H    0.040551
    79  H    0.061791
    80  Mg   0.939026
    81  C   -0.063603
    82  C   -0.088089
    83  C   -0.039735
    84  C   -0.124289
    85  N   -0.332233
    86  C    0.013070
    87  C   -0.124668
    88  C   -0.103006
    89  C    0.083842
    90  C    0.035824
    91  C    0.029640
    92  C   -0.116585
    93  H    0.044702
    94  N   -0.455937
    95  C    0.158357
    96  C   -0.182124
    97  C   -0.057343
    98  C    0.198469
    99  C    0.076173
   100  C    0.004677
   101  O   -0.235980
   102  C    0.002995
   103  N   -0.354013
   104  C   -0.009517
   105  C   -0.086547
   106  C   -0.051319
   107  C    0.062309
   108  C    0.022913
   109  C   -0.053222
   110  C   -0.067796
   111  N   -0.434066
   112  C    0.194539
   113  C   -0.187429
   114  C    0.053616
   115  C    0.162197
   116  C    0.075231
   117  C    0.056295
   118  O   -0.207040
   119  C   -0.077508
   120  C    0.295505
   121  O   -0.257362
   122  O   -0.388883
   123  C    0.139790
   124  H   -0.000114
   125  H   -0.030075
   126  H   -0.003603
   127  H    0.037071
   128  H    0.045721
   129  H    0.048932
   130  H    0.034017
   131  H    0.036036
   132  H    0.037208
   133  H    0.027169
   134  H    0.055805
   135  H    0.044461
   136  H    0.060708
   137  H    0.065598
   138  H    0.024430
   139  H    0.059340
   140  H    0.052016
   141  H    0.063600
   142  H    0.053051
   143  H    0.024098
   144  H    0.042395
   145  H    0.053162
   146  H    0.040443
   147  H    0.043612
   148  H    0.030923
   149  H    0.022308
   150  H    0.048003
   151  H    0.040154
   152  H    0.047475
   153  H    0.037827
   154  H    0.062229
   155  H    0.083012
   156  H    0.056844
   157  H    0.068852
   158  H    0.036415
 Sum of Mulliken charges =  -0.00000

 Dipole moment (field-independent basis, Debye):
    X=             -2.3648    Y=              1.9561    Z=             -0.3067  Tot=              3.0842
 Quadrupole moment (field-independent basis, Debye-Ang):
   XX=           -450.5380   YY=           -531.5646   ZZ=           -482.9150
   XY=            127.8790   XZ=            -45.6261   YZ=            -14.5296

 Normal termination of Gaussian 16 at Sat Sep 18 19:13:18 2021.
