 Gaussian 16, Revision A.03,
 Gaussian 16:  ES64L-G16RevA.03 25-Dec-2016

 --------------------------------
 #p wB97XD/Def2SVP td=(nstates=5)
 --------------------------------

 --------------------------------
 TDDFT excited states in gaussian
 --------------------------------
 Symbolic Z-matrix:
 Charge =  0 Multiplicity = 1

                         Standard orientation:
 ---------------------------------------------------------------------
 Center     Atomic      Atomic             Coordinates (Angstroms)
 Number     Number       Type             X           Y           Z
 ---------------------------------------------------------------------
      1         12           0      -19.794813    0.680465    0.503381
      2          6           0      -18.872977   -2.263657   -1.321988
      3          6           0      -20.841859   -1.228892    2.960947
      4          6           0      -21.288888    3.411226    1.641412
      5          6           0      -18.896484    2.539716   -2.540454
      6          7           0      -19.800676   -1.499864    0.790464
      7          6           0      -19.414345   -2.540911   -0.077013
      8          6           0      -19.628444   -3.981565    0.523664
      9          6           0      -20.229796   -3.531784    1.992576
     10          6           0      -20.297904   -2.008179    1.961117
     11          6           0      -21.665556   -4.152220    2.272055
     12          6           0      -18.359676   -4.902952    0.558745
     13          6           0      -18.441910   -6.108671    1.487256
     14          1           0      -18.443860   -7.472009    0.771793
     15          7           0      -20.832476    1.054267    2.144405
     16          6           0      -21.191895    0.162118    3.127158
     17          6           0      -21.905821    0.797077    4.214806
     18          6           0      -22.011426    2.182857    3.797569
     19          6           0      -21.280774    2.265880    2.482938
     20          6           0      -22.335877    0.174364    5.458855
     21          6           0      -22.646121    3.368996    4.502632
     22          8           0      -22.570628    4.500918    4.114338
     23          6           0      -23.474461    3.014515    5.708926
     24          7           0      -20.112779    2.685327   -0.362388
     25          6           0      -20.749311    3.633908    0.369816
     26          6           0      -20.734303    5.003067   -0.361134
     27          6           0      -19.846559    4.702010   -1.618437
     28          6           0      -19.545646    3.221114   -1.490421
     29          6           0      -22.107880    5.654166   -0.740545
     30          6           0      -18.515172    5.524385   -1.738130
     31          6           0      -18.732572    6.972990   -2.228523
     32          7           0      -19.074706    0.307336   -1.507339
     33          6           0      -18.699790    1.123052   -2.549957
     34          6           0      -18.124945    0.333622   -3.565405
     35          6           0      -18.204429   -0.958067   -3.201037
     36          6           0      -18.823042   -0.974294   -1.914236
     37          6           0      -17.484308    0.969761   -4.792127
     38          6           0      -17.996299   -2.369572   -3.539580
     39          8           0      -17.545882   -2.878110   -4.533627
     40          6           0      -18.463333   -3.268894   -2.297804
     41          6           0      -19.686903   -4.014277   -2.726341
     42          8           0      -20.859883   -3.716074   -2.711221
     43          8           0      -19.217747   -5.243783   -3.144471
     44          6           0      -20.224785   -6.223971   -3.616013
     45          1           0      -21.264683   -1.779585    3.803666
     46          1           0      -21.923137    4.227099    1.996346
     47          1           0      -18.583020    3.245192   -3.313455
     48          1           0      -20.457426   -4.442914   -0.013291
     49          1           0      -19.563218   -3.924875    2.760560
     50          1           0      -21.702492   -4.530101    3.293673
     51          1           0      -22.050893   -4.919654    1.601273
     52          1           0      -22.418587   -3.365002    2.291842
     53          1           0      -17.602489   -4.163236    0.821967
     54          1           0      -17.969524   -5.285080   -0.384834
     55          1           0      -19.355169   -6.040449    2.077690
     56          1           0      -17.524301   -6.159281    2.072721
     57          1           0      -21.701051    0.720491    6.156560
     58          1           0      -22.174381   -0.903470    5.435834
     59          1           0      -23.368344    0.321713    5.775068
     60          1           0      -22.858121    3.093055    6.604402
     61          1           0      -24.168157    2.191047    5.536799
     62          1           0      -24.289629    3.736013    5.661497
     63          1           0      -20.064110    5.628387    0.229465
     64          1           0      -20.469195    4.756126   -2.511740
     65          1           0      -22.272193    5.853255   -1.799935
     66          1           0      -22.072447    6.657683   -0.317104
     67          1           0      -22.991314    5.110788   -0.405324
     68          1           0      -17.858300    5.041643   -2.460852
     69          1           0      -18.058552    5.461173   -0.749424
     70          1           0      -19.682634    7.057512   -2.756458
     71          1           0      -17.869132    7.207708   -2.850890
     72          1           0      -18.812007    7.708674   -1.427615
     73          1           0      -16.711007    0.326106   -5.211574
     74          1           0      -17.090724    1.947519   -4.514125
     75          1           0      -18.245398    1.214805   -5.533267
     76          1           0      -17.669276   -3.935922   -1.961333
     77          1           0      -19.771628   -6.713770   -4.477808
     78          1           0      -21.179495   -5.783954   -3.903751
     79          1           0      -20.274098   -6.861131   -2.732463
     80         12           0       20.449317    0.662056   -0.037400
     81          6           0       18.280850   -2.217435   -0.164280
     82          6           0       22.875728   -1.453522    1.353350
     83          6           0       22.479678    3.242237   -0.023276
     84          6           0       17.795412    2.652497   -1.140151
     85          7           0       20.499475   -1.626322    0.543724
     86          6           0       19.611368   -2.598555    0.207154
     87          6           0       20.196272   -3.990248    0.384701
     88          6           0       21.573650   -3.733917    1.216718
     89          6           0       21.655538   -2.187940    1.059921
     90          6           0       21.576155   -4.285630    2.664406
     91          6           0       20.418801   -4.731059   -0.977011
     92          6           0       19.694329   -6.098521   -1.076323
     93          1           0       20.710387   -7.373549   -1.212069
     94          7           0       22.349276    0.856685    0.555493
     95          6           0       23.243928   -0.096953    1.149066
     96          6           0       24.585590    0.459019    1.444627
     97          6           0       24.446833    1.806957    0.977371
     98          6           0       23.074261    2.006142    0.482645
     99          6           0       25.730761   -0.312997    2.103072
    100          6           0       25.432150    2.910926    1.045445
    101          8           0       25.361294    3.970477    0.432186
    102          6           0       26.729624    2.670484    1.841975
    103          7           0       20.209364    2.580718   -0.670804
    104          6           0       21.198225    3.493785   -0.536662
    105          6           0       20.731415    4.903604   -0.770807
    106          6           0       19.244992    4.753113   -1.178129
    107          6           0       19.048632    3.225411   -1.053051
    108          6           0       21.005744    5.860229    0.370572
    109          6           0       19.015595    5.251990   -2.723951
    110          6           0       17.857333    6.370320   -2.938510
    111          7           0       18.359348    0.375150   -0.303652
    112          6           0       17.435473    1.302163   -0.843418
    113          6           0       16.166320    0.595883   -1.052130
    114          6           0       16.528066   -0.771193   -0.925932
    115          6           0       17.803784   -0.837769   -0.363717
    116          6           0       14.785914    1.144215   -1.400907
    117          6           0       15.911417   -2.127184   -0.883470
    118          8           0       14.751444   -2.593545   -1.057867
    119          6           0       17.094775   -3.099246   -0.504457
    120          6           0       16.660506   -3.946306    0.655173
    121          8           0       16.084314   -3.527870    1.619178
    122          8           0       16.916298   -5.261293    0.381633
    123          6           0       16.216862   -6.182057    1.313050
    124          1           0       23.543596   -2.118781    1.904190
    125          1           0       23.103520    4.138642   -0.041282
    126          1           0       16.962684    3.246986   -1.521104
    127          1           0       19.505948   -4.523893    1.038033
    128          1           0       22.451354   -4.126036    0.702228
    129          1           0       21.630053   -3.473139    3.389606
    130          1           0       22.413633   -4.969123    2.810222
    131          1           0       20.736030   -4.927085    2.930646
    132          1           0       21.474768   -4.932592   -1.158927
    133          1           0       20.052389   -4.143078   -1.818932
    134          1           0       19.142610   -6.223894   -2.008347
    135          1           0       18.946322   -6.285047   -0.306383
    136          1           0       25.663143   -1.401343    2.097553
    137          1           0       25.974039   -0.012973    3.122288
    138          1           0       26.611188   -0.061407    1.510899
    139          1           0       26.501254    2.479014    2.890408
    140          1           0       27.439416    3.491651    1.736516
    141          1           0       27.215594    1.787718    1.426487
    142          1           0       21.335708    5.326842   -1.574319
    143          1           0       18.588199    5.263311   -0.474173
    144          1           0       21.801783    6.574280    0.157719
    145          1           0       21.363475    5.394358    1.288702
    146          1           0       20.073652    6.373872    0.607014
    147          1           0       18.771798    4.447671   -3.417256
    148          1           0       19.909842    5.702798   -3.153485
    149          1           0       17.723288    6.838820   -1.963303
    150          1           0       16.926825    5.927900   -3.296582
    151          1           0       18.207489    7.189355   -3.566200
    152          1           0       14.206970    0.447106   -2.006370
    153          1           0       14.934462    1.989609   -2.073735
    154          1           0       14.400220    1.484756   -0.439876
    155          1           0       17.191690   -3.783255   -1.347188
    156          1           0       16.485343   -5.883352    2.326177
    157          1           0       16.702678   -7.140565    1.131101
    158          1           0       15.128205   -6.232382    1.295194
 ---------------------------------------------------------------------

 SCF Done:  E(RwB97XD) =  -4070.60841696     A.U. after   19 cycles

 Excitation energies and oscillator strengths:

 Excited State   1:      Singlet-A      1.6155 eV  767.48 nm  f=0.3747  <S**2>=0.000
     309 -> 315        0.19307
     311 -> 313        0.68175
     309 <- 315        0.12116
 This state for optimization and/or second-order correction.
 Total Energy, E(TD-HF/TD-DFT) =  -4070.54904949
 Copying the excited state density for this state as the 1-particle RhoCI density.

 Excited State   2:      Singlet-A      1.6367 eV  757.50 nm  f=0.3926  <S**2>=0.000
     310 -> 316        0.18385
     312 -> 314        0.68387
     310 <- 316        0.11736

 Excited State   3:      Singlet-A      2.1191 eV  585.09 nm  f=0.1287  <S**2>=0.000
     309 -> 313        0.64519
     311 -> 315       -0.27987

 Excited State   4:      Singlet-A      2.1545 eV  575.47 nm  f=0.1360  <S**2>=0.000
     310 -> 314        0.64887
     312 -> 316       -0.26857

 Excited State   5:      Singlet-A      3.3518 eV  369.91 nm  f=0.0005  <S**2>=0.000
     303 -> 319       -0.10240
     305 -> 313       -0.13852
     308 -> 313        0.64947
     308 -> 317        0.12990

 The electronic state is 1-A.
 Alpha  occ. eigenvalues --  -46.94867 -46.94863 -19.30869 -19.29050 -19.24812
 Alpha  occ. eigenvalues --  -19.24666 -19.24131 -19.24016 -19.23936 -19.23745
 Alpha  occ. eigenvalues --  -14.47251 -14.46787 -14.46503 -14.45867 -14.45369
 Alpha  occ. eigenvalues --  -14.44181 -14.43830 -14.43417 -10.42781 -10.42655
 Alpha  occ. eigenvalues --  -10.39265 -10.39182 -10.39123 -10.38691 -10.35914
 Alpha  occ. eigenvalues --  -10.35688 -10.35676 -10.35627 -10.35299 -10.34931
 Alpha  occ. eigenvalues --  -10.34916 -10.34905 -10.34903 -10.34850 -10.34776
 Alpha  occ. eigenvalues --  -10.34348 -10.34204 -10.34105 -10.34077 -10.33977
 Alpha  occ. eigenvalues --  -10.33319 -10.33293 -10.33124 -10.33076 -10.32958
 Alpha  occ. eigenvalues --  -10.32941 -10.32917 -10.32910 -10.32873 -10.32712
 Alpha  occ. eigenvalues --  -10.32531 -10.32507 -10.32481 -10.32373 -10.32231
 Alpha  occ. eigenvalues --  -10.32030 -10.31867 -10.31768 -10.31664 -10.31282
 Alpha  occ. eigenvalues --  -10.31190 -10.31161 -10.31107 -10.31008 -10.30893
 Alpha  occ. eigenvalues --  -10.30853 -10.30825 -10.30816 -10.30812 -10.30751
 Alpha  occ. eigenvalues --  -10.30719 -10.30617 -10.30463 -10.30191 -10.30004
 Alpha  occ. eigenvalues --  -10.29953 -10.29938 -10.29728 -10.29700 -10.29562
 Alpha  occ. eigenvalues --  -10.29560 -10.29442 -10.29350 -10.29347 -10.29209
 Alpha  occ. eigenvalues --  -10.28715  -3.20939  -3.20857  -1.94529  -1.94443
 Alpha  occ. eigenvalues --   -1.94063  -1.93959  -1.93929  -1.93846  -1.19121
 Alpha  occ. eigenvalues --   -1.17821  -1.13552  -1.13011  -1.12214  -1.10875
 Alpha  occ. eigenvalues --   -1.09628  -1.09290  -1.05982  -1.05786  -1.05306
 Alpha  occ. eigenvalues --   -1.05274  -1.04631  -1.04464  -1.04067  -1.03579
 Alpha  occ. eigenvalues --   -0.94966  -0.93541  -0.90794  -0.90612  -0.90363
 Alpha  occ. eigenvalues --   -0.90107  -0.90003  -0.89933  -0.89359  -0.89063
 Alpha  occ. eigenvalues --   -0.88946  -0.88728  -0.87939  -0.87549  -0.85944
 Alpha  occ. eigenvalues --   -0.85787  -0.85059  -0.85050  -0.84036  -0.83929
 Alpha  occ. eigenvalues --   -0.83699  -0.83338  -0.82625  -0.82618  -0.82005
 Alpha  occ. eigenvalues --   -0.81712  -0.81086  -0.80046  -0.79015  -0.78851
 Alpha  occ. eigenvalues --   -0.78705  -0.78532  -0.77964  -0.77438  -0.77169
 Alpha  occ. eigenvalues --   -0.76726  -0.74725  -0.74550  -0.73402  -0.73245
 Alpha  occ. eigenvalues --   -0.71534  -0.71159  -0.70659  -0.70634  -0.69691
 Alpha  occ. eigenvalues --   -0.69532  -0.69104  -0.68932  -0.67828  -0.67604
 Alpha  occ. eigenvalues --   -0.66973  -0.66534  -0.66410  -0.66319  -0.66017
 Alpha  occ. eigenvalues --   -0.65861  -0.64343  -0.63432  -0.62841  -0.62040
 Alpha  occ. eigenvalues --   -0.61433  -0.61220  -0.60772  -0.60736  -0.60329
 Alpha  occ. eigenvalues --   -0.60227  -0.59924  -0.59794  -0.59131  -0.58867
 Alpha  occ. eigenvalues --   -0.58151  -0.58061  -0.57634  -0.57257  -0.56954
 Alpha  occ. eigenvalues --   -0.56947  -0.56462  -0.56340  -0.56164  -0.56026
 Alpha  occ. eigenvalues --   -0.55720  -0.55576  -0.55347  -0.54628  -0.54585
 Alpha  occ. eigenvalues --   -0.54520  -0.54273  -0.54140  -0.53863  -0.53613
 Alpha  occ. eigenvalues --   -0.53526  -0.53335  -0.53286  -0.53253  -0.52903
 Alpha  occ. eigenvalues --   -0.52773  -0.52415  -0.52411  -0.52066  -0.51976
 Alpha  occ. eigenvalues --   -0.51891  -0.51708  -0.51693  -0.51581  -0.51407
 Alpha  occ. eigenvalues --   -0.51385  -0.51161  -0.51030  -0.50732  -0.50729
 Alpha  occ. eigenvalues --   -0.50310  -0.50209  -0.50048  -0.49943  -0.49883
 Alpha  occ. eigenvalues --   -0.49708  -0.49628  -0.49537  -0.49416  -0.48977
 Alpha  occ. eigenvalues --   -0.48934  -0.48773  -0.48644  -0.48484  -0.48252
 Alpha  occ. eigenvalues --   -0.48129  -0.47873  -0.47793  -0.47633  -0.47487
 Alpha  occ. eigenvalues --   -0.47326  -0.47184  -0.47082  -0.46929  -0.46904
 Alpha  occ. eigenvalues --   -0.46749  -0.46741  -0.46677  -0.46620  -0.46338
 Alpha  occ. eigenvalues --   -0.46030  -0.45926  -0.45785  -0.45747  -0.45720
 Alpha  occ. eigenvalues --   -0.45427  -0.45272  -0.45069  -0.44767  -0.44645
 Alpha  occ. eigenvalues --   -0.44541  -0.44445  -0.44186  -0.44011  -0.43961
 Alpha  occ. eigenvalues --   -0.43763  -0.43550  -0.43506  -0.43258  -0.43016
 Alpha  occ. eigenvalues --   -0.42777  -0.42706  -0.42661  -0.42602  -0.42381
 Alpha  occ. eigenvalues --   -0.42361  -0.42066  -0.41303  -0.41190  -0.40672
 Alpha  occ. eigenvalues --   -0.40514  -0.40169  -0.39958  -0.39643  -0.39444
 Alpha  occ. eigenvalues --   -0.39333  -0.38961  -0.38521  -0.38476  -0.38424
 Alpha  occ. eigenvalues --   -0.37702  -0.37508  -0.36639  -0.36535  -0.36391
 Alpha  occ. eigenvalues --   -0.35896  -0.35251  -0.34838  -0.33858  -0.33443
 Alpha  occ. eigenvalues --   -0.32965  -0.32803  -0.32596  -0.32540  -0.32478
 Alpha  occ. eigenvalues --   -0.32259  -0.31891  -0.31501  -0.25818  -0.25468
 Alpha  occ. eigenvalues --   -0.23111  -0.22731
 Alpha virt. eigenvalues --   -0.07345  -0.06859   0.00071   0.00832   0.02174
 Alpha virt. eigenvalues --    0.02971   0.04151   0.04758   0.05689   0.06567
 Alpha virt. eigenvalues --    0.06792   0.07528   0.07722   0.07903   0.08173

 Mulliken charges:
               1
     1  Mg   0.977323
     2  C   -0.038500
     3  C   -0.071989
     4  C   -0.068547
     5  C   -0.096198
     6  N   -0.383253
     7  C   -0.009829
     8  C   -0.026740
     9  C   -0.121328
    10  C    0.109438
    11  C   -0.013728
    12  C   -0.019458
    13  C   -0.123111
    14  H    0.029471
    15  N   -0.491573
    16  C    0.111783
    17  C   -0.136133
    18  C   -0.128131
    19  C    0.164603
    20  C    0.081612
    21  C    0.041161
    22  O   -0.208243
    23  C   -0.027478
    24  N   -0.338892
    25  C    0.031273
    26  C   -0.031750
    27  C   -0.109787
    28  C    0.026747
    29  C    0.019875
    30  C   -0.035792
    31  C   -0.029310
    32  N   -0.401554
    33  C    0.165337
    34  C   -0.241958
    35  C    0.014053
    36  C    0.138191
    37  C    0.096223
    38  C    0.119981
    39  O   -0.173022
    40  C   -0.118337
    41  C    0.284969
    42  O   -0.233242
    43  O   -0.386667
    44  C    0.128142
    45  H   -0.028705
    46  H    0.025134
    47  H    0.001783
    48  H    0.050829
    49  H    0.047813
    50  H    0.031091
    51  H    0.050451
    52  H    0.042768
    53  H    0.033740
    54  H    0.059804
    55  H    0.061064
    56  H    0.063988
    57  H    0.057830
    58  H    0.039857
    59  H    0.047050
    60  H    0.079742
    61  H    0.047340
    62  H    0.039897
    63  H    0.038805
    64  H    0.032526
    65  H    0.032660
    66  H    0.039102
    67  H    0.051662
    68  H    0.028521
    69  H    0.032767
    70  H    0.031869
    71  H    0.042791
    72  H    0.037461
    73  H    0.058754
    74  H    0.027677
    75  H    0.045750
    76  H    0.081088
    77  H    0.063704
    78  H    0.072773
    79  H    0.054984
    80  Mg   0.990379
    81  C   -0.017349
    82  C   -0.078569
    83  C   -0.086391
    84  C   -0.079804
    85  N   -0.298143
    86  C   -0.019977
    87  C   -0.052921
    88  C   -0.107261
    89  C    0.011001
    90  C    0.015733
    91  C    0.043005
    92  C   -0.139093
    93  H   -0.009625
    94  N   -0.512145
    95  C    0.177314
    96  C   -0.130291
    97  C   -0.070972
    98  C    0.182138
    99  C    0.070376
   100  C    0.029665
   101  O   -0.236668
   102  C   -0.016533
   103  N   -0.420663
   104  C    0.093863
   105  C   -0.078848
   106  C   -0.074225
   107  C    0.101944
   108  C    0.012665
   109  C   -0.031817
   110  C   -0.079625
   111  N   -0.424456
   112  C    0.112355
   113  C   -0.186354
   114  C   -0.110841
   115  C    0.145427
   116  C    0.092640
   117  C    0.193656
   118  O   -0.247690
   119  C   -0.086797
   120  C    0.237180
   121  O   -0.215007
   122  O   -0.372150
   123  C    0.133777
   124  H   -0.004497
   125  H    0.020954
   126  H   -0.003300
   127  H    0.041534
   128  H    0.042937
   129  H    0.048247
   130  H    0.034628
   131  H    0.041302
   132  H    0.049081
   133  H    0.046168
   134  H    0.054742
   135  H    0.060335
   136  H    0.047036
   137  H    0.062917
   138  H    0.044794
   139  H    0.052798
   140  H    0.053690
   141  H    0.038489
   142  H    0.046260
   143  H    0.048430
   144  H    0.040259
   145  H    0.042069
   146  H    0.029138
   147  H    0.043066
   148  H    0.034670
   149  H    0.027501
   150  H    0.051976
   151  H    0.040936
   152  H    0.063957
   153  H    0.026470
   154  H    0.068676
   155  H    0.067112
   156  H    0.050125
   157  H    0.052111
   158  H    0.076484
 Sum of Mulliken charges =  -0.00000

 Dipole moment (field-independent basis, Debye):
    X=              4.4352    Y=             -1.0181    Z=              4.7027  Tot=              6.5439
 Quadrupole moment (field-independent basis, Debye-Ang):
   XX=           -328.6404   YY=           -474.1552   ZZ=           -502.5327
   XY=            -15.3632   XZ=            -35.9084   YZ=            -38.5032

 Normal termination of Gaussian 16 at Sun Sep 19 07:17:14 2021.
