 Gaussian 16, Revision A.03,
 Gaussian 16:  ES64L-G16RevA.03 25-Dec-2016

 --------------------------------
 #p wB97XD/Def2SVP td=(nstates=5)
 --------------------------------

 --------------------------------
 TDDFT excited states in gaussian
 --------------------------------
 Symbolic Z-matrix:
 Charge =  0 Multiplicity = 1

                         Standard orientation:
 ---------------------------------------------------------------------
 Center     Atomic      Atomic             Coordinates (Angstroms)
 Number     Number       Type             X           Y           Z
 ---------------------------------------------------------------------
      1         12           0       30.468811   -0.351595    0.121243
      2          6           0       27.134529    0.134270    1.119592
      3          6           0       29.439329   -3.046642   -1.749328
      4          6           0       33.436688   -0.264325   -1.338084
      5          6           0       31.352535    2.603375    1.883351
      6          7           0       28.497333   -1.163859   -0.455997
      7          6           0       27.231120   -0.815264    0.080930
      8          6           0       26.198221   -1.831786   -0.183322
      9          6           0       26.997691   -2.909299   -1.035740
     10          6           0       28.419465   -2.370879   -1.063050
     11          6           0       26.801414   -4.350524   -0.506246
     12          6           0       25.053004   -1.357104   -1.024797
     13          6           0       25.388126   -0.377060   -2.158979
     14          1           0       24.616259   -0.416687   -3.535147
     15          7           0       31.377415   -1.519506   -1.337469
     16          6           0       30.821073   -2.627100   -1.864137
     17          6           0       31.807093   -3.286174   -2.683494
     18          6           0       33.006831   -2.548262   -2.531305
     19          6           0       32.670594   -1.393865   -1.682564
     20          6           0       31.572005   -4.496619   -3.546525
     21          6           0       34.357890   -2.906057   -3.149875
     22          8           0       34.484819   -3.889221   -3.853255
     23          6           0       35.624865   -2.104628   -3.098719
     24          7           0       32.055992    1.104720    0.050195
     25          6           0       33.235664    0.875724   -0.606534
     26          6           0       34.346239    1.880864   -0.156189
     27          6           0       33.522052    2.944370    0.630770
     28          6           0       32.243859    2.177695    0.890840
     29          6           0       35.463117    1.283987    0.733775
     30          6           0       33.057266    4.231156   -0.201435
     31          6           0       33.259720    5.555146    0.441767
     32          7           0       29.559726    1.002650    1.317163
     33          6           0       30.078478    1.981368    2.070970
     34          6           0       29.106612    2.365464    3.163135
     35          6           0       27.952850    1.592215    2.817641
     36          6           0       28.231976    0.895566    1.607913
     37          6           0       29.251354    3.348833    4.315654
     38          6           0       26.568417    1.416309    3.149470
     39          8           0       25.886023    1.938951    4.016493
     40          6           0       25.992056    0.424822    2.059771
     41          6           0       24.990667    1.208499    1.236856
     42          8           0       25.209082    2.099541    0.484307
     43          8           0       23.750866    0.633755    1.419301
     44          6           0       22.738088    1.103010    0.468299
     45          1           0       29.144054   -4.007268   -2.176047
     46          1           0       34.474427   -0.318516   -1.671316
     47          1           0       31.735754    3.418439    2.500801
     48          1           0       25.820352   -2.175497    0.779573
     49          1           0       26.798452   -2.915401   -2.107310
     50          1           0       26.570458   -4.870744   -1.436003
     51          1           0       25.974746   -4.317851    0.203531
     52          1           0       27.714172   -4.782303   -0.095227
     53          1           0       24.184431   -1.036221   -0.449104
     54          1           0       24.537483   -2.142344   -1.578170
     55          1           0       26.456925   -0.507810   -2.331673
     56          1           0       25.273080    0.587427   -1.664066
     57          1           0       32.002843   -4.359624   -4.538902
     58          1           0       30.508090   -4.732048   -3.571234
     59          1           0       32.106413   -5.294655   -3.030557
     60          1           0       35.595606   -1.147783   -3.618967
     61          1           0       36.279963   -2.713733   -3.721746
     62          1           0       36.107856   -2.126450   -2.121229
     63          1           0       34.815821    2.279102   -1.055542
     64          1           0       33.987467    3.245654    1.569592
     65          1           0       35.372079    1.707852    1.733688
     66          1           0       36.431951    1.302865    0.234939
     67          1           0       35.276795    0.217066    0.851181
     68          1           0       32.017683    4.139743   -0.515250
     69          1           0       33.660875    4.183103   -1.107934
     70          1           0       33.852674    6.238241   -0.166064
     71          1           0       33.704485    5.493360    1.435246
     72          1           0       32.317335    6.083154    0.584903
     73          1           0       28.456616    4.084609    4.192554
     74          1           0       30.289439    3.682724    4.338397
     75          1           0       28.984289    2.786840    5.210516
     76          1           0       25.543269   -0.463226    2.504252
     77          1           0       23.158909    1.392166   -0.494619
     78          1           0       22.304333    1.968550    0.969192
     79          1           0       21.953823    0.346553    0.476460
     80         12           0      -30.282085    0.403987   -0.170755
     81          6           0      -27.595987   -0.478151    1.848448
     82          6           0      -31.841113   -2.480921    0.839139
     83          6           0      -32.844256    1.128557   -2.367383
     84          6           0      -28.431434    3.000885   -1.578517
     85          7           0      -29.795435   -1.218879    1.262666
     86          6           0      -28.715293   -1.330840    2.054491
     87          6           0      -28.785444   -2.476643    3.090755
     88          6           0      -30.068615   -3.263742    2.583002
     89          6           0      -30.622726   -2.290923    1.435018
     90          6           0      -29.634289   -4.692898    2.098397
     91          6           0      -28.948082   -1.791164    4.543310
     92          6           0      -27.917277   -2.213509    5.631274
     93          1           0      -27.206232   -3.584725    5.341581
     94          7           0      -32.060507   -0.538539   -0.775329
     95          6           0      -32.561838   -1.701117   -0.154218
     96          6           0      -33.920943   -1.917315   -0.602567
     97          6           0      -34.212371   -0.932307   -1.554696
     98          6           0      -33.036872    0.015201   -1.556382
     99          6           0      -34.664619   -3.222996   -0.287412
    100          6           0      -35.494844   -0.784396   -2.415671
    101          8           0      -35.700331    0.120628   -3.245920
    102          6           0      -36.643042   -1.781774   -2.184349
    103          7           0      -30.513453    1.828996   -1.792729
    104          6           0      -31.746045    1.932439   -2.506621
    105          6           0      -31.612850    2.945634   -3.662699
    106          6           0      -30.295179    3.731762   -3.210234
    107          6           0      -29.724847    2.823325   -2.089576
    108          6           0      -31.577357    2.201645   -4.987446
    109          6           0      -30.643684    5.170251   -2.638093
    110          6           0      -31.684606    5.465427   -1.504982
    111          7           0      -28.403446    1.091990   -0.008108
    112          6           0      -27.752217    2.151509   -0.647208
    113          6           0      -26.424756    2.258889   -0.134905
    114          6           0      -26.325283    1.300778    0.857766
    115          6           0      -27.514001    0.529984    0.844811
    116          6           0      -25.325395    3.185313   -0.612932
    117          6           0      -25.460914    0.769257    1.835508
    118          8           0      -24.321840    1.057558    2.022269
    119          6           0      -26.218315   -0.487208    2.434749
    120          6           0      -25.424877   -1.691454    2.008799
    121          8           0      -25.774340   -2.461192    1.138470
    122          8           0      -24.297645   -1.704061    2.730053
    123          6           0      -23.260510   -2.512633    2.137441
    124          1           0      -32.380321   -3.352949    1.214364
    125          1           0      -33.540366    1.198407   -3.205045
    126          1           0      -27.834162    3.803356   -2.017613
    127          1           0      -27.901646   -3.112503    3.138895
    128          1           0      -30.865701   -3.364698    3.319949
    129          1           0      -30.089561   -5.022749    1.164272
    130          1           0      -29.985828   -5.268755    2.954030
    131          1           0      -28.544945   -4.712787    2.120014
    132          1           0      -29.987135   -1.922891    4.844438
    133          1           0      -28.849056   -0.716099    4.391220
    134          1           0      -28.558001   -2.265529    6.510872
    135          1           0      -27.128896   -1.486947    5.825667
    136          1           0      -34.957756   -3.660586   -1.242046
    137          1           0      -35.593239   -2.991434    0.235992
    138          1           0      -34.025773   -3.880803    0.301066
    139          1           0      -36.323485   -2.733038   -2.611893
    140          1           0      -37.460256   -1.437250   -2.817820
    141          1           0      -36.996390   -1.698762   -1.156849
    142          1           0      -32.456392    3.623889   -3.530953
    143          1           0      -29.668359    3.932085   -4.078429
    144          1           0      -32.120624    1.256859   -4.962769
    145          1           0      -30.549331    1.991113   -5.281418
    146          1           0      -32.077727    2.776161   -5.766701
    147          1           0      -30.881556    5.812407   -3.486180
    148          1           0      -29.705382    5.469039   -2.170674
    149          1           0      -32.662669    5.598849   -1.967467
    150          1           0      -31.349620    6.394502   -1.042296
    151          1           0      -31.699092    4.763517   -0.670574
    152          1           0      -25.600355    4.235911   -0.517713
    153          1           0      -25.217405    2.934583   -1.667996
    154          1           0      -24.410040    3.178746   -0.019508
    155          1           0      -26.305316   -0.558837    3.519057
    156          1           0      -22.250943   -2.159278    2.345923
    157          1           0      -23.313023   -2.840957    1.099488
    158          1           0      -23.215817   -3.524237    2.541457
 ---------------------------------------------------------------------

 SCF Done:  E(RwB97XD) =  -4070.60502475     A.U. after   19 cycles

 Excitation energies and oscillator strengths:

 Excited State   1:      Singlet-A      1.6066 eV  771.69 nm  f=0.3734  <S**2>=0.000
     309 -> 315        0.17853
     311 -> 313        0.68544
     309 <- 315        0.11727
 This state for optimization and/or second-order correction.
 Total Energy, E(TD-HF/TD-DFT) =  -4070.54598146
 Copying the excited state density for this state as the 1-particle RhoCI density.

 Excited State   2:      Singlet-A      1.6514 eV  750.80 nm  f=0.3891  <S**2>=0.000
     310 -> 316        0.18082
     312 -> 314        0.68426
     310 <- 316        0.11556

 Excited State   3:      Singlet-A      2.1706 eV  571.20 nm  f=0.1246  <S**2>=0.000
     310 -> 314        0.64463
     312 -> 316       -0.27782

 Excited State   4:      Singlet-A      2.2111 eV  560.74 nm  f=0.0983  <S**2>=0.000
     309 -> 313        0.62754
     311 -> 315       -0.31204

 Excited State   5:      Singlet-A      3.4113 eV  363.45 nm  f=0.0006  <S**2>=0.000
     300 -> 313       -0.11537
     306 -> 313       -0.17966
     307 -> 313        0.64779

 The electronic state is 1-A.
 Alpha  occ. eigenvalues --  -46.94936 -46.94409 -19.31388 -19.29843 -19.25337
 Alpha  occ. eigenvalues --  -19.25012 -19.24440 -19.24183 -19.23572 -19.23250
 Alpha  occ. eigenvalues --  -14.46994 -14.46830 -14.46486 -14.46013 -14.44180
 Alpha  occ. eigenvalues --  -14.44112 -14.44106 -14.43693 -10.43161 -10.43082
 Alpha  occ. eigenvalues --  -10.39040 -10.39008 -10.38857 -10.38563 -10.35662
 Alpha  occ. eigenvalues --  -10.35244 -10.35201 -10.35100 -10.34971 -10.34836
 Alpha  occ. eigenvalues --  -10.34686 -10.34654 -10.34601 -10.34508 -10.34322
 Alpha  occ. eigenvalues --  -10.34270 -10.33995 -10.33879 -10.33813 -10.33605
 Alpha  occ. eigenvalues --  -10.33595 -10.33325 -10.32955 -10.32864 -10.32607
 Alpha  occ. eigenvalues --  -10.32560 -10.32554 -10.32457 -10.32435 -10.32340
 Alpha  occ. eigenvalues --  -10.32291 -10.32196 -10.32179 -10.32104 -10.31902
 Alpha  occ. eigenvalues --  -10.31881 -10.31877 -10.31747 -10.31699 -10.31623
 Alpha  occ. eigenvalues --  -10.31522 -10.31068 -10.31067 -10.31030 -10.30857
 Alpha  occ. eigenvalues --  -10.30772 -10.30740 -10.30563 -10.30539 -10.30492
 Alpha  occ. eigenvalues --  -10.30476 -10.30420 -10.30365 -10.30301 -10.30188
 Alpha  occ. eigenvalues --  -10.29956 -10.29649 -10.29609 -10.29435 -10.29416
 Alpha  occ. eigenvalues --  -10.29364 -10.29182 -10.29171 -10.29155 -10.29073
 Alpha  occ. eigenvalues --  -10.28772  -3.21006  -3.20442  -1.94559  -1.94136
 Alpha  occ. eigenvalues --   -1.94034  -1.93996  -1.93544  -1.93435  -1.20358
 Alpha  occ. eigenvalues --   -1.19408  -1.14297  -1.12609  -1.12192  -1.11275
 Alpha  occ. eigenvalues --   -1.11159  -1.10474  -1.06591  -1.06177  -1.06034
 Alpha  occ. eigenvalues --   -1.05329  -1.05321  -1.04735  -1.04651  -1.03128
 Alpha  occ. eigenvalues --   -0.95159  -0.94815  -0.91743  -0.91310  -0.90423
 Alpha  occ. eigenvalues --   -0.90296  -0.89979  -0.89618  -0.89449  -0.89015
 Alpha  occ. eigenvalues --   -0.88421  -0.88283  -0.87913  -0.87755  -0.86646
 Alpha  occ. eigenvalues --   -0.86051  -0.85875  -0.85253  -0.84630  -0.84145
 Alpha  occ. eigenvalues --   -0.83599  -0.83151  -0.82817  -0.82795  -0.82466
 Alpha  occ. eigenvalues --   -0.81862  -0.79883  -0.79632  -0.79440  -0.79008
 Alpha  occ. eigenvalues --   -0.78779  -0.78650  -0.77979  -0.77776  -0.77093
 Alpha  occ. eigenvalues --   -0.76877  -0.74956  -0.74691  -0.73653  -0.73133
 Alpha  occ. eigenvalues --   -0.71556  -0.70813  -0.70810  -0.70625  -0.70571
 Alpha  occ. eigenvalues --   -0.69926  -0.69089  -0.68317  -0.67803  -0.67789
 Alpha  occ. eigenvalues --   -0.67074  -0.66535  -0.66521  -0.66449  -0.66367
 Alpha  occ. eigenvalues --   -0.65858  -0.64361  -0.64097  -0.61977  -0.61976
 Alpha  occ. eigenvalues --   -0.61425  -0.61406  -0.61007  -0.60924  -0.60897
 Alpha  occ. eigenvalues --   -0.60378  -0.60105  -0.59988  -0.59396  -0.59231
 Alpha  occ. eigenvalues --   -0.58535  -0.58201  -0.58017  -0.57653  -0.57361
 Alpha  occ. eigenvalues --   -0.57054  -0.56897  -0.56560  -0.56357  -0.56023
 Alpha  occ. eigenvalues --   -0.55885  -0.55305  -0.55052  -0.54991  -0.54803
 Alpha  occ. eigenvalues --   -0.54430  -0.54298  -0.54209  -0.54092  -0.54017
 Alpha  occ. eigenvalues --   -0.53888  -0.53818  -0.53672  -0.53530  -0.53341
 Alpha  occ. eigenvalues --   -0.53075  -0.52871  -0.52857  -0.52572  -0.52098
 Alpha  occ. eigenvalues --   -0.51839  -0.51754  -0.51551  -0.51446  -0.51337
 Alpha  occ. eigenvalues --   -0.51212  -0.51053  -0.50845  -0.50730  -0.50687
 Alpha  occ. eigenvalues --   -0.50549  -0.50474  -0.50283  -0.50214  -0.49842
 Alpha  occ. eigenvalues --   -0.49653  -0.49463  -0.49386  -0.49129  -0.49082
 Alpha  occ. eigenvalues --   -0.49042  -0.48823  -0.48736  -0.48573  -0.48309
 Alpha  occ. eigenvalues --   -0.48174  -0.48081  -0.47947  -0.47823  -0.47741
 Alpha  occ. eigenvalues --   -0.47477  -0.47423  -0.47167  -0.47132  -0.46887
 Alpha  occ. eigenvalues --   -0.46600  -0.46514  -0.46430  -0.46295  -0.46241
 Alpha  occ. eigenvalues --   -0.46022  -0.45835  -0.45663  -0.45565  -0.45534
 Alpha  occ. eigenvalues --   -0.45361  -0.45149  -0.44986  -0.44902  -0.44696
 Alpha  occ. eigenvalues --   -0.44563  -0.44520  -0.44380  -0.44279  -0.44111
 Alpha  occ. eigenvalues --   -0.44079  -0.43790  -0.43788  -0.43697  -0.43257
 Alpha  occ. eigenvalues --   -0.43056  -0.42684  -0.42671  -0.42592  -0.42295
 Alpha  occ. eigenvalues --   -0.42174  -0.41761  -0.41442  -0.41035  -0.41030
 Alpha  occ. eigenvalues --   -0.40407  -0.39808  -0.39655  -0.39383  -0.39313
 Alpha  occ. eigenvalues --   -0.39089  -0.39074  -0.38972  -0.38473  -0.38433
 Alpha  occ. eigenvalues --   -0.38144  -0.37708  -0.37047  -0.36747  -0.36214
 Alpha  occ. eigenvalues --   -0.36075  -0.35296  -0.34923  -0.33800  -0.33577
 Alpha  occ. eigenvalues --   -0.33118  -0.33044  -0.32474  -0.32463  -0.32300
 Alpha  occ. eigenvalues --   -0.32070  -0.31823  -0.31683  -0.26226  -0.25677
 Alpha  occ. eigenvalues --   -0.22849  -0.22771
 Alpha virt. eigenvalues --   -0.07118  -0.06890   0.00129   0.00616   0.02300
 Alpha virt. eigenvalues --    0.02624   0.04494   0.04611   0.04654   0.05629
 Alpha virt. eigenvalues --    0.07119   0.07580   0.07775   0.08157   0.08333

 Mulliken charges:
               1
     1  Mg   0.971004
     2  C   -0.073641
     3  C   -0.088816
     4  C   -0.070211
     5  C   -0.087603
     6  N   -0.366588
     7  C    0.021516
     8  C   -0.041532
     9  C   -0.131856
    10  C    0.060100
    11  C    0.036710
    12  C   -0.025885
    13  C   -0.106379
    14  H    0.042074
    15  N   -0.438588
    16  C    0.155157
    17  C   -0.199081
    18  C   -0.050483
    19  C    0.165627
    20  C    0.110674
    21  C    0.017515
    22  O   -0.237348
    23  C   -0.009423
    24  N   -0.356946
    25  C    0.045696
    26  C   -0.079964
    27  C   -0.111630
    28  C    0.037632
    29  C    0.042893
    30  C    0.014733
    31  C   -0.045855
    32  N   -0.434636
    33  C    0.147880
    34  C   -0.205235
    35  C   -0.044315
    36  C    0.163152
    37  C    0.102138
    38  C    0.124247
    39  O   -0.206585
    40  C   -0.072779
    41  C    0.257688
    42  O   -0.210025
    43  O   -0.374922
    44  C    0.128959
    45  H   -0.001778
    46  H   -0.030302
    47  H    0.001592
    48  H    0.040524
    49  H    0.052532
    50  H    0.037917
    51  H    0.045549
    52  H    0.046135
    53  H    0.018080
    54  H    0.023439
    55  H    0.051750
    56  H    0.057274
    57  H    0.065781
    58  H    0.021450
    59  H    0.056296
    60  H    0.066085
    61  H    0.044667
    62  H    0.054442
    63  H    0.033927
    64  H    0.029527
    65  H    0.040558
    66  H    0.046106
    67  H    0.027743
    68  H    0.057239
    69  H    0.024513
    70  H    0.038661
    71  H    0.024903
    72  H    0.035852
    73  H    0.069376
    74  H    0.037725
    75  H    0.057390
    76  H    0.064943
    77  H    0.073156
    78  H    0.055937
    79  H    0.055943
    80  Mg   0.964111
    81  C   -0.022142
    82  C   -0.067015
    83  C   -0.064582
    84  C   -0.108181
    85  N   -0.333511
    86  C    0.014120
    87  C   -0.076047
    88  C   -0.120600
    89  C    0.066745
    90  C    0.027413
    91  C   -0.000259
    92  C   -0.127124
    93  H    0.034992
    94  N   -0.460704
    95  C    0.133488
    96  C   -0.174282
    97  C   -0.090067
    98  C    0.138171
    99  C    0.086612
   100  C    0.051253
   101  O   -0.252407
   102  C   -0.016373
   103  N   -0.338693
   104  C    0.022246
   105  C   -0.061316
   106  C   -0.072422
   107  C    0.096768
   108  C    0.042005
   109  C   -0.059414
   110  C   -0.054440
   111  N   -0.488514
   112  C    0.148357
   113  C   -0.184017
   114  C   -0.008201
   115  C    0.148040
   116  C    0.079480
   117  C    0.095242
   118  O   -0.162831
   119  C   -0.097523
   120  C    0.245603
   121  O   -0.237010
   122  O   -0.309761
   123  C    0.140942
   124  H   -0.012915
   125  H    0.030870
   126  H    0.003277
   127  H    0.039889
   128  H    0.038820
   129  H    0.052159
   130  H    0.032873
   131  H    0.049454
   132  H    0.033238
   133  H    0.042338
   134  H    0.057021
   135  H    0.070041
   136  H    0.044548
   137  H    0.039309
   138  H    0.041500
   139  H    0.061832
   140  H    0.044458
   141  H    0.063980
   142  H    0.035098
   143  H    0.030280
   144  H    0.046254
   145  H    0.035059
   146  H    0.037253
   147  H    0.038901
   148  H    0.021496
   149  H    0.047715
   150  H    0.037255
   151  H    0.043654
   152  H    0.037578
   153  H    0.056848
   154  H    0.057406
   155  H    0.056460
   156  H    0.058021
   157  H    0.054711
   158  H    0.025169
 Sum of Mulliken charges =  -0.00000

 Dipole moment (field-independent basis, Debye):
    X=              1.4109    Y=             -1.0842    Z=              3.0576  Tot=              3.5376
 Quadrupole moment (field-independent basis, Debye-Ang):
   XX=           -363.6754   YY=           -490.7018   ZZ=           -521.3007
   XY=             45.4993   XZ=            -34.7149   YZ=            -25.0039

 Normal termination of Gaussian 16 at Sat Sep 18 16:00:58 2021.
