 Gaussian 16, Revision A.03,
 Gaussian 16:  ES64L-G16RevA.03 25-Dec-2016

 --------------------------------
 #p wB97XD/Def2SVP td=(nstates=5)
 --------------------------------

 --------------------------------
 TDDFT excited states in gaussian
 --------------------------------
 Symbolic Z-matrix:
 Charge =  0 Multiplicity = 1

                         Standard orientation:
 ---------------------------------------------------------------------
 Center     Atomic      Atomic             Coordinates (Angstroms)
 Number     Number       Type             X           Y           Z
 ---------------------------------------------------------------------
      1         12           0       -9.060275    0.247165   -0.721659
      2          6           0       -7.998597    0.043073    2.618621
      3          6           0       -8.832249    3.629138   -0.492328
      4          6           0       -9.626500    0.259312   -3.942782
      5          6           0       -8.371437   -3.284725   -0.854546
      6          7           0       -8.550813    1.626751    0.893757
      7          6           0       -8.130263    1.337696    2.161203
      8          6           0       -7.576453    2.625782    2.788479
      9          6           0       -8.354527    3.699591    2.035997
     10          6           0       -8.503084    2.958820    0.693191
     11          6           0       -9.728189    4.007154    2.675603
     12          6           0       -6.022865    2.748777    2.571434
     13          6           0       -5.062757    2.667239    3.857800
     14          1           0       -4.022738    1.537163    3.943579
     15          7           0       -9.152929    1.731703   -2.050702
     16          6           0       -9.056292    3.073904   -1.763524
     17          6           0       -9.371247    3.806766   -2.949760
     18          6           0       -9.737449    2.887621   -3.987955
     19          6           0       -9.514356    1.547468   -3.372082
     20          6           0       -9.345821    5.371805   -3.026644
     21          6           0      -10.266194    3.300576   -5.409393
     22          8           0      -10.478274    4.447415   -5.658149
     23          6           0      -10.750761    2.250857   -6.297422
     24          7           0       -8.697337   -1.252859   -2.258962
     25          6           0       -9.389329   -1.017312   -3.398985
     26          6           0       -9.842280   -2.288078   -4.098208
     27          6           0       -9.127888   -3.383987   -3.322162
     28          6           0       -8.682209   -2.599058   -2.039704
     29          6           0      -11.404895   -2.472279   -4.085179
     30          6           0       -7.914382   -4.173664   -4.005514
     31          6           0       -8.047286   -5.602995   -4.458198
     32          7           0       -8.545113   -1.341721    0.599687
     33          6           0       -8.302462   -2.708910    0.414823
     34          6           0       -7.870429   -3.345124    1.640466
     35          6           0       -7.768762   -2.302050    2.527843
     36          6           0       -8.156294   -1.081956    1.882094
     37          6           0       -7.545978   -4.772589    1.795350
     38          6           0       -7.415729   -1.963802    3.898118
     39          8           0       -7.112308   -2.706227    4.840179
     40          6           0       -7.651642   -0.474961    4.041335
     41          6           0       -8.737623   -0.288511    5.095340
     42          8           0       -9.847371   -0.797127    4.954087
     43          8           0       -8.250911    0.386775    6.225405
     44          6           0       -9.216318    0.567382    7.276446
     45          1           0       -8.900360    4.707887   -0.339070
     46          1           0      -10.125793    0.302194   -4.911981
     47          1           0       -8.272926   -4.372224   -0.877077
     48          1           0       -7.707457    2.529662    3.866591
     49          1           0       -7.736632    4.595637    1.992935
     50          1           0       -9.647720    5.092859    2.716251
     51          1           0       -9.691204    3.523991    3.652370
     52          1           0      -10.611398    3.675185    2.129724
     53          1           0       -5.835188    3.732505    2.141308
     54          1           0       -5.739228    2.028322    1.804643
     55          1           0       -5.729693    2.481569    4.700058
     56          1           0       -4.539081    3.592893    4.093606
     57          1           0       -8.801758    5.834839   -3.849286
     58          1           0       -8.893073    5.702415   -2.091295
     59          1           0      -10.344572    5.807309   -3.062066
     60          1           0      -10.011203    1.486272   -6.536246
     61          1           0      -11.089807    2.714906   -7.223562
     62          1           0      -11.699542    1.859705   -5.932682
     63          1           0       -9.595454   -2.292760   -5.160410
     64          1           0       -9.844417   -4.126957   -2.971863
     65          1           0      -11.883746   -2.161005   -5.013414
     66          1           0      -11.817439   -2.018666   -3.184002
     67          1           0      -11.597762   -3.541699   -3.988706
     68          1           0       -6.923477   -4.071768   -3.564306
     69          1           0       -7.885967   -3.554692   -4.902664
     70          1           0       -7.991098   -5.723563   -5.539590
     71          1           0       -9.013069   -5.997405   -4.141357
     72          1           0       -7.229804   -6.120590   -3.956807
     73          1           0       -7.251515   -5.153442    0.817044
     74          1           0       -8.483659   -5.255127    2.072509
     75          1           0       -6.814505   -4.931791    2.586305
     76          1           0       -6.695975   -0.123197    4.427639
     77          1           0       -9.942457    1.360169    7.094717
     78          1           0       -8.735425    0.797974    8.226645
     79          1           0       -9.806322   -0.320451    7.502310
     80         12           0        9.240542    0.382140   -0.046115
     81          6           0        7.151359   -2.250075    0.577337
     82          6           0        7.057088    2.529562    1.266672
     83          6           0       11.270668    2.774055   -0.929220
     84          6           0       11.200128   -1.909301   -1.946609
     85          7           0        7.207017    0.190039    0.687332
     86          6           0        6.698820   -1.003822    1.082866
     87          6           0        5.581446   -0.836633    2.075941
     88          6           0        5.393975    0.733391    2.050008
     89          6           0        6.569169    1.202428    1.219887
     90          6           0        4.010792    1.210719    1.546099
     91          6           0        5.866374   -1.531515    3.543368
     92          6           0        4.761759   -2.392498    4.174859
     93          1           0        3.295924   -2.105288    3.721277
     94          7           0        9.256813    2.274760    0.283826
     95          6           0        8.285166    3.047960    0.834974
     96          6           0        8.580263    4.458994    0.779023
     97          6           0        9.867871    4.526829    0.339697
     98          6           0       10.129815    3.171661   -0.237141
     99          6           0        7.466794    5.416111    1.163322
    100          6           0       10.786209    5.759720    0.224577
    101          8           0       11.902891    5.731990   -0.237997
    102          6           0       10.157582    7.032710    0.709245
    103          7           0       10.901331    0.412783   -1.423181
    104          6           0       11.621628    1.547593   -1.477409
    105          6           0       12.903429    1.343392   -2.291066
    106          6           0       13.038658   -0.216320   -2.343806
    107          6           0       11.616515   -0.620081   -1.903651
    108          6           0       13.008525    2.028258   -3.719927
    109          6           0       14.092728   -0.860850   -1.366748
    110          6           0       14.034743   -0.684244    0.127805
    111          7           0        9.313556   -1.682721   -0.558273
    112          6           0       10.097847   -2.474618   -1.403218
    113          6           0        9.627757   -3.865517   -1.431368
    114          6           0        8.463115   -3.827282   -0.650098
    115          6           0        8.353984   -2.485826   -0.165547
    116          6           0       10.274431   -5.058578   -2.087067
    117          6           0        7.391927   -4.565752   -0.157701
    118          8           0        7.033730   -5.722675   -0.313654
    119          6           0        6.630319   -3.655893    0.840631
    120          6           0        5.217509   -3.864620    0.448847
    121          8           0        4.653016   -3.326083   -0.506429
    122          8           0        4.630408   -4.828723    1.215999
    123          6           0        3.342191   -5.394103    0.802533
    124          1           0        6.413803    3.171449    1.872536
    125          1           0       12.022762    3.511823   -1.213875
    126          1           0       11.913647   -2.502332   -2.523815
    127          1           0        4.648639   -1.233236    1.674947
    128          1           0        5.574123    1.124944    3.050938
    129          1           0        4.114296    1.572407    0.523153
    130          1           0        3.684527    2.042422    2.170556
    131          1           0        3.349635    0.345274    1.592144
    132          1           0        6.089254   -0.694070    4.204623
    133          1           0        6.720247   -2.205874    3.486416
    134          1           0        4.707063   -2.206785    5.247199
    135          1           0        5.017808   -3.447731    4.080623
    136          1           0        6.573201    5.361472    0.541349
    137          1           0        7.589747    6.490374    1.026993
    138          1           0        7.337867    5.166666    2.216553
    139          1           0        9.819624    6.926928    1.739845
    140          1           0        9.399161    7.209075   -0.053227
    141          1           0       10.777012    7.924554    0.797263
    142          1           0       13.642733    1.838333   -1.660326
    143          1           0       13.155362   -0.520883   -3.384102
    144          1           0       12.096470    2.589961   -3.920345
    145          1           0       13.011563    1.276856   -4.508646
    146          1           0       13.880962    2.659927   -3.893921
    147          1           0       15.005151   -0.432424   -1.782309
    148          1           0       14.141509   -1.944301   -1.470861
    149          1           0       13.279829    0.062527    0.377300
    150          1           0       14.984353   -0.304670    0.504681
    151          1           0       13.734070   -1.555842    0.708851
    152          1           0        9.733411   -5.390460   -2.972103
    153          1           0       10.347918   -5.877316   -1.371066
    154          1           0       11.225452   -4.657144   -2.437978
    155          1           0        6.864183   -3.903095    1.876313
    156          1           0        3.192301   -6.403053    1.188601
    157          1           0        3.164765   -5.267816   -0.264396
    158          1           0        2.494567   -4.819221    1.175104
 ---------------------------------------------------------------------

 SCF Done:  E(RwB97XD) =  -4070.60646665     A.U. after   19 cycles

 Excitation energies and oscillator strengths:

 Excited State   1:      Singlet-A      1.6662 eV  744.11 nm  f=0.3265  <S**2>=0.000
     309 -> 315       -0.19709
     311 -> 313        0.67968
     309 <- 315       -0.12045
 This state for optimization and/or second-order correction.
 Total Energy, E(TD-HF/TD-DFT) =  -4070.54523447
 Copying the excited state density for this state as the 1-particle RhoCI density.

 Excited State   2:      Singlet-A      1.7216 eV  720.18 nm  f=0.3902  <S**2>=0.000
     310 -> 316        0.19545
     312 -> 314        0.67852
     310 <- 316        0.11395

 Excited State   3:      Singlet-A      2.2239 eV  557.50 nm  f=0.0567  <S**2>=0.000
     310 -> 314        0.61245
     312 -> 316       -0.33703

 Excited State   4:      Singlet-A      2.2261 eV  556.95 nm  f=0.0512  <S**2>=0.000
     309 -> 313        0.60134
     311 -> 315        0.35537

 Excited State   5:      Singlet-A      3.4877 eV  355.49 nm  f=0.0000  <S**2>=0.000
     312 -> 313        0.70685

 The electronic state is 1-A.
 Alpha  occ. eigenvalues --  -46.95026 -46.94250 -19.31325 -19.29034 -19.25583
 Alpha  occ. eigenvalues --  -19.24946 -19.24060 -19.23867 -19.23197 -19.22624
 Alpha  occ. eigenvalues --  -14.46717 -14.46680 -14.46223 -14.45585 -14.44593
 Alpha  occ. eigenvalues --  -14.43989 -14.43972 -14.43269 -10.44180 -10.42015
 Alpha  occ. eigenvalues --  -10.39916 -10.38970 -10.38625 -10.37459 -10.35301
 Alpha  occ. eigenvalues --  -10.35157 -10.35126 -10.34888 -10.34883 -10.34688
 Alpha  occ. eigenvalues --  -10.34578 -10.34559 -10.34389 -10.34288 -10.34243
 Alpha  occ. eigenvalues --  -10.34182 -10.33831 -10.33544 -10.33375 -10.33068
 Alpha  occ. eigenvalues --  -10.32865 -10.32855 -10.32628 -10.32613 -10.32513
 Alpha  occ. eigenvalues --  -10.32166 -10.32107 -10.31984 -10.31957 -10.31952
 Alpha  occ. eigenvalues --  -10.31945 -10.31942 -10.31941 -10.31838 -10.31823
 Alpha  occ. eigenvalues --  -10.31700 -10.31662 -10.31625 -10.31603 -10.31560
 Alpha  occ. eigenvalues --  -10.31454 -10.31324 -10.31286 -10.31275 -10.31021
 Alpha  occ. eigenvalues --  -10.30931 -10.30924 -10.30909 -10.30702 -10.30519
 Alpha  occ. eigenvalues --  -10.30378 -10.30297 -10.30147 -10.30120 -10.30110
 Alpha  occ. eigenvalues --  -10.29868 -10.29843 -10.29813 -10.29695 -10.29567
 Alpha  occ. eigenvalues --  -10.29434 -10.29418 -10.29203 -10.28971 -10.28956
 Alpha  occ. eigenvalues --  -10.27999  -3.21071  -3.20508  -1.94637  -1.94211
 Alpha  occ. eigenvalues --   -1.94070  -1.94039  -1.93653  -1.93519  -1.18204
 Alpha  occ. eigenvalues --   -1.16916  -1.14095  -1.13738  -1.11372  -1.11150
 Alpha  occ. eigenvalues --   -1.10492  -1.08014  -1.07586  -1.06787  -1.06696
 Alpha  occ. eigenvalues --   -1.06268  -1.06058  -1.04959  -1.04910  -1.04108
 Alpha  occ. eigenvalues --   -0.95065  -0.94248  -0.91556  -0.90976  -0.90876
 Alpha  occ. eigenvalues --   -0.90451  -0.90304  -0.89824  -0.89788  -0.89568
 Alpha  occ. eigenvalues --   -0.89336  -0.89050  -0.88432  -0.86931  -0.86501
 Alpha  occ. eigenvalues --   -0.86218  -0.86113  -0.85423  -0.84593  -0.84494
 Alpha  occ. eigenvalues --   -0.84438  -0.84424  -0.83022  -0.82927  -0.82833
 Alpha  occ. eigenvalues --   -0.82418  -0.80958  -0.79937  -0.79326  -0.79184
 Alpha  occ. eigenvalues --   -0.78822  -0.78335  -0.78256  -0.77550  -0.77084
 Alpha  occ. eigenvalues --   -0.77049  -0.74879  -0.74560  -0.74112  -0.73607
 Alpha  occ. eigenvalues --   -0.71511  -0.70952  -0.70909  -0.70610  -0.70150
 Alpha  occ. eigenvalues --   -0.70054  -0.69245  -0.68759  -0.67779  -0.67561
 Alpha  occ. eigenvalues --   -0.67264  -0.66869  -0.66858  -0.66688  -0.66485
 Alpha  occ. eigenvalues --   -0.65685  -0.64737  -0.63623  -0.63111  -0.62219
 Alpha  occ. eigenvalues --   -0.62050  -0.61230  -0.61201  -0.61095  -0.60889
 Alpha  occ. eigenvalues --   -0.60498  -0.59806  -0.59730  -0.59708  -0.59479
 Alpha  occ. eigenvalues --   -0.58278  -0.58212  -0.58066  -0.57270  -0.57168
 Alpha  occ. eigenvalues --   -0.57036  -0.56912  -0.56540  -0.56348  -0.55918
 Alpha  occ. eigenvalues --   -0.55518  -0.55458  -0.55082  -0.55053  -0.54964
 Alpha  occ. eigenvalues --   -0.54706  -0.54612  -0.54526  -0.54508  -0.54247
 Alpha  occ. eigenvalues --   -0.54133  -0.54129  -0.53731  -0.53547  -0.53133
 Alpha  occ. eigenvalues --   -0.52974  -0.52812  -0.52470  -0.52365  -0.52358
 Alpha  occ. eigenvalues --   -0.52091  -0.52075  -0.51755  -0.51594  -0.51441
 Alpha  occ. eigenvalues --   -0.51252  -0.51185  -0.51065  -0.50945  -0.50658
 Alpha  occ. eigenvalues --   -0.50637  -0.50439  -0.50246  -0.50015  -0.49955
 Alpha  occ. eigenvalues --   -0.49890  -0.49644  -0.49443  -0.49032  -0.49001
 Alpha  occ. eigenvalues --   -0.48695  -0.48519  -0.48497  -0.48376  -0.48300
 Alpha  occ. eigenvalues --   -0.48223  -0.48051  -0.47905  -0.47567  -0.47377
 Alpha  occ. eigenvalues --   -0.47351  -0.47292  -0.47091  -0.46703  -0.46389
 Alpha  occ. eigenvalues --   -0.46385  -0.46234  -0.46072  -0.46007  -0.45802
 Alpha  occ. eigenvalues --   -0.45736  -0.45709  -0.45548  -0.45462  -0.45260
 Alpha  occ. eigenvalues --   -0.45064  -0.45024  -0.44781  -0.44726  -0.44558
 Alpha  occ. eigenvalues --   -0.44379  -0.44320  -0.44092  -0.44002  -0.43888
 Alpha  occ. eigenvalues --   -0.43712  -0.43647  -0.43526  -0.43436  -0.43087
 Alpha  occ. eigenvalues --   -0.43026  -0.42926  -0.42775  -0.42617  -0.42616
 Alpha  occ. eigenvalues --   -0.42372  -0.42274  -0.41967  -0.41421  -0.41055
 Alpha  occ. eigenvalues --   -0.40858  -0.40332  -0.40041  -0.39945  -0.39509
 Alpha  occ. eigenvalues --   -0.39205  -0.38928  -0.38616  -0.38611  -0.38345
 Alpha  occ. eigenvalues --   -0.38244  -0.37054  -0.36855  -0.36713  -0.36287
 Alpha  occ. eigenvalues --   -0.35739  -0.35380  -0.34875  -0.34589  -0.33551
 Alpha  occ. eigenvalues --   -0.33364  -0.33191  -0.32960  -0.32873  -0.32324
 Alpha  occ. eigenvalues --   -0.32002  -0.31817  -0.31806  -0.26319  -0.25706
 Alpha  occ. eigenvalues --   -0.22800  -0.22375
 Alpha virt. eigenvalues --   -0.06655  -0.06113  -0.00328   0.00210   0.02351
 Alpha virt. eigenvalues --    0.02585   0.04605   0.04637   0.05195   0.05931
 Alpha virt. eigenvalues --    0.06338   0.07463   0.07682   0.08429   0.08565

 Mulliken charges:
               1
     1  Mg   0.957099
     2  C   -0.054910
     3  C   -0.098244
     4  C   -0.052782
     5  C   -0.093790
     6  N   -0.331663
     7  C   -0.023848
     8  C   -0.115048
     9  C   -0.115673
    10  C    0.039158
    11  C    0.060939
    12  C    0.025658
    13  C   -0.134407
    14  H    0.044348
    15  N   -0.518630
    16  C    0.210461
    17  C   -0.172945
    18  C   -0.106112
    19  C    0.151615
    20  C    0.083453
    21  C    0.062239
    22  O   -0.196995
    23  C   -0.021690
    24  N   -0.326794
    25  C    0.062419
    26  C   -0.102102
    27  C   -0.070129
    28  C    0.069940
    29  C    0.021038
    30  C   -0.022567
    31  C   -0.034806
    32  N   -0.428976
    33  C    0.127497
    34  C   -0.206473
    35  C   -0.016926
    36  C    0.193054
    37  C    0.097399
    38  C    0.099040
    39  O   -0.221041
    40  C   -0.022089
    41  C    0.288757
    42  O   -0.244232
    43  O   -0.362714
    44  C    0.139844
    45  H    0.001287
    46  H   -0.029077
    47  H   -0.001238
    48  H    0.017095
    49  H    0.023257
    50  H    0.042676
    51  H    0.038658
    52  H    0.055290
    53  H    0.032349
    54  H    0.056060
    55  H    0.048009
    56  H    0.057924
    57  H    0.055993
    58  H    0.011523
    59  H    0.051479
    60  H    0.071226
    61  H    0.042084
    62  H    0.069555
    63  H    0.033718
    64  H    0.024302
    65  H    0.046160
    66  H    0.041402
    67  H    0.029798
    68  H    0.044499
    69  H    0.016576
    70  H    0.044337
    71  H    0.026097
    72  H    0.041960
    73  H    0.037080
    74  H    0.058359
    75  H    0.065939
    76  H    0.060634
    77  H    0.042296
    78  H    0.050169
    79  H    0.054150
    80  Mg   0.992814
    81  C    0.010833
    82  C   -0.117679
    83  C   -0.081046
    84  C   -0.117015
    85  N   -0.330666
    86  C   -0.016668
    87  C   -0.037154
    88  C   -0.154006
    89  C    0.076262
    90  C    0.047334
    91  C    0.007319
    92  C   -0.126586
    93  H    0.027591
    94  N   -0.509657
    95  C    0.180161
    96  C   -0.131518
    97  C   -0.119624
    98  C    0.182710
    99  C    0.046423
   100  C    0.071606
   101  O   -0.201946
   102  C   -0.025134
   103  N   -0.321308
   104  C    0.020865
   105  C   -0.085979
   106  C   -0.050115
   107  C   -0.008268
   108  C    0.024223
   109  C   -0.010709
   110  C   -0.046762
   111  N   -0.398823
   112  C    0.159793
   113  C   -0.187110
   114  C    0.034831
   115  C    0.091571
   116  C    0.104739
   117  C    0.050677
   118  O   -0.214333
   119  C   -0.074597
   120  C    0.264622
   121  O   -0.268268
   122  O   -0.355759
   123  C    0.151660
   124  H   -0.008455
   125  H    0.016385
   126  H   -0.010694
   127  H    0.043341
   128  H    0.031889
   129  H    0.045607
   130  H    0.038521
   131  H    0.046522
   132  H    0.033124
   133  H    0.040931
   134  H    0.049349
   135  H    0.062461
   136  H    0.060533
   137  H    0.029512
   138  H    0.066501
   139  H    0.061443
   140  H    0.069380
   141  H    0.047916
   142  H    0.034986
   143  H    0.029100
   144  H    0.038298
   145  H    0.025842
   146  H    0.050140
   147  H    0.032168
   148  H    0.032240
   149  H    0.028594
   150  H    0.041073
   151  H    0.043849
   152  H    0.059293
   153  H    0.063929
   154  H    0.019593
   155  H    0.072801
   156  H    0.061562
   157  H    0.056757
   158  H    0.030209
 Sum of Mulliken charges =  -0.00000

 Dipole moment (field-independent basis, Debye):
    X=             -0.9251    Y=              4.0169    Z=              1.4634  Tot=              4.3741
 Quadrupole moment (field-independent basis, Debye-Ang):
   XX=           -470.8427   YY=           -509.8628   ZZ=           -496.5255
   XY=             28.7022   XZ=             26.6215   YZ=             50.1069

 Normal termination of Gaussian 16 at Mon Sep 20 15:18:38 2021.
