 Gaussian 16, Revision A.03,
 Gaussian 16:  ES64L-G16RevA.03 25-Dec-2016

 --------------------------------
 #p wB97XD/Def2SVP td=(nstates=5)
 --------------------------------

 --------------------------------
 TDDFT excited states in gaussian
 --------------------------------
 Symbolic Z-matrix:
 Charge =  0 Multiplicity = 1

                         Standard orientation:
 ---------------------------------------------------------------------
 Center     Atomic      Atomic             Coordinates (Angstroms)
 Number     Number       Type             X           Y           Z
 ---------------------------------------------------------------------
      1         12           0       24.681928   -0.647640    0.494519
      2          6           0       25.190904    2.069425   -1.779401
      3          6           0       25.401932    1.528356    3.022305
      4          6           0       24.684543   -3.122181    2.477764
      5          6           0       25.121175   -2.800306   -2.210800
      6          7           0       25.211782    1.501755    0.494938
      7          6           0       25.314766    2.442056   -0.439084
      8          6           0       25.491815    3.875757    0.144465
      9          6           0       26.103016    3.494863    1.566910
     10          6           0       25.509353    2.105856    1.722310
     11          6           0       27.624093    3.381621    1.565909
     12          6           0       24.127891    4.630804    0.290568
     13          6           0       24.238743    6.137470    0.541611
     14          1           0       23.243091    7.020565   -0.046750
     15          7           0       24.516790   -0.712767    2.462091
     16          6           0       24.840930    0.271229    3.335001
     17          6           0       24.537032   -0.261266    4.680651
     18          6           0       24.188953   -1.701702    4.532062
     19          6           0       24.478678   -1.912417    3.136699
     20          6           0       24.545986    0.580194    5.919851
     21          6           0       23.686498   -2.728394    5.497243
     22          8           0       23.669974   -3.975535    5.216281
     23          6           0       23.291585   -2.238989    6.830497
     24          7           0       25.091396   -2.677644    0.231734
     25          6           0       24.962027   -3.544160    1.242376
     26          6           0       25.029795   -4.962131    0.757913
     27          6           0       24.989586   -4.886901   -0.836602
     28          6           0       24.987851   -3.346935   -1.000226
     29          6           0       26.262784   -5.762251    1.200133
     30          6           0       23.885714   -5.705841   -1.551600
     31          6           0       22.526994   -5.122788   -1.233753
     32          7           0       24.908814   -0.437531   -1.653834
     33          6           0       25.101059   -1.467402   -2.586080
     34          6           0       25.309680   -0.828654   -3.898538
     35          6           0       25.240349    0.537761   -3.634060
     36          6           0       25.029598    0.740298   -2.240197
     37          6           0       25.585967   -1.504463   -5.119759
     38          6           0       25.319854    1.874281   -4.200848
     39          8           0       25.392180    2.328709   -5.343546
     40          6           0       25.412680    2.921172   -3.004508
     41          6           0       24.424665    4.020507   -3.284864
     42          8           0       23.197063    3.796634   -3.269382
     43          8           0       25.062907    5.200823   -3.291365
     44          6           0       24.134685    6.337172   -3.534817
     45          1           0       25.838443    2.056582    3.872232
     46          1           0       24.583089   -4.007665    3.108687
     47          1           0       25.180255   -3.409964   -3.114282
     48          1           0       26.191193    4.506683   -0.404378
     49          1           0       25.739012    4.152954    2.355669
     50          1           0       28.028386    3.454887    0.556404
     51          1           0       27.843394    2.403174    1.993743
     52          1           0       28.067291    4.111331    2.244051
     53          1           0       23.644371    4.323306    1.217776
     54          1           0       23.494947    4.455996   -0.580151
     55          1           0       25.244560    6.503310    0.333282
     56          1           0       24.100569    6.317140    1.607832
     57          1           0       24.999284    1.554100    5.739364
     58          1           0       25.216816    0.095567    6.628957
     59          1           0       23.552723    0.674564    6.359004
     60          1           0       24.145291   -1.752345    7.302634
     61          1           0       22.874570   -3.098088    7.354804
     62          1           0       22.527277   -1.470338    6.712349
     63          1           0       24.174270   -5.537008    1.110076
     64          1           0       25.917255   -5.241653   -1.286329
     65          1           0       26.020033   -6.679428    1.737312
     66          1           0       26.889344   -5.108343    1.806036
     67          1           0       26.945762   -6.031675    0.394920
     68          1           0       23.884949   -6.734781   -1.193511
     69          1           0       24.002728   -5.731830   -2.635059
     70          1           0       22.284557   -5.579171   -0.274706
     71          1           0       21.802286   -5.409076   -1.996674
     72          1           0       22.582894   -4.045380   -1.077058
     73          1           0       24.971434   -1.023210   -5.880492
     74          1           0       25.361094   -2.568044   -5.043402
     75          1           0       26.653473   -1.309610   -5.221341
     76          1           0       26.438686    3.287421   -2.987366
     77          1           0       24.515384    6.883344   -4.397950
     78          1           0       24.051187    6.876701   -2.591238
     79          1           0       23.134008    6.076469   -3.881254
     80         12           0      -24.266343   -0.689523   -0.170178
     81          6           0      -25.721415    1.928202    1.618231
     82          6           0      -22.780097    1.505984   -2.182067
     83          6           0      -24.058638   -3.168246   -2.514936
     84          6           0      -25.883897   -2.948748    1.931178
     85          7           0      -24.121902    1.503997   -0.164733
     86          6           0      -24.772756    2.325066    0.650391
     87          6           0      -24.286465    3.796185    0.387567
     88          6           0      -23.440050    3.634261   -0.897768
     89          6           0      -23.449731    2.127003   -1.134350
     90          6           0      -24.095996    4.308581   -2.202974
     91          6           0      -23.444483    4.456395    1.571847
     92          6           0      -23.814665    5.881277    1.803331
     93          1           0      -22.723841    6.939842    1.856082
     94          7           0      -23.496935   -0.801302   -2.070890
     95          6           0      -22.889881    0.229333   -2.738327
     96          6           0      -22.185597   -0.318943   -3.905768
     97          6           0      -22.568717   -1.686565   -3.991492
     98          6           0      -23.459597   -1.911352   -2.841012
     99          6           0      -21.324982    0.555590   -4.872500
    100          6           0      -22.212998   -2.730433   -5.092676
    101          8           0      -22.587232   -3.897766   -5.081138
    102          6           0      -21.345736   -2.291628   -6.211408
    103          7           0      -24.884137   -2.687086   -0.301717
    104          6           0      -24.759138   -3.542015   -1.400898
    105          6           0      -25.564920   -4.841749   -1.141422
    106          6           0      -25.554339   -4.953466    0.446103
    107          6           0      -25.416078   -3.423278    0.685943
    108          6           0      -26.953276   -4.842808   -1.816560
    109          6           0      -24.418087   -5.709269    1.074342
    110          6           0      -23.063659   -5.083930    1.229547
    111          7           0      -25.380564   -0.623232    1.567565
    112          6           0      -26.010857   -1.602561    2.299885
    113          6           0      -26.744098   -1.048613    3.440433
    114          6           0      -26.751761    0.392705    3.165783
    115          6           0      -25.906715    0.564029    2.000952
    116          6           0      -27.499150   -1.790411    4.420064
    117          6           0      -27.260900    1.691341    3.589617
    118          8           0      -28.024302    2.011172    4.421818
    119          6           0      -26.528199    2.760525    2.623115
    120          6           0      -27.452750    3.785633    2.016554
    121          8           0      -28.008610    3.681445    0.927132
    122          8           0      -27.488087    4.900902    2.852961
    123          6           0      -28.314881    6.045477    2.429334
    124          1           0      -22.083075    2.053433   -2.820531
    125          1           0      -23.970539   -3.905237   -3.316368
    126          1           0      -26.282272   -3.710985    2.603498
    127          1           0      -25.111558    4.463116    0.136274
    128          1           0      -22.432667    4.049475   -0.868727
    129          1           0      -23.692391    5.319093   -2.269915
    130          1           0      -25.176890    4.441768   -2.166008
    131          1           0      -23.775106    3.733247   -3.072166
    132          1           0      -22.373894    4.432122    1.367820
    133          1           0      -23.510349    3.949605    2.534721
    134          1           0      -24.217114    5.867327    2.815850
    135          1           0      -24.585469    6.318695    1.169421
    136          1           0      -22.011810    0.902427   -5.644048
    137          1           0      -20.464791    0.005210   -5.254385
    138          1           0      -21.049364    1.528772   -4.464843
    139          1           0      -21.465224   -1.314385   -6.678926
    140          1           0      -21.415159   -3.007208   -7.030317
    141          1           0      -20.305997   -2.504913   -5.961668
    142          1           0      -24.925385   -5.620231   -1.556437
    143          1           0      -26.478755   -5.377752    0.837536
    144          1           0      -27.809512   -5.043231   -1.172488
    145          1           0      -26.986998   -5.412028   -2.745783
    146          1           0      -27.174973   -3.849644   -2.206769
    147          1           0      -24.184889   -6.654498    0.585667
    148          1           0      -24.729408   -5.995725    2.078996
    149          1           0      -23.102972   -4.702436    2.249693
    150          1           0      -22.855122   -4.231305    0.582922
    151          1           0      -22.298261   -5.852456    1.116939
    152          1           0      -27.373284   -1.251382    5.359231
    153          1           0      -27.033746   -2.771953    4.506429
    154          1           0      -28.552556   -1.816354    4.142955
    155          1           0      -25.810887    3.303044    3.238954
    156          1           0      -29.310596    5.655080    2.217269
    157          1           0      -27.932424    6.479663    1.505960
    158          1           0      -28.431526    6.901188    3.094562
 ---------------------------------------------------------------------

 SCF Done:  E(RwB97XD) =  -4070.62203271     A.U. after   19 cycles

 Excitation energies and oscillator strengths:

 Excited State   1:      Singlet-A      1.6216 eV  764.59 nm  f=0.3072  <S**2>=0.000
     309 -> 315        0.18056
     311 -> 313        0.67864
     309 <- 315        0.11377
 This state for optimization and/or second-order correction.
 Total Energy, E(TD-HF/TD-DFT) =  -4070.56244051
 Copying the excited state density for this state as the 1-particle RhoCI density.

 Excited State   2:      Singlet-A      1.6238 eV  763.52 nm  f=0.4559  <S**2>=0.000
     310 -> 316       -0.18138
     312 -> 314        0.67954
     310 <- 316       -0.11672

 Excited State   3:      Singlet-A      2.1386 eV  579.75 nm  f=0.0953  <S**2>=0.000
     309 -> 313        0.63835
     311 -> 315       -0.28193

 Excited State   4:      Singlet-A      2.2000 eV  563.57 nm  f=0.1020  <S**2>=0.000
     310 -> 314        0.63106
     312 -> 316        0.30781

 Excited State   5:      Singlet-A      3.3014 eV  375.55 nm  f=0.0077  <S**2>=0.000
     307 -> 313       -0.44227
     308 -> 313        0.48819
     311 -> 315       -0.17036

 The electronic state is 1-A.
 Alpha  occ. eigenvalues --  -46.94255 -46.94125 -19.31498 -19.30267 -19.25045
 Alpha  occ. eigenvalues --  -19.24751 -19.24175 -19.23991 -19.23885 -19.23222
 Alpha  occ. eigenvalues --  -14.47042 -14.46757 -14.46049 -14.46019 -14.44019
 Alpha  occ. eigenvalues --  -14.43903 -14.43791 -14.43159 -10.43556 -10.42936
 Alpha  occ. eigenvalues --  -10.39586 -10.39546 -10.39430 -10.38410 -10.35545
 Alpha  occ. eigenvalues --  -10.35451 -10.35431 -10.35361 -10.34907 -10.34609
 Alpha  occ. eigenvalues --  -10.34609 -10.34556 -10.34543 -10.34194 -10.34016
 Alpha  occ. eigenvalues --  -10.33894 -10.33874 -10.33827 -10.33799 -10.33527
 Alpha  occ. eigenvalues --  -10.33371 -10.33243 -10.32905 -10.32842 -10.32813
 Alpha  occ. eigenvalues --  -10.32466 -10.32461 -10.32372 -10.32352 -10.32331
 Alpha  occ. eigenvalues --  -10.32227 -10.32145 -10.31929 -10.31866 -10.31788
 Alpha  occ. eigenvalues --  -10.31709 -10.31700 -10.31606 -10.31548 -10.31510
 Alpha  occ. eigenvalues --  -10.31472 -10.31461 -10.31427 -10.31188 -10.31140
 Alpha  occ. eigenvalues --  -10.30818 -10.30732 -10.30633 -10.30275 -10.30182
 Alpha  occ. eigenvalues --  -10.30152 -10.30081 -10.30069 -10.29991 -10.29974
 Alpha  occ. eigenvalues --  -10.29789 -10.29677 -10.29654 -10.29470 -10.29374
 Alpha  occ. eigenvalues --  -10.29364 -10.29273 -10.28866 -10.28804 -10.28475
 Alpha  occ. eigenvalues --  -10.28355  -3.20376  -3.20285  -1.93973  -1.93861
 Alpha  occ. eigenvalues --   -1.93478  -1.93428  -1.93379  -1.93265  -1.18821
 Alpha  occ. eigenvalues --   -1.17331  -1.15224  -1.12338  -1.10850  -1.09662
 Alpha  occ. eigenvalues --   -1.09431  -1.08834  -1.07164  -1.06567  -1.05768
 Alpha  occ. eigenvalues --   -1.05566  -1.05256  -1.04890  -1.04435  -1.04172
 Alpha  occ. eigenvalues --   -0.93925  -0.93851  -0.91409  -0.91046  -0.90885
 Alpha  occ. eigenvalues --   -0.90463  -0.90167  -0.89940  -0.89787  -0.89588
 Alpha  occ. eigenvalues --   -0.89227  -0.89136  -0.88813  -0.88207  -0.86874
 Alpha  occ. eigenvalues --   -0.86052  -0.85812  -0.85484  -0.84894  -0.84558
 Alpha  occ. eigenvalues --   -0.84443  -0.83758  -0.83519  -0.82949  -0.82551
 Alpha  occ. eigenvalues --   -0.82326  -0.80768  -0.80184  -0.79161  -0.79138
 Alpha  occ. eigenvalues --   -0.78845  -0.78675  -0.77852  -0.77755  -0.76809
 Alpha  occ. eigenvalues --   -0.76781  -0.74748  -0.74248  -0.73626  -0.73428
 Alpha  occ. eigenvalues --   -0.71794  -0.71134  -0.70828  -0.70502  -0.69677
 Alpha  occ. eigenvalues --   -0.69643  -0.69170  -0.68695  -0.67634  -0.67217
 Alpha  occ. eigenvalues --   -0.66835  -0.66610  -0.66590  -0.66237  -0.66221
 Alpha  occ. eigenvalues --   -0.66029  -0.64276  -0.63802  -0.62433  -0.62128
 Alpha  occ. eigenvalues --   -0.61755  -0.61541  -0.60968  -0.60872  -0.60489
 Alpha  occ. eigenvalues --   -0.60095  -0.59750  -0.59543  -0.59265  -0.59205
 Alpha  occ. eigenvalues --   -0.58290  -0.57855  -0.57785  -0.57491  -0.57475
 Alpha  occ. eigenvalues --   -0.57294  -0.57258  -0.56751  -0.56464  -0.56049
 Alpha  occ. eigenvalues --   -0.55810  -0.55515  -0.55306  -0.55239  -0.55160
 Alpha  occ. eigenvalues --   -0.54872  -0.54858  -0.54676  -0.54422  -0.54318
 Alpha  occ. eigenvalues --   -0.54085  -0.53831  -0.53694  -0.53545  -0.53526
 Alpha  occ. eigenvalues --   -0.53304  -0.53201  -0.53126  -0.52531  -0.52326
 Alpha  occ. eigenvalues --   -0.52117  -0.52004  -0.51938  -0.51875  -0.51544
 Alpha  occ. eigenvalues --   -0.51445  -0.51426  -0.51167  -0.51039  -0.51012
 Alpha  occ. eigenvalues --   -0.50519  -0.50510  -0.50418  -0.50379  -0.50223
 Alpha  occ. eigenvalues --   -0.49894  -0.49720  -0.49616  -0.49238  -0.48886
 Alpha  occ. eigenvalues --   -0.48766  -0.48692  -0.48505  -0.48472  -0.48309
 Alpha  occ. eigenvalues --   -0.48180  -0.48099  -0.48035  -0.47741  -0.47732
 Alpha  occ. eigenvalues --   -0.47416  -0.47126  -0.47101  -0.46865  -0.46545
 Alpha  occ. eigenvalues --   -0.46499  -0.46411  -0.46270  -0.46089  -0.46048
 Alpha  occ. eigenvalues --   -0.45992  -0.45936  -0.45648  -0.45375  -0.45321
 Alpha  occ. eigenvalues --   -0.45254  -0.45193  -0.44959  -0.44705  -0.44655
 Alpha  occ. eigenvalues --   -0.44585  -0.44558  -0.43912  -0.43780  -0.43707
 Alpha  occ. eigenvalues --   -0.43508  -0.43437  -0.43425  -0.43352  -0.43078
 Alpha  occ. eigenvalues --   -0.43026  -0.42858  -0.42737  -0.42449  -0.42374
 Alpha  occ. eigenvalues --   -0.42120  -0.42109  -0.41380  -0.41032  -0.40588
 Alpha  occ. eigenvalues --   -0.40358  -0.39951  -0.39686  -0.39596  -0.39354
 Alpha  occ. eigenvalues --   -0.39187  -0.38938  -0.38709  -0.38646  -0.38591
 Alpha  occ. eigenvalues --   -0.38185  -0.37834  -0.36419  -0.36283  -0.36271
 Alpha  occ. eigenvalues --   -0.35779  -0.35343  -0.35058  -0.33393  -0.33354
 Alpha  occ. eigenvalues --   -0.33271  -0.33184  -0.33123  -0.32180  -0.32001
 Alpha  occ. eigenvalues --   -0.31760  -0.31616  -0.31479  -0.26003  -0.25899
 Alpha  occ. eigenvalues --   -0.22922  -0.22578
 Alpha virt. eigenvalues --   -0.07104  -0.06805   0.00181   0.00544   0.01985
 Alpha virt. eigenvalues --    0.02490   0.04312   0.04546   0.05918   0.06266
 Alpha virt. eigenvalues --    0.06735   0.07103   0.07257   0.08081   0.08812

 Mulliken charges:
               1
     1  Mg   0.978438
     2  C   -0.019906
     3  C   -0.101323
     4  C   -0.061275
     5  C   -0.070981
     6  N   -0.323180
     7  C   -0.008780
     8  C   -0.058122
     9  C   -0.138179
    10  C    0.061964
    11  C    0.058288
    12  C    0.014132
    13  C   -0.126941
    14  H    0.052356
    15  N   -0.518397
    16  C    0.183473
    17  C   -0.195999
    18  C   -0.037039
    19  C    0.166713
    20  C    0.060858
    21  C    0.056702
    22  O   -0.280033
    23  C    0.001668
    24  N   -0.410068
    25  C    0.066090
    26  C   -0.084902
    27  C   -0.063844
    28  C    0.089681
    29  C    0.031881
    30  C   -0.016686
    31  C   -0.058154
    32  N   -0.398766
    33  C    0.097188
    34  C   -0.187951
    35  C   -0.040105
    36  C    0.126360
    37  C    0.081466
    38  C    0.128840
    39  O   -0.224747
    40  C   -0.076840
    41  C    0.275731
    42  O   -0.284562
    43  O   -0.335595
    44  C    0.120598
    45  H    0.007901
    46  H    0.010686
    47  H   -0.017353
    48  H    0.026016
    49  H    0.022613
    50  H    0.047118
    51  H    0.037802
    52  H    0.040093
    53  H    0.035366
    54  H    0.067676
    55  H    0.038959
    56  H    0.040609
    57  H    0.029639
    58  H    0.048972
    59  H    0.062090
    60  H    0.057849
    61  H    0.061842
    62  H    0.053033
    63  H    0.042930
    64  H    0.035675
    65  H    0.045324
    66  H    0.034329
    67  H    0.025721
    68  H    0.032619
    69  H    0.029412
    70  H    0.029216
    71  H    0.042193
    72  H    0.049649
    73  H    0.070894
    74  H    0.031399
    75  H    0.069418
    76  H    0.065884
    77  H    0.061289
    78  H    0.062815
    79  H    0.070273
    80  Mg   0.983747
    81  C    0.016767
    82  C   -0.089928
    83  C   -0.082462
    84  C   -0.106106
    85  N   -0.316757
    86  C    0.009665
    87  C   -0.040596
    88  C   -0.128953
    89  C    0.104158
    90  C   -0.004713
    91  C    0.028182
    92  C   -0.147886
    93  H    0.026102
    94  N   -0.453038
    95  C    0.111606
    96  C   -0.155575
    97  C   -0.103389
    98  C    0.123652
    99  C    0.045679
   100  C    0.084775
   101  O   -0.233051
   102  C   -0.023381
   103  N   -0.364529
   104  C    0.051621
   105  C   -0.053172
   106  C   -0.060022
   107  C    0.046872
   108  C    0.044661
   109  C   -0.025417
   110  C   -0.034985
   111  N   -0.448187
   112  C    0.163715
   113  C   -0.168930
   114  C   -0.084423
   115  C    0.117478
   116  C    0.076999
   117  C    0.137642
   118  O   -0.142225
   119  C   -0.139023
   120  C    0.283447
   121  O   -0.249114
   122  O   -0.383355
   123  C    0.147016
   124  H   -0.013071
   125  H    0.021602
   126  H   -0.009736
   127  H    0.042999
   128  H    0.044056
   129  H    0.031215
   130  H    0.051234
   131  H    0.038063
   132  H    0.037913
   133  H    0.036967
   134  H    0.053927
   135  H    0.051457
   136  H    0.057707
   137  H    0.063602
   138  H    0.032727
   139  H    0.059350
   140  H    0.038683
   141  H    0.062596
   142  H    0.024383
   143  H    0.023862
   144  H    0.039142
   145  H    0.044482
   146  H    0.032103
   147  H    0.026718
   148  H    0.023439
   149  H    0.026961
   150  H    0.051712
   151  H    0.040163
   152  H    0.057372
   153  H    0.036665
   154  H    0.074598
   155  H    0.075964
   156  H    0.054256
   157  H    0.040555
   158  H    0.061765
 Sum of Mulliken charges =  -0.00000

 Dipole moment (field-independent basis, Debye):
    X=              4.9317    Y=              2.3636    Z=              3.4187  Tot=              6.4495
 Quadrupole moment (field-independent basis, Debye-Ang):
   XX=           -587.7047   YY=           -464.4640   ZZ=           -520.3266
   XY=             15.4120   XZ=            121.1083   YZ=             12.3864

 Normal termination of Gaussian 16 at Sun Sep 19 07:50:08 2021.
