 Gaussian 16, Revision A.03,
 Gaussian 16:  ES64L-G16RevA.03 25-Dec-2016

 --------------------------------
 #p wB97XD/Def2SVP td=(nstates=5)
 --------------------------------

 --------------------------------
 TDDFT excited states in gaussian
 --------------------------------
 Symbolic Z-matrix:
 Charge =  0 Multiplicity = 1

                         Standard orientation:
 ---------------------------------------------------------------------
 Center     Atomic      Atomic             Coordinates (Angstroms)
 Number     Number       Type             X           Y           Z
 ---------------------------------------------------------------------
      1         12           0       18.368821   -0.131544    0.020781
      2          6           0       15.058366   -0.982119   -0.857734
      3          6           0       18.431411    2.129734   -2.634475
      4          6           0       21.063890    1.342089    1.497057
      5          6           0       17.877768   -2.112760    2.964165
      6          7           0       16.938530    0.444462   -1.539027
      7          6           0       15.671722    0.000928   -1.683238
      8          6           0       14.931726    0.774906   -2.822337
      9          6           0       16.176516    1.452246   -3.560183
     10          6           0       17.331260    1.321239   -2.514957
     11          6           0       16.715196    0.881560   -4.891669
     12          6           0       13.924514    1.797463   -2.172623
     13          6           0       12.602178    1.976778   -2.968832
     14          1           0       12.054965    3.459349   -3.059349
     15          7           0       19.742783    1.419016   -0.602896
     16          6           0       19.576145    2.156406   -1.745041
     17          6           0       20.693847    3.016868   -1.837496
     18          6           0       21.469005    2.899718   -0.645633
     19          6           0       20.810309    1.810870    0.150898
     20          6           0       20.957762    3.974083   -2.975712
     21          6           0       22.590483    3.783507   -0.217332
     22          8           0       22.915082    4.770630   -0.857620
     23          6           0       23.349172    3.621527    0.995508
     24          7           0       19.257171   -0.311159    2.047209
     25          6           0       20.485078    0.318063    2.300101
     26          6           0       21.074440   -0.175178    3.584492
     27          6           0       20.042708   -1.238070    4.115270
     28          6           0       18.996394   -1.243729    3.014169
     29          6           0       22.475421   -0.735611    3.308035
     30          6           0       19.616034   -1.014026    5.614869
     31          6           0       19.846378   -2.152348    6.562053
     32          7           0       16.803335   -1.372086    0.918044
     33          6           0       16.807477   -2.126506    2.065552
     34          6           0       15.589879   -2.963807    2.137087
     35          6           0       14.874784   -2.460313    1.018162
     36          6           0       15.672390   -1.593743    0.294561
     37          6           0       15.138241   -3.924931    3.225499
     38          6           0       13.577836   -2.487657    0.395788
     39          8           0       12.546014   -3.089576    0.731786
     40          6           0       13.599911   -1.583192   -0.836130
     41          6           0       13.207935   -2.323195   -2.050155
     42          8           0       12.285846   -2.010489   -2.712387
     43          8           0       14.117659   -3.265167   -2.434956
     44          6           0       13.799335   -3.779755   -3.784541
     45          1           0       18.515569    2.790253   -3.500505
     46          1           0       21.986272    1.793345    1.866040
     47          1           0       17.535742   -2.730293    3.797987
     48          1           0       14.404739    0.046144   -3.438450
     49          1           0       16.170318    2.541971   -3.577366
     50          1           0       16.480530   -0.180470   -4.971832
     51          1           0       17.779476    1.019072   -5.082981
     52          1           0       16.155778    1.390731   -5.675736
     53          1           0       14.405492    2.761716   -2.005933
     54          1           0       13.705755    1.376731   -1.191132
     55          1           0       11.897663    1.344133   -2.428621
     56          1           0       12.833924    1.504676   -3.923821
     57          1           0       21.991155    4.294730   -3.108186
     58          1           0       20.323218    4.827668   -2.738817
     59          1           0       20.504024    3.727725   -3.935696
     60          1           0       23.835243    2.647029    0.933626
     61          1           0       22.713111    3.723586    1.875244
     62          1           0       24.100433    4.410104    1.039565
     63          1           0       21.053308    0.608134    4.341793
     64          1           0       20.292445   -2.291720    3.988630
     65          1           0       22.871955   -0.444043    2.335184
     66          1           0       22.481823   -1.825591    3.310056
     67          1           0       23.199809   -0.234062    3.949073
     68          1           0       18.555005   -0.770197    5.561206
     69          1           0       20.189997   -0.242905    6.127419
     70          1           0       18.890461   -2.371183    7.037143
     71          1           0       20.533701   -1.881010    7.363558
     72          1           0       20.335057   -3.007677    6.095364
     73          1           0       14.653367   -3.418135    4.060106
     74          1           0       15.934504   -4.582463    3.576642
     75          1           0       14.339249   -4.456465    2.708748
     76          1           0       12.812768   -0.834725   -0.754572
     77          1           0       14.553735   -4.524156   -4.040525
     78          1           0       13.792648   -2.970096   -4.514141
     79          1           0       12.880251   -4.362288   -3.837932
     80         12           0      -18.118905    0.400872    0.448096
     81          6           0      -15.091816   -0.760151   -0.868493
     82          6           0      -19.399934   -2.762875    0.274092
     83          6           0      -21.047375    1.631890    1.369970
     84          6           0      -16.716770    3.688375    0.395493
     85          7           0      -17.315166   -1.532555   -0.278294
     86          6           0      -16.042620   -1.828840   -0.713653
     87          6           0      -15.841852   -3.331297   -0.786262
     88          6           0      -17.315816   -3.891391   -0.688255
     89          6           0      -18.031920   -2.628218   -0.099749
     90          6           0      -17.898819   -4.315095   -2.030381
     91          6           0      -14.765353   -3.780844    0.267746
     92          6           0      -14.649638   -5.323652    0.412915
     93          1           0      -14.964601   -6.147945   -0.818054
     94          7           0      -19.900060   -0.424411    0.781098
     95          6           0      -20.290328   -1.739081    0.559377
     96          6           0      -21.723241   -1.937489    0.839699
     97          6           0      -22.179673   -0.632387    1.200342
     98          6           0      -21.021920    0.253871    1.114850
     99          6           0      -22.388284   -3.261262    0.775902
    100          6           0      -23.590017   -0.257731    1.576545
    101          8           0      -23.898837    0.914879    1.927144
    102          6           0      -24.684763   -1.288684    1.628903
    103          7           0      -18.768865    2.398407    0.885145
    104          6           0      -20.039537    2.585719    1.242687
    105          6           0      -20.353398    4.140574    1.377006
    106          6           0      -18.923579    4.831744    1.012527
    107          6           0      -18.087293    3.582227    0.733141
    108          6           0      -21.533910    4.502523    0.385400
    109          6           0      -18.270138    5.657295    2.201910
    110          6           0      -18.728664    7.138328    2.330517
    111          7           0      -16.361015    1.332378   -0.154111
    112          6           0      -15.859919    2.654142   -0.019665
    113          6           0      -14.407443    2.700061   -0.492387
    114          6           0      -14.083495    1.410623   -0.902159
    115          6           0      -15.289669    0.599674   -0.596582
    116          6           0      -13.475975    3.871451   -0.481490
    117          6           0      -13.050814    0.537377   -1.408810
    118          8           0      -11.884896    0.747900   -1.757679
    119          6           0      -13.602708   -0.964201   -1.239051
    120          6           0      -13.402159   -1.804928   -2.479125
    121          8           0      -14.175401   -1.844089   -3.397733
    122          8           0      -12.326350   -2.706555   -2.315098
    123          6           0      -12.281848   -3.872212   -3.210634
    124          1           0      -19.674240   -3.807874    0.113110
    125          1           0      -22.020623    2.034378    1.659031
    126          1           0      -16.262522    4.671493    0.254824
    127          1           0      -15.419232   -3.556840   -1.764528
    128          1           0      -17.465419   -4.700838    0.026979
    129          1           0      -18.189411   -5.358277   -1.907089
    130          1           0      -17.162957   -4.106920   -2.806746
    131          1           0      -18.870531   -3.863958   -2.229840
    132          1           0      -15.005695   -3.129108    1.107155
    133          1           0      -13.819331   -3.391623   -0.107119
    134          1           0      -15.341006   -5.545046    1.226042
    135          1           0      -13.627317   -5.557371    0.709784
    136          1           0      -23.099422   -3.124820   -0.038636
    137          1           0      -22.845918   -3.559148    1.718888
    138          1           0      -21.809530   -4.139128    0.485838
    139          1           0      -24.448128   -2.015554    2.404714
    140          1           0      -24.618564   -1.641206    0.598855
    141          1           0      -25.698995   -0.913372    1.762353
    142          1           0      -20.583089    4.193020    2.441952
    143          1           0      -18.833605    5.321535    0.042003
    144          1           0      -21.895515    3.665892   -0.212176
    145          1           0      -21.205268    5.269851   -0.316043
    146          1           0      -22.370214    4.786861    1.023347
    147          1           0      -17.190934    5.518049    2.258612
    148          1           0      -18.618772    5.177346    3.115777
    149          1           0      -19.105064    7.260770    3.345496
    150          1           0      -19.450111    7.346252    1.540232
    151          1           0      -17.899788    7.835615    2.206328
    152          1           0      -12.764726    3.683995    0.323220
    153          1           0      -14.033501    4.795750   -0.325279
    154          1           0      -12.853773    4.035093   -1.361122
    155          1           0      -13.072417   -1.382632   -0.384084
    156          1           0      -11.890322   -3.484212   -4.150611
    157          1           0      -13.248834   -4.374795   -3.239892
    158          1           0      -11.602006   -4.584902   -2.744510
 ---------------------------------------------------------------------

 SCF Done:  E(RwB97XD) =  -4070.59747370     A.U. after   20 cycles

 Excitation energies and oscillator strengths:

 Excited State   1:      Singlet-A      1.6192 eV  765.69 nm  f=0.4221  <S**2>=0.000
     309 -> 315        0.17883
     311 -> 313        0.68454
     309 <- 315        0.11643
 This state for optimization and/or second-order correction.
 Total Energy, E(TD-HF/TD-DFT) =  -4070.53796756
 Copying the excited state density for this state as the 1-particle RhoCI density.

 Excited State   2:      Singlet-A      1.6548 eV  749.22 nm  f=0.3682  <S**2>=0.000
     310 -> 316        0.20541
     312 -> 314        0.67790
     310 <- 316        0.12140

 Excited State   3:      Singlet-A      2.1451 eV  578.00 nm  f=0.1102  <S**2>=0.000
     309 -> 313        0.63991
     311 -> 315       -0.28452

 Excited State   4:      Singlet-A      2.2347 eV  554.83 nm  f=0.0335  <S**2>=0.000
     310 -> 314        0.58750
     312 -> 316       -0.38607

 Excited State   5:      Singlet-A      3.5230 eV  351.93 nm  f=0.0000  <S**2>=0.000
     312 -> 313        0.70708

 The electronic state is 1-A.
 Alpha  occ. eigenvalues --  -46.97145 -46.94372 -19.30322 -19.29157 -19.25167
 Alpha  occ. eigenvalues --  -19.24827 -19.24212 -19.23928 -19.23412 -19.22293
 Alpha  occ. eigenvalues --  -14.47587 -14.47254 -14.46690 -14.46079 -14.44530
 Alpha  occ. eigenvalues --  -14.44464 -14.44457 -14.43880 -10.43223 -10.42545
 Alpha  occ. eigenvalues --  -10.39526 -10.39194 -10.38806 -10.37390 -10.36284
 Alpha  occ. eigenvalues --  -10.35996 -10.35866 -10.35554 -10.35426 -10.35078
 Alpha  occ. eigenvalues --  -10.34982 -10.34892 -10.34715 -10.34615 -10.34342
 Alpha  occ. eigenvalues --  -10.34321 -10.34319 -10.34226 -10.34124 -10.33846
 Alpha  occ. eigenvalues --  -10.33539 -10.33505 -10.33444 -10.33361 -10.33192
 Alpha  occ. eigenvalues --  -10.33091 -10.33089 -10.33054 -10.32726 -10.32562
 Alpha  occ. eigenvalues --  -10.32558 -10.32483 -10.32478 -10.32305 -10.32262
 Alpha  occ. eigenvalues --  -10.32244 -10.32201 -10.32173 -10.31825 -10.31753
 Alpha  occ. eigenvalues --  -10.31703 -10.31652 -10.31553 -10.31537 -10.31526
 Alpha  occ. eigenvalues --  -10.31061 -10.30958 -10.30939 -10.30892 -10.30727
 Alpha  occ. eigenvalues --  -10.30718 -10.30591 -10.30375 -10.30335 -10.30268
 Alpha  occ. eigenvalues --  -10.30229 -10.30032 -10.30004 -10.29571 -10.29552
 Alpha  occ. eigenvalues --  -10.29515 -10.29386 -10.29156 -10.29150 -10.29147
 Alpha  occ. eigenvalues --  -10.29116  -3.22788  -3.20470  -1.96381  -1.95880
 Alpha  occ. eigenvalues --   -1.95740  -1.94071  -1.93583  -1.93474  -1.20120
 Alpha  occ. eigenvalues --   -1.17563  -1.11710  -1.11322  -1.11240  -1.11202
 Alpha  occ. eigenvalues --   -1.09983  -1.09925  -1.07158  -1.06278  -1.05731
 Alpha  occ. eigenvalues --   -1.05431  -1.05425  -1.04778  -1.04544  -1.03356
 Alpha  occ. eigenvalues --   -0.94617  -0.93530  -0.91275  -0.90939  -0.90806
 Alpha  occ. eigenvalues --   -0.90383  -0.90103  -0.89937  -0.89703  -0.89440
 Alpha  occ. eigenvalues --   -0.88979  -0.88597  -0.88192  -0.87738  -0.86768
 Alpha  occ. eigenvalues --   -0.86583  -0.86104  -0.84799  -0.84615  -0.84384
 Alpha  occ. eigenvalues --   -0.84074  -0.83769  -0.82875  -0.82638  -0.82506
 Alpha  occ. eigenvalues --   -0.81909  -0.80894  -0.80598  -0.79538  -0.79299
 Alpha  occ. eigenvalues --   -0.78843  -0.78788  -0.78393  -0.77646  -0.77347
 Alpha  occ. eigenvalues --   -0.76434  -0.75141  -0.74483  -0.74020  -0.73389
 Alpha  occ. eigenvalues --   -0.71346  -0.71295  -0.71188  -0.70469  -0.70240
 Alpha  occ. eigenvalues --   -0.69909  -0.69038  -0.68829  -0.68280  -0.67632
 Alpha  occ. eigenvalues --   -0.67364  -0.67064  -0.66994  -0.66637  -0.65863
 Alpha  occ. eigenvalues --   -0.65714  -0.65295  -0.63218  -0.62614  -0.62076
 Alpha  occ. eigenvalues --   -0.62012  -0.61418  -0.60972  -0.60857  -0.60652
 Alpha  occ. eigenvalues --   -0.60263  -0.59681  -0.59473  -0.59037  -0.58715
 Alpha  occ. eigenvalues --   -0.58437  -0.58083  -0.58010  -0.57764  -0.57525
 Alpha  occ. eigenvalues --   -0.57064  -0.56495  -0.56480  -0.56079  -0.55832
 Alpha  occ. eigenvalues --   -0.55555  -0.55477  -0.55302  -0.55144  -0.55083
 Alpha  occ. eigenvalues --   -0.54753  -0.54558  -0.54398  -0.54193  -0.54098
 Alpha  occ. eigenvalues --   -0.53783  -0.53654  -0.53602  -0.53422  -0.53305
 Alpha  occ. eigenvalues --   -0.53263  -0.53043  -0.52811  -0.52744  -0.52344
 Alpha  occ. eigenvalues --   -0.51993  -0.51954  -0.51774  -0.51522  -0.51408
 Alpha  occ. eigenvalues --   -0.51323  -0.51223  -0.51184  -0.51014  -0.50872
 Alpha  occ. eigenvalues --   -0.50733  -0.50549  -0.50381  -0.50309  -0.50085
 Alpha  occ. eigenvalues --   -0.50007  -0.49971  -0.49441  -0.49311  -0.49243
 Alpha  occ. eigenvalues --   -0.48926  -0.48732  -0.48696  -0.48610  -0.48250
 Alpha  occ. eigenvalues --   -0.48229  -0.48053  -0.47965  -0.47666  -0.47623
 Alpha  occ. eigenvalues --   -0.47464  -0.47084  -0.47081  -0.47045  -0.47022
 Alpha  occ. eigenvalues --   -0.46781  -0.46723  -0.46622  -0.46572  -0.46281
 Alpha  occ. eigenvalues --   -0.46054  -0.45977  -0.45865  -0.45513  -0.45367
 Alpha  occ. eigenvalues --   -0.45286  -0.45019  -0.44953  -0.44911  -0.44798
 Alpha  occ. eigenvalues --   -0.44785  -0.44535  -0.44427  -0.44321  -0.44180
 Alpha  occ. eigenvalues --   -0.44051  -0.43677  -0.43439  -0.43288  -0.43244
 Alpha  occ. eigenvalues --   -0.42887  -0.42777  -0.42629  -0.42210  -0.42050
 Alpha  occ. eigenvalues --   -0.42035  -0.41519  -0.41107  -0.41064  -0.40911
 Alpha  occ. eigenvalues --   -0.40570  -0.40414  -0.40059  -0.39901  -0.39848
 Alpha  occ. eigenvalues --   -0.39637  -0.39224  -0.38917  -0.38778  -0.38316
 Alpha  occ. eigenvalues --   -0.38195  -0.37757  -0.36885  -0.36428  -0.36115
 Alpha  occ. eigenvalues --   -0.36093  -0.35736  -0.35362  -0.33696  -0.33428
 Alpha  occ. eigenvalues --   -0.33018  -0.32959  -0.32591  -0.32543  -0.32408
 Alpha  occ. eigenvalues --   -0.32185  -0.31896  -0.31314  -0.26410  -0.25864
 Alpha  occ. eigenvalues --   -0.23350  -0.22173
 Alpha virt. eigenvalues --   -0.07739  -0.06190  -0.00325  -0.00193   0.01885
 Alpha virt. eigenvalues --    0.02349   0.04303   0.04428   0.04565   0.06362
 Alpha virt. eigenvalues --    0.06758   0.07303   0.07751   0.08028   0.08231

 Mulliken charges:
               1
     1  Mg   0.930346
     2  C   -0.012505
     3  C   -0.078777
     4  C   -0.029832
     5  C   -0.055338
     6  N   -0.359305
     7  C   -0.011326
     8  C   -0.090345
     9  C   -0.100409
    10  C    0.079444
    11  C    0.032992
    12  C    0.011764
    13  C   -0.107048
    14  H    0.041862
    15  N   -0.446530
    16  C    0.131812
    17  C   -0.166231
    18  C   -0.071405
    19  C    0.121629
    20  C    0.092200
    21  C   -0.000432
    22  O   -0.245920
    23  C    0.011399
    24  N   -0.354125
    25  C    0.049194
    26  C   -0.068716
    27  C   -0.054116
    28  C    0.053361
    29  C    0.028811
    30  C   -0.008405
    31  C   -0.059088
    32  N   -0.367956
    33  C    0.038766
    34  C   -0.158724
    35  C   -0.038412
    36  C    0.117473
    37  C    0.062098
    38  C    0.094520
    39  O   -0.225659
    40  C   -0.017560
    41  C    0.221532
    42  O   -0.212526
    43  O   -0.366560
    44  C    0.140044
    45  H    0.006083
    46  H   -0.031111
    47  H   -0.001391
    48  H    0.038063
    49  H    0.035509
    50  H    0.032283
    51  H    0.046075
    52  H    0.040203
    53  H    0.042469
    54  H    0.036098
    55  H    0.066023
    56  H    0.053267
    57  H    0.070795
    58  H    0.039838
    59  H    0.017365
    60  H    0.051077
    61  H    0.064309
    62  H    0.052250
    63  H    0.047979
    64  H    0.037650
    65  H    0.035130
    66  H    0.041395
    67  H    0.037042
    68  H    0.041981
    69  H    0.039559
    70  H    0.042335
    71  H    0.030735
    72  H    0.032967
    73  H    0.064840
    74  H    0.051523
    75  H    0.065759
    76  H    0.062161
    77  H    0.046689
    78  H    0.053367
    79  H    0.057687
    80  Mg   0.984845
    81  C   -0.029979
    82  C   -0.097698
    83  C   -0.088123
    84  C   -0.091628
    85  N   -0.320840
    86  C   -0.001425
    87  C   -0.052300
    88  C   -0.133787
    89  C    0.011211
    90  C    0.044515
    91  C   -0.023326
    92  C   -0.099810
    93  H    0.046636
    94  N   -0.499554
    95  C    0.214666
    96  C   -0.158581
    97  C   -0.076727
    98  C    0.175204
    99  C    0.073719
   100  C    0.037628
   101  O   -0.272560
   102  C    0.020745
   103  N   -0.348893
   104  C    0.045881
   105  C   -0.087824
   106  C   -0.049389
   107  C    0.040519
   108  C    0.013496
   109  C   -0.039895
   110  C   -0.032205
   111  N   -0.451984
   112  C    0.124988
   113  C   -0.194056
   114  C   -0.008976
   115  C    0.139227
   116  C    0.070659
   117  C    0.151155
   118  O   -0.214789
   119  C   -0.144184
   120  C    0.289186
   121  O   -0.219342
   122  O   -0.405805
   123  C    0.143386
   124  H   -0.011177
   125  H    0.021123
   126  H    0.001224
   127  H    0.028698
   128  H    0.029421
   129  H    0.028547
   130  H    0.059113
   131  H    0.036123
   132  H    0.041258
   133  H    0.036999
   134  H    0.058379
   135  H    0.059717
   136  H    0.054029
   137  H    0.057778
   138  H    0.036108
   139  H    0.065587
   140  H    0.039179
   141  H    0.055119
   142  H    0.050590
   143  H    0.044456
   144  H    0.052651
   145  H    0.038248
   146  H    0.049539
   147  H    0.034851
   148  H    0.019190
   149  H    0.041719
   150  H    0.039401
   151  H    0.036840
   152  H    0.060693
   153  H    0.027105
   154  H    0.060549
   155  H    0.091893
   156  H    0.068585
   157  H    0.050056
   158  H    0.052424
 Sum of Mulliken charges =  -0.00000

 Dipole moment (field-independent basis, Debye):
    X=              1.8225    Y=             -5.8890    Z=              3.7709  Tot=              7.2265
 Quadrupole moment (field-independent basis, Debye-Ang):
   XX=           -351.8596   YY=           -484.3062   ZZ=           -486.1012
   XY=             -4.4236   XZ=             22.8823   YZ=              6.8685

 Normal termination of Gaussian 16 at Sat Sep 18 21:52:48 2021.
