 Gaussian 16, Revision A.03,
 Gaussian 16:  ES64L-G16RevA.03 25-Dec-2016

 --------------------------------
 #p wB97XD/Def2SVP td=(nstates=5)
 --------------------------------

 --------------------------------
 TDDFT excited states in gaussian
 --------------------------------
 Symbolic Z-matrix:
 Charge =  0 Multiplicity = 1

                         Standard orientation:
 ---------------------------------------------------------------------
 Center     Atomic      Atomic             Coordinates (Angstroms)
 Number     Number       Type             X           Y           Z
 ---------------------------------------------------------------------
      1         12           0        8.175855   -1.113875   -0.161735
      2          6           0       10.269351    1.807008   -0.096439
      3          6           0        5.433384    1.119169    0.089770
      4          6           0        5.964687   -3.815573   -0.072975
      5          6           0       10.835997   -3.128233    0.000471
      6          7           0        7.952213    1.270510    0.191935
      7          6           0        8.931236    2.190572    0.056630
      8          6           0        8.343946    3.632170    0.268930
      9          6           0        6.834251    3.288991    0.532932
     10          6           0        6.682011    1.792427    0.176479
     11          6           0        6.391054    3.635720    1.997146
     12          6           0        8.540470    4.551025   -0.936621
     13          6           0        8.986598    5.944858   -0.638624
     14          1           0        9.298173    6.887531   -1.810026
     15          7           0        6.048327   -1.346661   -0.221631
     16          6           0        5.131919   -0.307460   -0.099596
     17          6           0        3.799112   -0.871251   -0.181777
     18          6           0        3.901298   -2.244664   -0.328966
     19          6           0        5.359449   -2.545099   -0.131681
     20          6           0        2.528691   -0.096298    0.019687
     21          6           0        2.789959   -3.366615   -0.445428
     22          8           0        2.953065   -4.555729   -0.569995
     23          6           0        1.344565   -2.940257   -0.584347
     24          7           0        8.324469   -3.116868    0.095172
     25          6           0        7.343405   -4.073849    0.104736
     26          6           0        7.894064   -5.471823    0.471198
     27          6           0        9.456426   -5.296916    0.248033
     28          6           0        9.540651   -3.732930    0.070522
     29          6           0        7.466917   -5.941915    1.898475
     30          6           0       10.026639   -6.075213   -0.976604
     31          6           0        9.575485   -5.575300   -2.347135
     32          7           0       10.123639   -0.817739   -0.037714
     33          6           0       11.178971   -1.771955   -0.044148
     34          6           0       12.476858   -1.102511    0.006410
     35          6           0       12.159280    0.265640   -0.067139
     36          6           0       10.746780    0.406823   -0.105032
     37          6           0       13.780020   -1.755273    0.047445
     38          6           0       12.794178    1.579333   -0.095644
     39          8           0       13.978430    1.867898   -0.137605
     40          6           0       11.588264    2.662587   -0.025751
     41          6           0       11.938523    3.513166   -1.249078
     42          8           0       11.824495    3.219768   -2.452839
     43          8           0       12.470529    4.650815   -0.837349
     44          6           0       12.644310    5.790715   -1.826466
     45          1           0        4.595652    1.819200    0.092346
     46          1           0        5.352807   -4.720347   -0.038440
     47          1           0       11.659688   -3.844397   -0.021969
     48          1           0        8.938954    4.044191    1.083285
     49          1           0        6.174620    3.816819   -0.157130
     50          1           0        5.530048    4.297418    2.091608
     51          1           0        7.211090    3.933306    2.650937
     52          1           0        5.959310    2.817734    2.574296
     53          1           0        7.506114    4.792950   -1.181560
     54          1           0        9.043649    4.062851   -1.771975
     55          1           0        9.813326    6.116348    0.052638
     56          1           0        8.115919    6.377258   -0.145501
     57          1           0        2.719016    0.976020    0.056443
     58          1           0        1.965031   -0.354187    0.917633
     59          1           0        1.790979   -0.185123   -0.777973
     60          1           0        1.176166   -2.324656   -1.467896
     61          1           0        1.177544   -2.433789    0.366335
     62          1           0        0.801820   -3.883192   -0.517748
     63          1           0        7.365043   -6.141227   -0.208049
     64          1           0       10.098828   -5.359587    1.126658
     65          1           0        6.766378   -6.776585    1.873902
     66          1           0        7.102275   -5.192212    2.599798
     67          1           0        8.428848   -6.250996    2.307848
     68          1           0        9.953070   -7.138777   -0.749194
     69          1           0       11.105866   -5.923335   -0.980616
     70          1           0        8.813523   -4.796727   -2.343099
     71          1           0        9.139489   -6.442368   -2.842699
     72          1           0       10.333968   -5.063278   -2.938165
     73          1           0       14.633745   -1.078623    0.089960
     74          1           0       13.820662   -2.358096   -0.859692
     75          1           0       13.779251   -2.433963    0.901549
     76          1           0       11.695232    3.347817    0.815133
     77          1           0       12.781001    6.686674   -1.220529
     78          1           0       11.750623    5.975943   -2.421608
     79          1           0       13.454762    5.629161   -2.538168
     80         12           0       -8.640762   -0.332320   -0.321803
     81          6           0       -6.601760    2.403724    0.833759
     82          6           0      -10.614841    1.851461   -1.899748
     83          6           0      -10.902747   -2.791666   -0.578305
     84          6           0       -6.734716   -2.399144    1.775693
     85          7           0       -8.624956    1.839077   -0.450614
     86          6           0       -7.619204    2.748653   -0.081799
     87          6           0       -7.871300    4.170801   -0.713067
     88          6           0       -9.189970    3.952689   -1.515004
     89          6           0       -9.477490    2.438950   -1.329746
     90          6           0      -10.377223    4.802609   -1.139417
     91          6           0       -6.607598    4.707726   -1.575622
     92          6           0       -6.104182    6.105978   -1.196658
     93          1           0       -6.125395    7.137253   -2.385514
     94          7           0      -10.454380   -0.486547   -1.256092
     95          6           0      -11.123783    0.507503   -1.848504
     96          6           0      -12.410825    0.051185   -2.376133
     97          6           0      -12.518472   -1.298181   -1.891815
     98          6           0      -11.266293   -1.590640   -1.186406
     99          6           0      -13.311031    0.903479   -3.163186
    100          6           0      -13.803358   -2.172440   -2.038642
    101          8           0      -13.838678   -3.335636   -1.673582
    102          6           0      -15.065518   -1.659578   -2.655325
    103          7           0       -8.771211   -2.245810    0.464321
    104          6           0       -9.775067   -3.135390    0.096754
    105          6           0       -9.516852   -4.553809    0.703049
    106          6           0       -8.008910   -4.472178    1.147771
    107          6           0       -7.784139   -2.961684    1.082600
    108          6           0      -10.538415   -5.094993    1.755636
    109          6           0       -7.027923   -5.231915    0.213350
    110          6           0       -5.880555   -5.990656    0.831067
    111          7           0       -7.035194   -0.079606    1.075753
    112          6           0       -6.384062   -1.009039    1.836111
    113          6           0       -5.188433   -0.336166    2.508821
    114          6           0       -5.209696    0.976480    2.103560
    115          6           0       -6.388555    1.102867    1.291412
    116          6           0       -4.180413   -1.099886    3.337116
    117          6           0       -4.587447    2.285415    2.192976
    118          8           0       -3.556002    2.525961    2.854610
    119          6           0       -5.559784    3.352724    1.408541
    120          6           0       -6.227166    4.378146    2.301098
    121          8           0       -6.896992    4.023843    3.291378
    122          8           0       -5.851428    5.685193    1.988266
    123          6           0       -6.137651    6.617513    3.072432
    124          1           0      -11.240575    2.490370   -2.526077
    125          1           0      -11.663822   -3.551648   -0.765329
    126          1           0       -6.117647   -3.126496    2.308209
    127          1           0       -7.989941    4.799473    0.169209
    128          1           0       -8.969348    4.335521   -2.512380
    129          1           0      -10.183599    5.460833   -0.292344
    130          1           0      -11.027837    4.026392   -0.737994
    131          1           0      -10.738024    5.426097   -1.958010
    132          1           0       -6.982985    4.667621   -2.597777
    133          1           0       -5.815428    3.960122   -1.544809
    134          1           0       -5.116171    5.971186   -0.756473
    135          1           0       -6.753583    6.522563   -0.425637
    136          1           0      -14.340725    1.056293   -2.841466
    137          1           0      -13.520476    0.318290   -4.057889
    138          1           0      -12.861401    1.807270   -3.574984
    139          1           0      -14.792482   -1.396511   -3.677963
    140          1           0      -15.306562   -0.729798   -2.139292
    141          1           0      -15.795792   -2.459126   -2.537184
    142          1           0       -9.582816   -5.215865   -0.160367
    143          1           0       -7.859375   -4.742845    2.192723
    144          1           0      -11.342010   -4.358949    1.747928
    145          1           0      -10.112027   -5.277211    2.741677
    146          1           0      -11.060882   -5.984369    1.401133
    147          1           0       -6.674678   -4.370633   -0.353344
    148          1           0       -7.503763   -5.905239   -0.499903
    149          1           0       -5.829490   -6.934334    0.287834
    150          1           0       -6.044572   -6.235899    1.880874
    151          1           0       -4.977796   -5.453831    0.538569
    152          1           0       -4.511898   -2.137640    3.368040
    153          1           0       -4.240725   -0.735924    4.362541
    154          1           0       -3.180030   -0.937778    2.936307
    155          1           0       -4.982112    3.816197    0.608793
    156          1           0       -5.264261    7.020109    3.583589
    157          1           0       -6.806988    6.221191    3.836122
    158          1           0       -6.666298    7.454855    2.617644
 ---------------------------------------------------------------------

 SCF Done:  E(RwB97XD) =  -4070.58294365     A.U. after   20 cycles

 Excitation energies and oscillator strengths:

 Excited State   1:      Singlet-A      1.5849 eV  782.29 nm  f=0.5678  <S**2>=0.000
     310 -> 315        0.18267
     311 -> 314        0.17375
     312 -> 313        0.66122
     310 <- 315        0.11846
 This state for optimization and/or second-order correction.
 Total Energy, E(TD-HF/TD-DFT) =  -4070.52470020
 Copying the excited state density for this state as the 1-particle RhoCI density.

 Excited State   2:      Singlet-A      1.6419 eV  755.11 nm  f=0.2578  <S**2>=0.000
     309 -> 316        0.17347
     311 -> 314        0.66346
     312 -> 313       -0.17137
     309 <- 316        0.11317

 Excited State   3:      Singlet-A      2.1586 eV  574.39 nm  f=0.0816  <S**2>=0.000
     310 -> 313        0.62415
     312 -> 315       -0.32195

 Excited State   4:      Singlet-A      2.2297 eV  556.06 nm  f=0.0891  <S**2>=0.000
     309 -> 314        0.62848
     311 -> 316       -0.31407

 Excited State   5:      Singlet-A      3.3872 eV  366.04 nm  f=0.0000  <S**2>=0.000
     312 -> 314        0.70618

 The electronic state is 1-A.
 Alpha  occ. eigenvalues --  -46.94912 -46.94524 -19.32144 -19.30064 -19.26024
 Alpha  occ. eigenvalues --  -19.25304 -19.24476 -19.24309 -19.23670 -19.22887
 Alpha  occ. eigenvalues --  -14.47356 -14.46971 -14.46414 -14.46032 -14.44629
 Alpha  occ. eigenvalues --  -14.44489 -14.44198 -14.44103 -10.44926 -10.42240
 Alpha  occ. eigenvalues --  -10.40846 -10.39513 -10.39325 -10.39000 -10.35912
 Alpha  occ. eigenvalues --  -10.35832 -10.35687 -10.35356 -10.35284 -10.35157
 Alpha  occ. eigenvalues --  -10.35144 -10.35044 -10.35031 -10.34899 -10.34608
 Alpha  occ. eigenvalues --  -10.34506 -10.34287 -10.34257 -10.33949 -10.33925
 Alpha  occ. eigenvalues --  -10.33834 -10.33669 -10.33360 -10.33245 -10.33215
 Alpha  occ. eigenvalues --  -10.32840 -10.32823 -10.32795 -10.32630 -10.32524
 Alpha  occ. eigenvalues --  -10.32519 -10.32396 -10.32389 -10.32361 -10.32360
 Alpha  occ. eigenvalues --  -10.32339 -10.32291 -10.32116 -10.31911 -10.31635
 Alpha  occ. eigenvalues --  -10.31552 -10.31542 -10.31465 -10.31458 -10.31239
 Alpha  occ. eigenvalues --  -10.31182 -10.31142 -10.30713 -10.30704 -10.30651
 Alpha  occ. eigenvalues --  -10.30586 -10.30288 -10.30120 -10.30014 -10.29943
 Alpha  occ. eigenvalues --  -10.29918 -10.29914 -10.29852 -10.29793 -10.29550
 Alpha  occ. eigenvalues --  -10.29499 -10.29483 -10.29370 -10.29359 -10.29320
 Alpha  occ. eigenvalues --  -10.29156  -3.20986  -3.20654  -1.94559  -1.94231
 Alpha  occ. eigenvalues --   -1.94096  -1.93986  -1.93794  -1.93626  -1.18738
 Alpha  occ. eigenvalues --   -1.18049  -1.13624  -1.12426  -1.12179  -1.11587
 Alpha  occ. eigenvalues --   -1.10378  -1.07393  -1.06100  -1.05685  -1.05508
 Alpha  occ. eigenvalues --   -1.05014  -1.04800  -1.04162  -1.04082  -1.03641
 Alpha  occ. eigenvalues --   -0.94831  -0.92721  -0.91141  -0.90984  -0.90777
 Alpha  occ. eigenvalues --   -0.90525  -0.90070  -0.89831  -0.89472  -0.89297
 Alpha  occ. eigenvalues --   -0.89197  -0.88788  -0.88288  -0.88264  -0.86372
 Alpha  occ. eigenvalues --   -0.85933  -0.85706  -0.85386  -0.84778  -0.84166
 Alpha  occ. eigenvalues --   -0.83975  -0.83361  -0.83351  -0.82884  -0.82374
 Alpha  occ. eigenvalues --   -0.82039  -0.80553  -0.79980  -0.79695  -0.79129
 Alpha  occ. eigenvalues --   -0.79062  -0.78763  -0.78308  -0.77782  -0.76965
 Alpha  occ. eigenvalues --   -0.76817  -0.74644  -0.74481  -0.73520  -0.73117
 Alpha  occ. eigenvalues --   -0.71893  -0.71184  -0.70625  -0.70471  -0.70022
 Alpha  occ. eigenvalues --   -0.69395  -0.68842  -0.68163  -0.67415  -0.67322
 Alpha  occ. eigenvalues --   -0.67116  -0.67074  -0.66981  -0.66541  -0.66501
 Alpha  occ. eigenvalues --   -0.65977  -0.64779  -0.63690  -0.62417  -0.61934
 Alpha  occ. eigenvalues --   -0.61498  -0.61190  -0.61093  -0.60810  -0.60667
 Alpha  occ. eigenvalues --   -0.60528  -0.59608  -0.59486  -0.59278  -0.58423
 Alpha  occ. eigenvalues --   -0.58100  -0.57602  -0.57535  -0.57324  -0.57227
 Alpha  occ. eigenvalues --   -0.57047  -0.56951  -0.56506  -0.55854  -0.55804
 Alpha  occ. eigenvalues --   -0.55602  -0.55295  -0.55195  -0.55026  -0.54743
 Alpha  occ. eigenvalues --   -0.54709  -0.54552  -0.54502  -0.54251  -0.53974
 Alpha  occ. eigenvalues --   -0.53937  -0.53717  -0.53610  -0.53361  -0.53321
 Alpha  occ. eigenvalues --   -0.53233  -0.52953  -0.52809  -0.52753  -0.52334
 Alpha  occ. eigenvalues --   -0.51953  -0.51773  -0.51650  -0.51537  -0.51462
 Alpha  occ. eigenvalues --   -0.51230  -0.51112  -0.51061  -0.50897  -0.50821
 Alpha  occ. eigenvalues --   -0.50727  -0.50468  -0.50434  -0.50277  -0.50254
 Alpha  occ. eigenvalues --   -0.50022  -0.49973  -0.49373  -0.49326  -0.49272
 Alpha  occ. eigenvalues --   -0.49082  -0.48845  -0.48598  -0.48550  -0.48479
 Alpha  occ. eigenvalues --   -0.48193  -0.48134  -0.48067  -0.48027  -0.47765
 Alpha  occ. eigenvalues --   -0.47640  -0.47503  -0.47331  -0.47117  -0.46736
 Alpha  occ. eigenvalues --   -0.46700  -0.46500  -0.46253  -0.46248  -0.46119
 Alpha  occ. eigenvalues --   -0.45983  -0.45883  -0.45793  -0.45715  -0.45487
 Alpha  occ. eigenvalues --   -0.45362  -0.45338  -0.45133  -0.45000  -0.44951
 Alpha  occ. eigenvalues --   -0.44859  -0.44806  -0.44781  -0.44429  -0.43951
 Alpha  occ. eigenvalues --   -0.43869  -0.43807  -0.43680  -0.43208  -0.43207
 Alpha  occ. eigenvalues --   -0.42803  -0.42740  -0.42577  -0.42261  -0.42202
 Alpha  occ. eigenvalues --   -0.42013  -0.41590  -0.41362  -0.41171  -0.40978
 Alpha  occ. eigenvalues --   -0.40454  -0.40362  -0.39924  -0.39875  -0.39662
 Alpha  occ. eigenvalues --   -0.39627  -0.39439  -0.38677  -0.38614  -0.38194
 Alpha  occ. eigenvalues --   -0.37949  -0.37563  -0.37285  -0.36601  -0.35793
 Alpha  occ. eigenvalues --   -0.35337  -0.35238  -0.34628  -0.33903  -0.33727
 Alpha  occ. eigenvalues --   -0.33501  -0.32914  -0.32790  -0.32729  -0.32715
 Alpha  occ. eigenvalues --   -0.32414  -0.32106  -0.32051  -0.26267  -0.25922
 Alpha  occ. eigenvalues --   -0.22749  -0.22656
 Alpha virt. eigenvalues --   -0.06962  -0.06947  -0.00028   0.00424   0.01765
 Alpha virt. eigenvalues --    0.02803   0.04120   0.04570   0.04687   0.04942
 Alpha virt. eigenvalues --    0.06595   0.06816   0.07696   0.07839   0.08064

 Mulliken charges:
               1
     1  Mg   0.987701
     2  C    0.030612
     3  C   -0.071094
     4  C   -0.057751
     5  C   -0.105258
     6  N   -0.311344
     7  C   -0.008660
     8  C   -0.088307
     9  C   -0.083067
    10  C    0.047385
    11  C    0.015609
    12  C    0.051449
    13  C   -0.150095
    14  H    0.031048
    15  N   -0.450451
    16  C    0.180490
    17  C   -0.160590
    18  C   -0.082293
    19  C    0.134601
    20  C    0.054332
    21  C    0.057040
    22  O   -0.216683
    23  C   -0.009254
    24  N   -0.398581
    25  C    0.036704
    26  C   -0.083137
    27  C   -0.076494
    28  C    0.060702
    29  C    0.027394
    30  C   -0.006034
    31  C   -0.051336
    32  N   -0.527069
    33  C    0.158591
    34  C   -0.163890
    35  C   -0.041816
    36  C    0.162008
    37  C    0.081469
    38  C    0.128460
    39  O   -0.199081
    40  C   -0.130018
    41  C    0.252185
    42  O   -0.287150
    43  O   -0.341610
    44  C    0.147872
    45  H   -0.000257
    46  H    0.022519
    47  H   -0.006362
    48  H    0.039141
    49  H    0.035382
    50  H    0.034289
    51  H    0.038098
    52  H    0.026507
    53  H    0.023441
    54  H    0.068778
    55  H    0.048237
    56  H    0.037858
    57  H    0.024012
    58  H    0.058309
    59  H    0.037472
    60  H    0.076084
    61  H    0.036112
    62  H    0.051610
    63  H    0.040480
    64  H    0.042966
    65  H    0.047930
    66  H    0.047462
    67  H    0.024180
    68  H    0.039244
    69  H    0.022238
    70  H    0.040712
    71  H    0.045135
    72  H    0.042347
    73  H    0.065137
    74  H    0.051552
    75  H    0.044315
    76  H    0.067572
    77  H    0.057650
    78  H    0.052427
    79  H    0.072833
    80  Mg   0.976285
    81  C   -0.099659
    82  C   -0.080643
    83  C   -0.087880
    84  C   -0.101306
    85  N   -0.370222
    86  C   -0.011969
    87  C   -0.072218
    88  C   -0.107196
    89  C    0.104743
    90  C    0.024136
    91  C    0.006702
    92  C   -0.108965
    93  H    0.028163
    94  N   -0.454722
    95  C    0.114395
    96  C   -0.149316
    97  C   -0.075979
    98  C    0.118337
    99  C    0.069292
   100  C    0.031808
   101  O   -0.237941
   102  C    0.011690
   103  N   -0.401101
   104  C    0.093745
   105  C   -0.058320
   106  C   -0.103671
   107  C    0.063557
   108  C    0.035159
   109  C   -0.016711
   110  C   -0.026249
   111  N   -0.388623
   112  C    0.148920
   113  C   -0.229386
   114  C    0.014978
   115  C    0.154319
   116  C    0.098825
   117  C    0.145868
   118  O   -0.223258
   119  C   -0.037055
   120  C    0.292917
   121  O   -0.255993
   122  O   -0.367392
   123  C    0.120937
   124  H   -0.013744
   125  H    0.016594
   126  H   -0.003582
   127  H    0.041622
   128  H    0.034383
   129  H    0.029022
   130  H    0.041709
   131  H    0.043285
   132  H    0.032217
   133  H    0.037274
   134  H    0.063548
   135  H    0.054793
   136  H    0.047212
   137  H    0.028683
   138  H    0.042819
   139  H    0.049625
   140  H    0.052121
   141  H    0.068126
   142  H    0.031348
   143  H    0.029328
   144  H    0.038549
   145  H    0.045562
   146  H    0.035885
   147  H    0.029033
   148  H    0.035344
   149  H    0.029729
   150  H    0.041910
   151  H    0.043697
   152  H    0.023809
   153  H    0.059157
   154  H    0.064316
   155  H    0.057193
   156  H    0.063093
   157  H    0.072377
   158  H    0.044957
 Sum of Mulliken charges =  -0.00000

 Dipole moment (field-independent basis, Debye):
    X=             -4.6656    Y=              1.5095    Z=             -1.2101  Tot=              5.0508
 Quadrupole moment (field-independent basis, Debye-Ang):
   XX=           -572.2483   YY=           -457.4818   ZZ=           -516.6858
   XY=            -52.1746   XZ=             50.4838   YZ=            -13.5780

 Normal termination of Gaussian 16 at Sun Sep 19 09:47:30 2021.
