 Gaussian 16, Revision A.03,
 Gaussian 16:  ES64L-G16RevA.03 25-Dec-2016

 --------------------------------
 #p wB97XD/Def2SVP td=(nstates=5)
 --------------------------------

 --------------------------------
 TDDFT excited states in gaussian
 --------------------------------
 Symbolic Z-matrix:
 Charge =  0 Multiplicity = 1

                         Standard orientation:
 ---------------------------------------------------------------------
 Center     Atomic      Atomic             Coordinates (Angstroms)
 Number     Number       Type             X           Y           Z
 ---------------------------------------------------------------------
      1         12           0      -30.164645    0.133683    0.435084
      2          6           0      -27.606059   -1.542070   -1.119030
      3          6           0      -31.700953    0.483425   -2.610382
      4          6           0      -32.704454    1.927795    1.970884
      5          6           0      -28.364926    0.139852    3.398416
      6          7           0      -29.694761   -0.418125   -1.688517
      7          6           0      -28.613181   -1.184664   -2.017196
      8          6           0      -28.606820   -1.497054   -3.434992
      9          6           0      -29.766977   -0.713601   -4.028506
     10          6           0      -30.452411   -0.126671   -2.717986
     11          6           0      -29.461688    0.396852   -5.092287
     12          6           0      -28.689488   -3.040834   -3.688837
     13          6           0      -27.942891   -3.596660   -4.950431
     14          1           0      -27.782440   -2.643205   -6.150771
     15          7           0      -32.013015    0.970144   -0.245233
     16          6           0      -32.450830    0.979908   -1.558489
     17          6           0      -33.755648    1.669089   -1.621431
     18          6           0      -34.073535    2.101130   -0.261988
     19          6           0      -32.936321    1.656191    0.562205
     20          6           0      -34.552583    1.897165   -2.895476
     21          6           0      -35.352349    2.740686    0.226285
     22          8           0      -35.486088    2.972001    1.440802
     23          6           0      -36.476003    3.157757   -0.646934
     24          7           0      -30.469492    0.997010    2.383480
     25          6           0      -31.596370    1.615108    2.748517
     26          6           0      -31.593340    1.907859    4.258156
     27          6           0      -30.295548    1.110423    4.824338
     28          6           0      -29.708405    0.647309    3.444643
     29          6           0      -31.592803    3.442037    4.539699
     30          6           0      -30.605081   -0.113040    5.729953
     31          6           0      -30.211360    0.035498    7.207216
     32          7           0      -28.313002   -0.490045    1.056899
     33          6           0      -27.688134   -0.412641    2.303726
     34          6           0      -26.351982   -1.045796    2.244110
     35          6           0      -26.313130   -1.473058    0.895867
     36          6           0      -27.510157   -1.106988    0.224183
     37          6           0      -25.391063   -1.228730    3.313071
     38          6           0      -25.513830   -2.259684   -0.066157
     39          8           0      -24.477488   -2.857012    0.056053
     40          6           0      -26.313016   -2.290123   -1.417472
     41          6           0      -25.431063   -1.803182   -2.490235
     42          8           0      -25.128762   -0.600727   -2.555400
     43          8           0      -25.114948   -2.728701   -3.437151
     44          6           0      -24.416829   -2.289518   -4.641272
     45          1           0      -32.164351    0.576552   -3.594790
     46          1           0      -33.495787    2.525612    2.428430
     47          1           0      -27.894132    0.053528    4.379820
     48          1           0      -27.671907   -1.123999   -3.854584
     49          1           0      -30.548077   -1.379460   -4.397247
     50          1           0      -28.447483    0.600443   -5.437390
     51          1           0      -29.861686    1.337974   -4.715733
     52          1           0      -30.037541    0.287441   -6.011598
     53          1           0      -29.732240   -3.358202   -3.674998
     54          1           0      -28.385211   -3.561509   -2.781058
     55          1           0      -28.437717   -4.499872   -5.308556
     56          1           0      -26.894911   -3.823972   -4.757316
     57          1           0      -34.135699    1.386697   -3.762970
     58          1           0      -34.567304    2.953532   -3.165224
     59          1           0      -35.522259    1.405052   -2.822428
     60          1           0      -37.270420    3.495810    0.017755
     61          1           0      -36.842126    2.361646   -1.296528
     62          1           0      -36.126225    3.911547   -1.352518
     63          1           0      -32.449585    1.382833    4.681785
     64          1           0      -29.575430    1.772598    5.304893
     65          1           0      -32.349694    3.751823    5.260412
     66          1           0      -31.784449    4.004178    3.625306
     67          1           0      -30.571961    3.648770    4.861891
     68          1           0      -30.128448   -1.031818    5.390288
     69          1           0      -31.665407   -0.366451    5.721505
     70          1           0      -30.241617    1.088817    7.486210
     71          1           0      -29.186958   -0.318660    7.318033
     72          1           0      -30.857420   -0.637435    7.769508
     73          1           0      -24.659850   -2.006845    3.095183
     74          1           0      -25.852345   -1.464537    4.271887
     75          1           0      -24.746207   -0.349972    3.329085
     76          1           0      -26.544789   -3.353003   -1.493770
     77          1           0      -23.403666   -1.927035   -4.465342
     78          1           0      -25.019822   -1.577405   -5.204570
     79          1           0      -24.270576   -3.140872   -5.305850
     80         12           0       30.274570    0.218340   -0.291530
     81          6           0       27.269382   -1.248745    0.597310
     82          6           0       28.606116    3.176129   -0.948421
     83          6           0       33.270864    1.769163   -0.401106
     84          6           0       31.811334   -2.777209    0.758556
     85          7           0       28.196912    0.963637    0.090773
     86          6           0       27.175661    0.119531    0.262096
     87          6           0       25.835068    0.912855    0.346560
     88          6           0       26.232068    2.262501   -0.418483
     89          6           0       27.799612    2.123429   -0.513946
     90          6           0       25.457592    2.453964   -1.744770
     91          6           0       25.487671    1.209973    1.787549
     92          6           0       24.017474    1.068719    2.149735
     93          1           0       23.290335    2.036264    3.157828
     94          7           0       30.827877    2.213368   -0.813516
     95          6           0       30.040016    3.290515   -0.974116
     96          6           0       30.882317    4.393027   -1.307516
     97          6           0       32.247140    3.974043   -1.331880
     98          6           0       32.187693    2.581279   -0.871313
     99          6           0       30.322586    5.690836   -1.759964
    100          6           0       33.397843    4.889405   -1.556407
    101          8           0       33.204096    6.060117   -1.838927
    102          6           0       34.836760    4.389295   -1.511795
    103          7           0       32.343606   -0.490174    0.060031
    104          6           0       33.356889    0.418770    0.002263
    105          6           0       34.617920   -0.161286    0.555381
    106          6           0       34.123381   -1.636807    0.934364
    107          6           0       32.676338   -1.722632    0.516654
    108          6           0       35.832296   -0.086113   -0.388940
    109          6           0       34.352908   -2.082615    2.446156
    110          6           0       35.068149   -3.414626    2.772952
    111          7           0       29.712248   -1.618684    0.476501
    112          6           0       30.424635   -2.736688    0.777869
    113          6           0       29.569426   -3.833487    0.892683
    114          6           0       28.276037   -3.336799    0.809820
    115          6           0       28.413995   -1.983004    0.632099
    116          6           0       30.034048   -5.286506    1.203565
    117          6           0       26.923947   -3.648335    0.825879
    118          8           0       26.400042   -4.726497    1.083255
    119          6           0       26.095141   -2.277953    0.729793
    120          6           0       25.324579   -2.205950   -0.458887
    121          8           0       25.657124   -1.978872   -1.624625
    122          8           0       24.006944   -2.435796   -0.075128
    123          6           0       22.935442   -2.436101   -1.056319
    124          1           0       28.074468    4.060220   -1.305810
    125          1           0       34.302108    2.129598   -0.400019
    126          1           0       32.388042   -3.678959    0.975183
    127          1           0       25.059115    0.306192   -0.119475
    128          1           0       26.136401    3.161845    0.189034
    129          1           0       24.848767    1.583185   -1.987233
    130          1           0       26.163206    2.649589   -2.552828
    131          1           0       24.851125    3.353507   -1.641850
    132          1           0       25.813315    2.165442    2.199310
    133          1           0       26.130822    0.543397    2.362096
    134          1           0       23.874983    0.032425    2.455683
    135          1           0       23.551064    1.172810    1.170092
    136          1           0       30.389966    5.613567   -2.844972
    137          1           0       30.894304    6.532195   -1.367890
    138          1           0       29.287217    5.842086   -1.454426
    139          1           0       35.093443    4.328834   -0.454067
    140          1           0       35.443345    5.210201   -1.893467
    141          1           0       34.933901    3.441956   -2.041934
    142          1           0       34.747559    0.474332    1.430733
    143          1           0       34.709227   -2.399618    0.421493
    144          1           0       36.477679    0.692555    0.018922
    145          1           0       35.554586    0.118783   -1.423379
    146          1           0       36.389765   -1.020841   -0.333980
    147          1           0       33.379608   -2.149732    2.932031
    148          1           0       34.964750   -1.376305    3.007726
    149          1           0       34.203846   -4.077892    2.804442
    150          1           0       35.513179   -3.371997    3.766207
    151          1           0       35.685695   -3.904557    2.020271
    152          1           0       30.324095   -5.337700    2.252241
    153          1           0       30.925044   -5.628806    0.676845
    154          1           0       29.225560   -5.998250    1.034340
    155          1           0       25.512996   -2.221053    1.649689
    156          1           0       22.179551   -3.135246   -0.699978
    157          1           0       23.248725   -2.606382   -2.086691
    158          1           0       22.440295   -1.466643   -0.999025
 ---------------------------------------------------------------------

 SCF Done:  E(RwB97XD) =  -4070.62570638     A.U. after   17 cycles

 Excitation energies and oscillator strengths:

 Excited State   1:      Singlet-A      1.6375 eV  757.14 nm  f=0.4003  <S**2>=0.000
     309 -> 315       -0.19101
     311 -> 313        0.68255
     309 <- 315       -0.11968
 This state for optimization and/or second-order correction.
 Total Energy, E(TD-HF/TD-DFT) =  -4070.56552788
 Copying the excited state density for this state as the 1-particle RhoCI density.

 Excited State   2:      Singlet-A      1.6697 eV  742.58 nm  f=0.3878  <S**2>=0.000
     310 -> 316        0.19467
     312 -> 314        0.68026
     310 <- 316        0.11868

 Excited State   3:      Singlet-A      2.1723 eV  570.76 nm  f=0.0973  <S**2>=0.000
     309 -> 313        0.63454
     311 -> 315        0.29671

 Excited State   4:      Singlet-A      2.1969 eV  564.37 nm  f=0.0829  <S**2>=0.000
     310 -> 314        0.62405
     312 -> 316       -0.31825

 Excited State   5:      Singlet-A      3.2599 eV  380.33 nm  f=0.0048  <S**2>=0.000
     308 -> 313        0.67171
     311 -> 315       -0.12896

 The electronic state is 1-A.
 Alpha  occ. eigenvalues --  -46.96032 -46.95226 -19.31188 -19.29880 -19.25133
 Alpha  occ. eigenvalues --  -19.24322 -19.24260 -19.24088 -19.23409 -19.23368
 Alpha  occ. eigenvalues --  -14.46925 -14.46612 -14.46409 -14.46288 -14.44422
 Alpha  occ. eigenvalues --  -14.44120 -14.43830 -14.43817 -10.43452 -10.43419
 Alpha  occ. eigenvalues --  -10.39254 -10.38935 -10.38872 -10.38577 -10.36073
 Alpha  occ. eigenvalues --  -10.35568 -10.35441 -10.35389 -10.35310 -10.35152
 Alpha  occ. eigenvalues --  -10.34922 -10.34890 -10.34692 -10.34666 -10.34420
 Alpha  occ. eigenvalues --  -10.34122 -10.34072 -10.33951 -10.33806 -10.33434
 Alpha  occ. eigenvalues --  -10.33345 -10.33291 -10.32802 -10.32760 -10.32676
 Alpha  occ. eigenvalues --  -10.32519 -10.32491 -10.32476 -10.32393 -10.32349
 Alpha  occ. eigenvalues --  -10.32329 -10.32243 -10.32228 -10.32059 -10.31966
 Alpha  occ. eigenvalues --  -10.31917 -10.31910 -10.31893 -10.31890 -10.31658
 Alpha  occ. eigenvalues --  -10.31433 -10.31433 -10.31432 -10.31332 -10.31253
 Alpha  occ. eigenvalues --  -10.31075 -10.31032 -10.30740 -10.30731 -10.30707
 Alpha  occ. eigenvalues --  -10.30524 -10.30443 -10.30100 -10.29985 -10.29970
 Alpha  occ. eigenvalues --  -10.29932 -10.29928 -10.29925 -10.29909 -10.29726
 Alpha  occ. eigenvalues --  -10.29698 -10.29362 -10.29315 -10.29160 -10.28868
 Alpha  occ. eigenvalues --  -10.28828  -3.21821  -3.21094  -1.95418  -1.94933
 Alpha  occ. eigenvalues --   -1.94779  -1.94705  -1.94201  -1.94071  -1.18616
 Alpha  occ. eigenvalues --   -1.17908  -1.13188  -1.12285  -1.12195  -1.11135
 Alpha  occ. eigenvalues --   -1.09712  -1.09312  -1.07563  -1.07115  -1.06088
 Alpha  occ. eigenvalues --   -1.06058  -1.05873  -1.05397  -1.04668  -1.03006
 Alpha  occ. eigenvalues --   -0.95904  -0.94454  -0.91409  -0.91010  -0.91006
 Alpha  occ. eigenvalues --   -0.90265  -0.90169  -0.89835  -0.89593  -0.89128
 Alpha  occ. eigenvalues --   -0.88851  -0.88660  -0.88211  -0.88174  -0.87372
 Alpha  occ. eigenvalues --   -0.86534  -0.85886  -0.85450  -0.84951  -0.84208
 Alpha  occ. eigenvalues --   -0.84163  -0.83791  -0.83455  -0.83154  -0.82749
 Alpha  occ. eigenvalues --   -0.82512  -0.80405  -0.80136  -0.79556  -0.79488
 Alpha  occ. eigenvalues --   -0.79244  -0.78506  -0.78426  -0.78151  -0.77128
 Alpha  occ. eigenvalues --   -0.76819  -0.75504  -0.74597  -0.74386  -0.73489
 Alpha  occ. eigenvalues --   -0.71839  -0.71203  -0.71168  -0.70268  -0.70096
 Alpha  occ. eigenvalues --   -0.70020  -0.69356  -0.68926  -0.68097  -0.67847
 Alpha  occ. eigenvalues --   -0.67775  -0.67492  -0.67341  -0.67047  -0.66867
 Alpha  occ. eigenvalues --   -0.66331  -0.64711  -0.64710  -0.62487  -0.61926
 Alpha  occ. eigenvalues --   -0.61838  -0.61565  -0.61216  -0.61100  -0.61065
 Alpha  occ. eigenvalues --   -0.60715  -0.60216  -0.60170  -0.60007  -0.59279
 Alpha  occ. eigenvalues --   -0.58338  -0.58106  -0.58044  -0.57832  -0.57465
 Alpha  occ. eigenvalues --   -0.57354  -0.56791  -0.56672  -0.56317  -0.55916
 Alpha  occ. eigenvalues --   -0.55514  -0.55398  -0.55334  -0.54878  -0.54726
 Alpha  occ. eigenvalues --   -0.54591  -0.54344  -0.54258  -0.54148  -0.54052
 Alpha  occ. eigenvalues --   -0.54006  -0.53810  -0.53552  -0.53446  -0.53413
 Alpha  occ. eigenvalues --   -0.53236  -0.53218  -0.53071  -0.52300  -0.52134
 Alpha  occ. eigenvalues --   -0.52084  -0.51929  -0.51913  -0.51810  -0.51522
 Alpha  occ. eigenvalues --   -0.51422  -0.51294  -0.50978  -0.50930  -0.50925
 Alpha  occ. eigenvalues --   -0.50456  -0.50379  -0.50333  -0.50203  -0.50016
 Alpha  occ. eigenvalues --   -0.49853  -0.49438  -0.49407  -0.49160  -0.49063
 Alpha  occ. eigenvalues --   -0.48837  -0.48709  -0.48649  -0.48642  -0.48534
 Alpha  occ. eigenvalues --   -0.48186  -0.48080  -0.47897  -0.47813  -0.47759
 Alpha  occ. eigenvalues --   -0.47629  -0.47446  -0.47422  -0.47260  -0.47156
 Alpha  occ. eigenvalues --   -0.47091  -0.46844  -0.46663  -0.46489  -0.46472
 Alpha  occ. eigenvalues --   -0.46257  -0.45837  -0.45757  -0.45560  -0.45558
 Alpha  occ. eigenvalues --   -0.45400  -0.45377  -0.45094  -0.45084  -0.44958
 Alpha  occ. eigenvalues --   -0.44830  -0.44543  -0.44144  -0.44072  -0.44008
 Alpha  occ. eigenvalues --   -0.43857  -0.43802  -0.43794  -0.43378  -0.43330
 Alpha  occ. eigenvalues --   -0.43137  -0.42920  -0.42838  -0.42583  -0.42246
 Alpha  occ. eigenvalues --   -0.42204  -0.41863  -0.41630  -0.41413  -0.40297
 Alpha  occ. eigenvalues --   -0.40147  -0.40087  -0.39909  -0.39422  -0.39409
 Alpha  occ. eigenvalues --   -0.39242  -0.39202  -0.38779  -0.38705  -0.38280
 Alpha  occ. eigenvalues --   -0.37934  -0.37586  -0.36833  -0.36498  -0.36024
 Alpha  occ. eigenvalues --   -0.35917  -0.35765  -0.35365  -0.34036  -0.33280
 Alpha  occ. eigenvalues --   -0.33271  -0.32894  -0.32701  -0.32677  -0.32625
 Alpha  occ. eigenvalues --   -0.32231  -0.31700  -0.31647  -0.26483  -0.25798
 Alpha  occ. eigenvalues --   -0.23350  -0.22606
 Alpha virt. eigenvalues --   -0.07552  -0.06654  -0.00377   0.00184   0.01893
 Alpha virt. eigenvalues --    0.02588   0.04445   0.04685   0.05676   0.06120
 Alpha virt. eigenvalues --    0.06224   0.06610   0.07185   0.07940   0.08129

 Mulliken charges:
               1
     1  Mg   0.952614
     2  C   -0.030165
     3  C   -0.087594
     4  C   -0.053777
     5  C   -0.079048
     6  N   -0.317077
     7  C   -0.009041
     8  C   -0.054019
     9  C   -0.041576
    10  C   -0.008992
    11  C    0.019994
    12  C    0.021178
    13  C   -0.115164
    14  H    0.015619
    15  N   -0.461296
    16  C    0.197311
    17  C   -0.169613
    18  C   -0.061124
    19  C    0.119876
    20  C    0.061168
    21  C    0.038424
    22  O   -0.262806
    23  C    0.013490
    24  N   -0.333223
    25  C    0.064223
    26  C   -0.091907
    27  C   -0.098971
    28  C    0.041346
    29  C    0.031125
    30  C   -0.015249
    31  C   -0.053802
    32  N   -0.449456
    33  C    0.129888
    34  C   -0.162290
    35  C   -0.055493
    36  C    0.145302
    37  C    0.075979
    38  C    0.096363
    39  O   -0.183890
    40  C   -0.042046
    41  C    0.280558
    42  O   -0.276063
    43  O   -0.352442
    44  C    0.141012
    45  H   -0.023842
    46  H    0.028206
    47  H   -0.002406
    48  H    0.045938
    49  H    0.034457
    50  H    0.048883
    51  H    0.031133
    52  H    0.026866
    53  H    0.018627
    54  H    0.024798
    55  H    0.055085
    56  H    0.067009
    57  H    0.025632
    58  H    0.064213
    59  H    0.051450
    60  H    0.063674
    61  H    0.041596
    62  H    0.053083
    63  H    0.040553
    64  H    0.038370
    65  H    0.048241
    66  H    0.046065
    67  H    0.029729
    68  H    0.031762
    69  H    0.025732
    70  H    0.040592
    71  H    0.032175
    72  H    0.041541
    73  H    0.049763
    74  H    0.047503
    75  H    0.057494
    76  H    0.066893
    77  H    0.067226
    78  H    0.052480
    79  H    0.050133
    80  Mg   0.939127
    81  C   -0.063528
    82  C   -0.088041
    83  C   -0.039716
    84  C   -0.124275
    85  N   -0.332212
    86  C    0.013009
    87  C   -0.124811
    88  C   -0.102943
    89  C    0.083792
    90  C    0.035818
    91  C    0.029675
    92  C   -0.116588
    93  H    0.044741
    94  N   -0.455868
    95  C    0.158256
    96  C   -0.182130
    97  C   -0.057377
    98  C    0.198452
    99  C    0.076242
   100  C    0.004742
   101  O   -0.236034
   102  C    0.002941
   103  N   -0.353913
   104  C   -0.009574
   105  C   -0.086573
   106  C   -0.051283
   107  C    0.062268
   108  C    0.022940
   109  C   -0.053271
   110  C   -0.067791
   111  N   -0.434115
   112  C    0.194360
   113  C   -0.187357
   114  C    0.053595
   115  C    0.162296
   116  C    0.075198
   117  C    0.056250
   118  O   -0.207003
   119  C   -0.077509
   120  C    0.295496
   121  O   -0.257343
   122  O   -0.388886
   123  C    0.139769
   124  H   -0.000108
   125  H   -0.030094
   126  H   -0.003583
   127  H    0.037100
   128  H    0.045721
   129  H    0.048959
   130  H    0.034002
   131  H    0.036047
   132  H    0.037199
   133  H    0.027158
   134  H    0.055798
   135  H    0.044474
   136  H    0.060685
   137  H    0.065552
   138  H    0.024417
   139  H    0.059342
   140  H    0.051987
   141  H    0.063619
   142  H    0.053044
   143  H    0.024099
   144  H    0.042373
   145  H    0.053155
   146  H    0.040432
   147  H    0.043629
   148  H    0.030916
   149  H    0.022328
   150  H    0.047997
   151  H    0.040144
   152  H    0.047481
   153  H    0.037842
   154  H    0.062250
   155  H    0.083031
   156  H    0.056876
   157  H    0.068855
   158  H    0.036444
 Sum of Mulliken charges =  -0.00000

 Dipole moment (field-independent basis, Debye):
    X=             -0.6640    Y=             -1.5042    Z=             -1.3735  Tot=              2.1424
 Quadrupole moment (field-independent basis, Debye-Ang):
   XX=           -204.0648   YY=           -545.4706   ZZ=           -475.1168
   XY=             -2.8490   XZ=            125.8168   YZ=              8.3365

 Normal termination of Gaussian 16 at Sun Sep 19 22:39:56 2021.
