 Gaussian 16, Revision A.03,
 Gaussian 16:  ES64L-G16RevA.03 25-Dec-2016

 --------------------------------
 #p wB97XD/Def2SVP td=(nstates=5)
 --------------------------------

 --------------------------------
 TDDFT excited states in gaussian
 --------------------------------
 Symbolic Z-matrix:
 Charge =  0 Multiplicity = 1

                         Standard orientation:
 ---------------------------------------------------------------------
 Center     Atomic      Atomic             Coordinates (Angstroms)
 Number     Number       Type             X           Y           Z
 ---------------------------------------------------------------------
      1         12           0      -20.227494    0.600093    0.372957
      2          6           0      -19.426816   -2.114124   -1.557717
      3          6           0      -21.019681   -1.424813    2.916883
      4          6           0      -21.205847    3.351246    2.057337
      5          6           0      -19.852902    2.689432   -2.578927
      6          7           0      -20.469559   -1.597360    0.529432
      7          6           0      -19.982791   -2.508432   -0.321782
      8          6           0      -20.115292   -3.993774    0.296194
      9          6           0      -20.629096   -3.639516    1.741700
     10          6           0      -20.769238   -2.103974    1.758022
     11          6           0      -21.884447   -4.427650    2.163468
     12          6           0      -18.784514   -4.798305    0.287648
     13          6           0      -18.690877   -6.086145    1.169473
     14          1           0      -18.802178   -7.480234    0.443237
     15          7           0      -21.059286    0.913988    2.234288
     16          6           0      -21.213033   -0.006867    3.162921
     17          6           0      -21.709815    0.631648    4.372339
     18          6           0      -21.891033    2.029072    4.145100
     19          6           0      -21.371949    2.153509    2.765307
     20          6           0      -22.144973   -0.090808    5.636596
     21          6           0      -22.494318    3.112666    5.032765
     22          8           0      -22.835339    4.195916    4.566607
     23          6           0      -22.669305    2.833131    6.484444
     24          7           0      -20.533168    2.719810   -0.208172
     25          6           0      -20.890264    3.636122    0.683833
     26          6           0      -20.797345    5.062232    0.116312
     27          6           0      -20.173187    4.786168   -1.249090
     28          6           0      -20.225447    3.307688   -1.354454
     29          6           0      -22.079532    5.906773    0.073827
     30          6           0      -18.872586    5.509880   -1.489982
     31          6           0      -18.868687    6.559273   -2.658223
     32          7           0      -19.706594    0.390883   -1.592861
     33          6           0      -19.508097    1.317614   -2.670708
     34          6           0      -18.970334    0.654022   -3.837975
     35          6           0      -18.926330   -0.693257   -3.383108
     36          6           0      -19.381298   -0.783716   -2.061595
     37          6           0      -18.428279    1.188125   -5.116730
     38          6           0      -18.382297   -1.959614   -3.804159
     39          8           0      -17.670292   -2.323161   -4.752176
     40          6           0      -18.763624   -2.976911   -2.757949
     41          6           0      -19.867531   -3.885904   -3.341909
     42          8           0      -20.850669   -3.544826   -4.017284
     43          8           0      -19.580927   -5.167211   -2.974957
     44          6           0      -20.495495   -6.250649   -3.456282
     45          1           0      -21.191049   -1.959678    3.853382
     46          1           0      -21.684493    4.251097    2.449290
     47          1           0      -19.631086    3.396731   -3.380085
     48          1           0      -20.899206   -4.453532   -0.304545
     49          1           0      -19.821810   -3.863896    2.438833
     50          1           0      -21.728018   -4.741294    3.195008
     51          1           0      -22.011213   -5.337493    1.576666
     52          1           0      -22.778432   -3.809476    2.080399
     53          1           0      -18.058343   -4.146212    0.772959
     54          1           0      -18.539245   -5.101227   -0.730219
     55          1           0      -19.570487   -6.089843    1.814012
     56          1           0      -17.733852   -6.082796    1.690055
     57          1           0      -22.006588   -1.168215    5.546625
     58          1           0      -23.199777    0.107223    5.825494
     59          1           0      -21.591607    0.250962    6.510363
     60          1           0      -21.707577    2.440247    6.815514
     61          1           0      -23.419848    2.144112    6.870599
     62          1           0      -22.908643    3.726324    7.060519
     63          1           0      -20.088279    5.614594    0.731988
     64          1           0      -20.856868    5.181777   -1.999996
     65          1           0      -21.743491    6.907225    0.345232
     66          1           0      -22.842367    5.480198    0.724984
     67          1           0      -22.601632    5.884329   -0.882683
     68          1           0      -18.199300    4.720435   -1.822479
     69          1           0      -18.496131    6.036201   -0.613319
     70          1           0      -19.844151    6.578367   -3.144963
     71          1           0      -18.132417    6.223966   -3.389333
     72          1           0      -18.534068    7.560678   -2.387073
     73          1           0      -18.339666    2.272847   -5.062588
     74          1           0      -19.210386    1.008324   -5.853447
     75          1           0      -17.466377    0.688440   -5.240206
     76          1           0      -17.840036   -3.525403   -2.571933
     77          1           0      -21.559830   -6.045918   -3.338068
     78          1           0      -20.284578   -7.235326   -3.040427
     79          1           0      -20.348060   -6.292222   -4.535330
     80         12           0       20.707379    0.552731   -0.167783
     81          6           0       18.271419   -1.992180   -0.059434
     82          6           0       22.961725   -1.793758    0.996923
     83          6           0       23.143243    2.943819   -0.105708
     84          6           0       18.346850    2.801843   -0.966954
     85          7           0       20.628359   -1.680266    0.376585
     86          6           0       19.565767   -2.561647    0.217630
     87          6           0       20.036406   -3.992891    0.381360
     88          6           0       21.442206   -3.842310    1.068530
     89          6           0       21.688000   -2.377804    0.782970
     90          6           0       21.511354   -4.265721    2.588134
     91          6           0       20.186975   -4.737257   -0.953707
     92          6           0       19.801157   -6.220097   -0.927275
     93          1           0       20.707216   -7.207775   -0.140750
     94          7           0       22.773756    0.564746    0.278960
     95          6           0       23.437553   -0.507324    0.769402
     96          6           0       24.768464   -0.108292    1.093979
     97          6           0       24.960679    1.250202    0.664348
     98          6           0       23.607512    1.643911    0.313618
     99          6           0       25.754887   -1.051065    1.725433
    100          6           0       26.182515    2.168402    0.699610
    101          8           0       26.189702    3.276202    0.118854
    102          6           0       27.435345    1.837273    1.502626
    103          7           0       20.753188    2.539071   -0.574440
    104          6           0       21.854111    3.376428   -0.421461
    105          6           0       21.435287    4.784919   -0.692686
    106          6           0       19.905540    4.814714   -1.049403
    107          6           0       19.618919    3.310804   -0.910508
    108          6           0       21.891055    5.818201    0.381144
    109          6           0       19.559594    5.346795   -2.457012
    110          6           0       19.166022    6.836541   -2.471664
    111          7           0       18.746188    0.501070   -0.416805
    112          6           0       17.845791    1.487338   -0.817153
    113          6           0       16.446881    0.953439   -1.011538
    114          6           0       16.628945   -0.398355   -0.677407
    115          6           0       18.009992   -0.637949   -0.384585
    116          6           0       15.224214    1.738971   -1.449510
    117          6           0       15.888181   -1.645358   -0.560699
    118          8           0       14.690585   -1.890891   -0.710785
    119          6           0       16.991530   -2.748618   -0.267704
    120          6           0       16.482444   -3.510492    0.971718
    121          8           0       15.944405   -3.025981    1.945856
    122          8           0       16.586027   -4.878091    0.724788
    123          6           0       16.119843   -5.697356    1.843682
    124          1           0       23.664046   -2.577381    1.288047
    125          1           0       23.841394    3.782889   -0.129142
    126          1           0       17.627104    3.611000   -1.104760
    127          1           0       19.413963   -4.603652    1.034836
    128          1           0       22.233560   -4.444896    0.622636
    129          1           0       20.607433   -4.724224    2.990166
    130          1           0       21.703435   -3.470329    3.307845
    131          1           0       22.270956   -5.032584    2.739967
    132          1           0       21.207825   -4.674201   -1.329820
    133          1           0       19.526974   -4.310693   -1.709314
    134          1           0       19.650002   -6.618997   -1.930241
    135          1           0       18.804224   -6.361345   -0.510330
    136          1           0       25.170699   -1.462735    2.548583
    137          1           0       26.651325   -0.622595    2.173435
    138          1           0       26.071908   -1.876154    1.088013
    139          1           0       27.178973    1.558250    2.524778
    140          1           0       27.992481    2.772201    1.444337
    141          1           0       27.969508    0.992892    1.066993
    142          1           0       22.063558    5.142549   -1.509020
    143          1           0       19.269625    5.320925   -0.321992
    144          1           0       22.390246    5.267672    1.178828
    145          1           0       21.008850    6.304305    0.796841
    146          1           0       22.579875    6.469597   -0.157771
    147          1           0       18.827688    4.664723   -2.889102
    148          1           0       20.442353    5.353334   -3.096756
    149          1           0       19.594743    7.339684   -1.604755
    150          1           0       18.103990    7.062315   -2.373892
    151          1           0       19.607532    7.290645   -3.359267
    152          1           0       15.348397    1.961541   -2.509439
    153          1           0       15.075814    2.696775   -0.951215
    154          1           0       14.375716    1.074053   -1.288934
    155          1           0       17.170441   -3.462565   -1.071455
    156          1           0       16.886298   -5.948781    2.577400
    157          1           0       15.713991   -6.586018    1.360494
    158          1           0       15.337329   -5.310470    2.496419
 ---------------------------------------------------------------------

 SCF Done:  E(RwB97XD) =  -4070.63997173     A.U. after   19 cycles

 Excitation energies and oscillator strengths:

 Excited State   1:      Singlet-A      1.6476 eV  752.50 nm  f=0.3776  <S**2>=0.000
     309 -> 315        0.19167
     311 -> 313        0.68111
     309 <- 315        0.11852
 This state for optimization and/or second-order correction.
 Total Energy, E(TD-HF/TD-DFT) =  -4070.57942261
 Copying the excited state density for this state as the 1-particle RhoCI density.

 Excited State   2:      Singlet-A      1.6636 eV  745.28 nm  f=0.3976  <S**2>=0.000
     310 -> 316       -0.18161
     312 -> 314        0.68130
     310 <- 316       -0.11246

 Excited State   3:      Singlet-A      2.1798 eV  568.79 nm  f=0.0965  <S**2>=0.000
     309 -> 313        0.63419
     311 -> 315       -0.30015

 Excited State   4:      Singlet-A      2.2222 eV  557.94 nm  f=0.1097  <S**2>=0.000
     310 -> 314        0.63694
     312 -> 316        0.28921

 Excited State   5:      Singlet-A      3.4329 eV  361.17 nm  f=0.1146  <S**2>=0.000
     305 -> 313        0.16750
     306 -> 313        0.56575
     309 -> 313        0.11131
     311 -> 315        0.34328

 The electronic state is 1-A.
 Alpha  occ. eigenvalues --  -46.95503 -46.93986 -19.30979 -19.30801 -19.25335
 Alpha  occ. eigenvalues --  -19.24548 -19.24360 -19.24266 -19.24131 -19.22706
 Alpha  occ. eigenvalues --  -14.47289 -14.46628 -14.46237 -14.45875 -14.44653
 Alpha  occ. eigenvalues --  -14.44487 -14.44098 -14.43848 -10.43535 -10.43377
 Alpha  occ. eigenvalues --  -10.40049 -10.39858 -10.39092 -10.37318 -10.35890
 Alpha  occ. eigenvalues --  -10.35691 -10.35452 -10.35222 -10.34969 -10.34902
 Alpha  occ. eigenvalues --  -10.34830 -10.34793 -10.34453 -10.34402 -10.34317
 Alpha  occ. eigenvalues --  -10.34313 -10.34279 -10.33994 -10.33947 -10.33653
 Alpha  occ. eigenvalues --  -10.33308 -10.33191 -10.33078 -10.32918 -10.32884
 Alpha  occ. eigenvalues --  -10.32834 -10.32758 -10.32703 -10.32696 -10.32585
 Alpha  occ. eigenvalues --  -10.32435 -10.32401 -10.32152 -10.32123 -10.32093
 Alpha  occ. eigenvalues --  -10.31895 -10.31773 -10.31686 -10.31632 -10.31544
 Alpha  occ. eigenvalues --  -10.31300 -10.31224 -10.31163 -10.31020 -10.31018
 Alpha  occ. eigenvalues --  -10.30940 -10.30691 -10.30679 -10.30576 -10.30478
 Alpha  occ. eigenvalues --  -10.30380 -10.30316 -10.30255 -10.30244 -10.30211
 Alpha  occ. eigenvalues --  -10.30154 -10.30084 -10.30032 -10.30008 -10.29973
 Alpha  occ. eigenvalues --  -10.29716 -10.29525 -10.29507 -10.29478 -10.29369
 Alpha  occ. eigenvalues --  -10.28399  -3.21469  -3.20180  -1.95050  -1.94583
 Alpha  occ. eigenvalues --   -1.94453  -1.93775  -1.93285  -1.93198  -1.18458
 Alpha  occ. eigenvalues --   -1.17690  -1.12585  -1.11444  -1.11163  -1.10375
 Alpha  occ. eigenvalues --   -1.10153  -1.08689  -1.07699  -1.06723  -1.06377
 Alpha  occ. eigenvalues --   -1.05874  -1.05743  -1.05073  -1.04952  -1.03445
 Alpha  occ. eigenvalues --   -0.94538  -0.93206  -0.91745  -0.91293  -0.90915
 Alpha  occ. eigenvalues --   -0.90553  -0.90210  -0.90068  -0.89467  -0.89398
 Alpha  occ. eigenvalues --   -0.89050  -0.88987  -0.88916  -0.88082  -0.86323
 Alpha  occ. eigenvalues --   -0.86074  -0.85434  -0.85188  -0.84256  -0.84214
 Alpha  occ. eigenvalues --   -0.84028  -0.83667  -0.83000  -0.82915  -0.82043
 Alpha  occ. eigenvalues --   -0.81970  -0.80462  -0.80431  -0.79441  -0.79382
 Alpha  occ. eigenvalues --   -0.79196  -0.78634  -0.78086  -0.77980  -0.77253
 Alpha  occ. eigenvalues --   -0.77001  -0.74672  -0.74598  -0.73632  -0.73630
 Alpha  occ. eigenvalues --   -0.71349  -0.71330  -0.71029  -0.70734  -0.70159
 Alpha  occ. eigenvalues --   -0.69664  -0.69545  -0.69325  -0.67740  -0.67720
 Alpha  occ. eigenvalues --   -0.67443  -0.66860  -0.66486  -0.66381  -0.66161
 Alpha  occ. eigenvalues --   -0.65870  -0.64586  -0.64552  -0.62700  -0.62362
 Alpha  occ. eigenvalues --   -0.62149  -0.61587  -0.60938  -0.60836  -0.60584
 Alpha  occ. eigenvalues --   -0.60475  -0.59947  -0.59701  -0.59495  -0.59334
 Alpha  occ. eigenvalues --   -0.58277  -0.58034  -0.57610  -0.57458  -0.57083
 Alpha  occ. eigenvalues --   -0.57047  -0.56536  -0.56431  -0.56028  -0.55753
 Alpha  occ. eigenvalues --   -0.55650  -0.55426  -0.55313  -0.55085  -0.54820
 Alpha  occ. eigenvalues --   -0.54707  -0.54509  -0.54448  -0.54116  -0.54081
 Alpha  occ. eigenvalues --   -0.53776  -0.53696  -0.53590  -0.53164  -0.53091
 Alpha  occ. eigenvalues --   -0.53013  -0.52613  -0.52419  -0.52392  -0.52195
 Alpha  occ. eigenvalues --   -0.51997  -0.51828  -0.51724  -0.51701  -0.51566
 Alpha  occ. eigenvalues --   -0.51267  -0.51242  -0.51011  -0.50962  -0.50849
 Alpha  occ. eigenvalues --   -0.50847  -0.50447  -0.50401  -0.50189  -0.50092
 Alpha  occ. eigenvalues --   -0.50005  -0.49724  -0.49586  -0.49580  -0.49325
 Alpha  occ. eigenvalues --   -0.49204  -0.48774  -0.48700  -0.48592  -0.48452
 Alpha  occ. eigenvalues --   -0.48289  -0.48213  -0.48040  -0.47845  -0.47832
 Alpha  occ. eigenvalues --   -0.47451  -0.46877  -0.46836  -0.46641  -0.46586
 Alpha  occ. eigenvalues --   -0.46460  -0.46402  -0.46294  -0.46294  -0.46260
 Alpha  occ. eigenvalues --   -0.46030  -0.45900  -0.45740  -0.45518  -0.45500
 Alpha  occ. eigenvalues --   -0.45370  -0.45139  -0.44959  -0.44807  -0.44681
 Alpha  occ. eigenvalues --   -0.44634  -0.44300  -0.44143  -0.43942  -0.43860
 Alpha  occ. eigenvalues --   -0.43856  -0.43731  -0.43723  -0.43523  -0.43418
 Alpha  occ. eigenvalues --   -0.43112  -0.43067  -0.42974  -0.42688  -0.42398
 Alpha  occ. eigenvalues --   -0.42314  -0.42161  -0.41600  -0.41153  -0.40955
 Alpha  occ. eigenvalues --   -0.40601  -0.40239  -0.40147  -0.39860  -0.39750
 Alpha  occ. eigenvalues --   -0.39294  -0.39145  -0.38849  -0.38718  -0.38649
 Alpha  occ. eigenvalues --   -0.38173  -0.37851  -0.37150  -0.36956  -0.36237
 Alpha  occ. eigenvalues --   -0.35960  -0.35536  -0.35096  -0.33893  -0.33505
 Alpha  occ. eigenvalues --   -0.33298  -0.33156  -0.32938  -0.32757  -0.32681
 Alpha  occ. eigenvalues --   -0.32205  -0.31920  -0.31782  -0.25873  -0.25805
 Alpha  occ. eigenvalues --   -0.22888  -0.22886
 Alpha virt. eigenvalues --   -0.06917  -0.06869   0.00137   0.00186   0.02044
 Alpha virt. eigenvalues --    0.02657   0.03849   0.04646   0.05106   0.06780
 Alpha virt. eigenvalues --    0.07113   0.07421   0.07513   0.07862   0.08329

 Mulliken charges:
               1
     1  Mg   0.970363
     2  C   -0.074963
     3  C   -0.078780
     4  C   -0.049380
     5  C   -0.066334
     6  N   -0.355686
     7  C   -0.025979
     8  C   -0.008970
     9  C   -0.153413
    10  C    0.120041
    11  C    0.024329
    12  C   -0.009581
    13  C   -0.131317
    14  H    0.015011
    15  N   -0.438290
    16  C    0.116679
    17  C   -0.187181
    18  C   -0.059127
    19  C    0.130876
    20  C    0.069991
    21  C    0.087891
    22  O   -0.227334
    23  C   -0.033754
    24  N   -0.274040
    25  C   -0.007362
    26  C   -0.114699
    27  C   -0.055452
    28  C    0.009698
    29  C    0.036085
    30  C    0.000414
    31  C   -0.068113
    32  N   -0.456955
    33  C    0.123472
    34  C   -0.170429
    35  C   -0.076992
    36  C    0.206058
    37  C    0.109170
    38  C    0.102768
    39  O   -0.239363
    40  C   -0.055771
    41  C    0.293710
    42  O   -0.266051
    43  O   -0.365213
    44  C    0.138579
    45  H   -0.019872
    46  H    0.029504
    47  H    0.004092
    48  H    0.040430
    49  H    0.037113
    50  H    0.034004
    51  H    0.041459
    52  H    0.049627
    53  H    0.031972
    54  H    0.073417
    55  H    0.048289
    56  H    0.065696
    57  H    0.031706
    58  H    0.051367
    59  H    0.041131
    60  H    0.048920
    61  H    0.063248
    62  H    0.052467
    63  H    0.038879
    64  H    0.021302
    65  H    0.046518
    66  H    0.044262
    67  H    0.029749
    68  H    0.030546
    69  H    0.036946
    70  H    0.033055
    71  H    0.033458
    72  H    0.041972
    73  H    0.019326
    74  H    0.065389
    75  H    0.081129
    76  H    0.069708
    77  H    0.058532
    78  H    0.063582
    79  H    0.056469
    80  Mg   1.001345
    81  C   -0.064899
    82  C   -0.110712
    83  C   -0.083597
    84  C   -0.100603
    85  N   -0.307692
    86  C    0.022531
    87  C   -0.031883
    88  C   -0.097690
    89  C    0.019004
    90  C    0.007951
    91  C    0.023223
    92  C   -0.123404
    93  H    0.016989
    94  N   -0.427886
    95  C    0.223946
    96  C   -0.180488
    97  C   -0.042817
    98  C    0.127705
    99  C    0.061916
   100  C    0.049249
   101  O   -0.257572
   102  C   -0.023896
   103  N   -0.456642
   104  C    0.109036
   105  C   -0.100413
   106  C   -0.055384
   107  C    0.059227
   108  C    0.015937
   109  C    0.000273
   110  C   -0.055614
   111  N   -0.483334
   112  C    0.140225
   113  C   -0.167177
   114  C   -0.071754
   115  C    0.182716
   116  C    0.080918
   117  C    0.161320
   118  O   -0.208530
   119  C   -0.105905
   120  C    0.266319
   121  O   -0.223792
   122  O   -0.369650
   123  C    0.126377
   124  H   -0.009047
   125  H    0.016349
   126  H   -0.010457
   127  H    0.030647
   128  H    0.039936
   129  H    0.034294
   130  H    0.041849
   131  H    0.034272
   132  H    0.040680
   133  H    0.036931
   134  H    0.048563
   135  H    0.050343
   136  H    0.046118
   137  H    0.026829
   138  H    0.058701
   139  H    0.061391
   140  H    0.063752
   141  H    0.063684
   142  H    0.042778
   143  H    0.042918
   144  H    0.043662
   145  H    0.034099
   146  H    0.043586
   147  H    0.037039
   148  H    0.028026
   149  H    0.024550
   150  H    0.041177
   151  H    0.040920
   152  H    0.050574
   153  H    0.047739
   154  H    0.066175
   155  H    0.072925
   156  H    0.043189
   157  H    0.055714
   158  H    0.065222
 Sum of Mulliken charges =  -0.00000

 Dipole moment (field-independent basis, Debye):
    X=              4.1135    Y=             -1.3847    Z=              5.7743  Tot=              7.2236
 Quadrupole moment (field-independent basis, Debye-Ang):
   XX=           -391.6651   YY=           -456.9535   ZZ=           -508.8205
   XY=            -40.6421   XZ=            -73.9602   YZ=            -35.6739

 Normal termination of Gaussian 16 at Sun Sep 19 07:16:03 2021.
