 Gaussian 16, Revision A.03,
 Gaussian 16:  ES64L-G16RevA.03 25-Dec-2016

 --------------------------------
 #p wB97XD/Def2SVP td=(nstates=5)
 --------------------------------

 --------------------------------
 TDDFT excited states in gaussian
 --------------------------------
 Symbolic Z-matrix:
 Charge =  0 Multiplicity = 1

                         Standard orientation:
 ---------------------------------------------------------------------
 Center     Atomic      Atomic             Coordinates (Angstroms)
 Number     Number       Type             X           Y           Z
 ---------------------------------------------------------------------
      1         12           0       28.587612    0.450455   -0.171295
      2          6           0       25.992025   -1.851492    0.292653
      3          6           0       26.141036    2.890540   -0.026652
      4          6           0       31.018176    2.736675   -0.258234
      5          6           0       30.912248   -2.057341    0.554938
      6          7           0       26.212171    0.457258    0.323836
      7          6           0       25.403171   -0.619289    0.344840
      8          6           0       23.943378   -0.274656    0.517633
      9          6           0       24.066060    1.241419    0.104113
     10          6           0       25.542569    1.617730    0.172269
     11          6           0       23.577884    1.433100   -1.356619
     12          6           0       23.440863   -0.656589    1.915697
     13          6           0       24.343916   -0.426468    3.145340
     14          1           0       23.692134    0.279818    4.328228
     15          7           0       28.589515    2.496076   -0.157801
     16          6           0       27.473667    3.288253   -0.216608
     17          6           0       27.862285    4.621754   -0.693972
     18          6           0       29.311815    4.677950   -0.626416
     19          6           0       29.682991    3.256273   -0.351655
     20          6           0       26.836842    5.811219   -0.833046
     21          6           0       30.193313    5.916485   -0.805477
     22          8           0       29.717510    6.958428   -1.161459
     23          6           0       31.674949    5.822858   -0.580837
     24          7           0       30.697411    0.332929    0.339082
     25          6           0       31.563737    1.419531    0.117451
     26          6           0       33.090638    1.050707    0.345120
     27          6           0       33.001341   -0.536968    0.544894
     28          6           0       31.429180   -0.795589    0.433752
     29          6           0       34.205882    1.506446   -0.722747
     30          6           0       33.656258   -1.151117    1.865079
     31          6           0       34.262059   -2.611066    1.569171
     32          7           0       28.542518   -1.589460    0.280553
     33          6           0       29.575422   -2.487115    0.459213
     34          6           0       29.024048   -3.830348    0.589541
     35          6           0       27.616045   -3.701589    0.471625
     36          6           0       27.362966   -2.286686    0.361449
     37          6           0       29.802348   -5.118942    0.641076
     38          6           0       26.267481   -4.354581    0.524513
     39          8           0       25.961675   -5.498483    0.777636
     40          6           0       25.225991   -3.168443    0.353417
     41          6           0       24.456511   -3.452039   -0.907351
     42          8           0       23.538115   -4.305280   -0.992967
     43          8           0       24.814853   -2.537202   -1.886856
     44          6           0       24.002103   -2.541786   -3.057082
     45          1           0       25.363178    3.655636   -0.073464
     46          1           0       31.895257    3.351947   -0.470552
     47          1           0       31.657735   -2.855031    0.580449
     48          1           0       23.326111   -0.733580   -0.254454
     49          1           0       23.528763    1.977851    0.700137
     50          1           0       24.192308    2.232120   -1.772239
     51          1           0       22.502136    1.601148   -1.381776
     52          1           0       23.779134    0.652704   -2.091172
     53          1           0       23.311354   -1.738201    1.893466
     54          1           0       22.479141   -0.168336    2.073635
     55          1           0       25.179596    0.209442    2.854224
     56          1           0       24.660563   -1.400130    3.518154
     57          1           0       26.547792    6.284420    0.105768
     58          1           0       25.940731    5.460875   -1.345352
     59          1           0       27.131359    6.621788   -1.498639
     60          1           0       32.152131    6.803340   -0.591678
     61          1           0       32.181127    5.192737   -1.312432
     62          1           0       31.720047    5.492236    0.457171
     63          1           0       33.254266    1.559034    1.294604
     64          1           0       33.447898   -1.062243   -0.298874
     65          1           0       34.567163    2.485016   -0.408706
     66          1           0       33.798497    1.550216   -1.732429
     67          1           0       35.002991    0.762719   -0.725683
     68          1           0       32.896643   -1.359526    2.618419
     69          1           0       34.392178   -0.469580    2.292445
     70          1           0       33.768955   -3.369229    2.177696
     71          1           0       35.325528   -2.615979    1.806351
     72          1           0       34.127181   -3.049522    0.581002
     73          1           0       30.470052   -5.081977    1.501170
     74          1           0       30.404348   -5.218504   -0.262387
     75          1           0       29.158603   -5.987654    0.778054
     76          1           0       24.522245   -3.320991    1.171388
     77          1           0       24.310352   -1.726005   -3.710581
     78          1           0       22.942278   -2.556003   -2.802189
     79          1           0       24.199904   -3.407393   -3.689243
     80         12           0      -28.675196    0.373046    0.248102
     81          6           0      -26.801223   -2.382162   -0.820401
     82          6           0      -28.458789    1.725655   -2.883068
     83          6           0      -30.150553    3.092622    1.417898
     84          6           0      -28.659024   -1.065265    3.520322
     85          7           0      -27.677917   -0.267260   -1.624656
     86          6           0      -27.021552   -1.448042   -1.892303
     87          6           0      -26.798591   -1.605882   -3.385063
     88          6           0      -27.087467   -0.156059   -3.942235
     89          6           0      -27.881806    0.432587   -2.726805
     90          6           0      -25.827158    0.641804   -4.251684
     91          6           0      -27.626812   -2.828108   -3.925516
     92          6           0      -27.628568   -2.936012   -5.475701
     93          1           0      -26.402735   -2.412797   -6.195094
     94          7           0      -29.223587    2.093599   -0.590624
     95          6           0      -28.963833    2.539325   -1.880462
     96          6           0      -29.454182    3.912601   -2.092252
     97          6           0      -29.985941    4.280546   -0.818072
     98          6           0      -29.786092    3.134583    0.065094
     99          6           0      -29.393237    4.604476   -3.402337
    100          6           0      -30.612478    5.605281   -0.466655
    101          8           0      -31.100112    5.831673    0.675389
    102          6           0      -30.758117    6.697116   -1.491721
    103          7           0      -29.368192    0.906562    2.207368
    104          6           0      -29.939049    2.100005    2.372731
    105          6           0      -30.245059    2.358609    3.913382
    106          6           0      -29.711527    0.992407    4.623158
    107          6           0      -29.203066    0.235514    3.395435
    108          6           0      -29.487994    3.675201    4.362086
    109          6           0      -30.842142    0.141740    5.345117
    110          6           0      -31.159925    0.545447    6.813544
    111          7           0      -27.874132   -1.283580    1.214757
    112          6           0      -28.030774   -1.824886    2.518092
    113          6           0      -27.335893   -3.183829    2.593445
    114          6           0      -26.778339   -3.413467    1.339689
    115          6           0      -27.208468   -2.256304    0.513959
    116          6           0      -27.289875   -4.127297    3.754331
    117          6           0      -26.044595   -4.335094    0.504280
    118          8           0      -25.530685   -5.434136    0.735360
    119          6           0      -26.181122   -3.788799   -1.002725
    120          6           0      -24.862167   -3.772614   -1.740912
    121          8           0      -24.079618   -2.861980   -1.700417
    122          8           0      -24.779052   -4.843378   -2.659475
    123          6           0      -23.798344   -4.721995   -3.748604
    124          1           0      -28.261557    2.042073   -3.909791
    125          1           0      -30.623313    3.999339    1.801471
    126          1           0      -28.525658   -1.509923    4.508827
    127          1           0      -25.750339   -1.862449   -3.532797
    128          1           0      -27.750910   -0.107162   -4.806294
    129          1           0      -25.912357    0.928860   -5.299641
    130          1           0      -24.961616    0.035537   -3.985505
    131          1           0      -25.822926    1.624095   -3.779861
    132          1           0      -28.542986   -2.737414   -3.342824
    133          1           0      -27.136857   -3.709381   -3.512871
    134          1           0      -28.522076   -2.379280   -5.758320
    135          1           0      -27.737755   -3.987968   -5.739072
    136          1           0      -28.717028    5.433836   -3.195678
    137          1           0      -30.370860    4.911240   -3.773198
    138          1           0      -28.945166    4.096363   -4.257203
    139          1           0      -31.425629    6.353550   -2.280777
    140          1           0      -29.706133    6.803026   -1.759611
    141          1           0      -31.082217    7.669655   -1.122314
    142          1           0      -31.333836    2.414223    3.880358
    143          1           0      -28.781140    1.049246    5.189778
    144          1           0      -28.891812    4.143527    3.579115
    145          1           0      -28.805997    3.448200    5.181947
    146          1           0      -30.272598    4.393294    4.598661
    147          1           0      -30.713409   -0.929806    5.195107
    148          1           0      -31.759146    0.349053    4.794504
    149          1           0      -32.228681    0.752504    6.855249
    150          1           0      -30.514906    1.379743    7.089534
    151          1           0      -30.959867   -0.266129    7.513536
    152          1           0      -27.952350   -4.954223    3.497628
    153          1           0      -27.606537   -3.619646    4.666242
    154          1           0      -26.337473   -4.604039    3.985230
    155          1           0      -26.903790   -4.440734   -1.492614
    156          1           0      -22.841460   -4.965714   -3.287769
    157          1           0      -23.885094   -3.753321   -4.241203
    158          1           0      -24.091073   -5.453808   -4.501029
 ---------------------------------------------------------------------

 SCF Done:  E(RwB97XD) =  -4070.62051639     A.U. after   18 cycles

 Excitation energies and oscillator strengths:

 Excited State   1:      Singlet-A      1.6549 eV  749.21 nm  f=0.3772  <S**2>=0.000
     310 -> 315        0.20543
     312 -> 314        0.67803
     310 <- 315        0.12142
 This state for optimization and/or second-order correction.
 Total Energy, E(TD-HF/TD-DFT) =  -4070.55970096
 Copying the excited state density for this state as the 1-particle RhoCI density.

 Excited State   2:      Singlet-A      1.6941 eV  731.87 nm  f=0.3596  <S**2>=0.000
     309 -> 316       -0.19921
     311 -> 313        0.67861
     309 <- 316       -0.11862

 Excited State   3:      Singlet-A      2.1842 eV  567.64 nm  f=0.1018  <S**2>=0.000
     309 -> 313        0.63337
     311 -> 316        0.30090

 Excited State   4:      Singlet-A      2.2347 eV  554.82 nm  f=0.0335  <S**2>=0.000
     310 -> 314        0.58751
     312 -> 315       -0.38606

 Excited State   5:      Singlet-A      3.3774 eV  367.10 nm  f=0.7593  <S**2>=0.000
     302 -> 314       -0.13155
     310 -> 314        0.37255
     312 -> 315        0.57841
     310 <- 314       -0.11395

 The electronic state is 1-A.
 Alpha  occ. eigenvalues --  -46.96733 -46.94408 -19.31240 -19.29207 -19.25214
 Alpha  occ. eigenvalues --  -19.24978 -19.24562 -19.24257 -19.24070 -19.23447
 Alpha  occ. eigenvalues --  -14.46836 -14.46731 -14.46403 -14.46118 -14.45123
 Alpha  occ. eigenvalues --  -14.44568 -14.44498 -14.44038 -10.43841 -10.43270
 Alpha  occ. eigenvalues --  -10.39800 -10.39572 -10.39282 -10.39229 -10.36948
 Alpha  occ. eigenvalues --  -10.35943 -10.35697 -10.35478 -10.35175 -10.34952
 Alpha  occ. eigenvalues --  -10.34932 -10.34752 -10.34653 -10.34554 -10.34381
 Alpha  occ. eigenvalues --  -10.34362 -10.34358 -10.34189 -10.34165 -10.33951
 Alpha  occ. eigenvalues --  -10.33794 -10.33584 -10.33551 -10.33483 -10.33400
 Alpha  occ. eigenvalues --  -10.33244 -10.33233 -10.33013 -10.32607 -10.32582
 Alpha  occ. eigenvalues --  -10.32495 -10.32473 -10.32440 -10.32341 -10.32284
 Alpha  occ. eigenvalues --  -10.32237 -10.32159 -10.32135 -10.32031 -10.31898
 Alpha  occ. eigenvalues --  -10.31809 -10.31796 -10.31744 -10.31726 -10.31691
 Alpha  occ. eigenvalues --  -10.31620 -10.31561 -10.31105 -10.30978 -10.30808
 Alpha  occ. eigenvalues --  -10.30629 -10.30371 -10.30321 -10.30299 -10.30273
 Alpha  occ. eigenvalues --  -10.30146 -10.30111 -10.30108 -10.30076 -10.30045
 Alpha  occ. eigenvalues --  -10.29925 -10.29778 -10.29610 -10.29420 -10.29189
 Alpha  occ. eigenvalues --  -10.29188  -3.22578  -3.20508  -1.96122  -1.95711
 Alpha  occ. eigenvalues --   -1.95528  -1.94108  -1.93620  -1.93511  -1.18621
 Alpha  occ. eigenvalues --   -1.17611  -1.13745  -1.12876  -1.11368  -1.10017
 Alpha  occ. eigenvalues --   -1.09973  -1.09240  -1.06790  -1.06319  -1.05954
 Alpha  occ. eigenvalues --   -1.05470  -1.04945  -1.04817  -1.03899  -1.03395
 Alpha  occ. eigenvalues --   -0.94459  -0.93571  -0.90887  -0.90844  -0.90425
 Alpha  occ. eigenvalues --   -0.90291  -0.89740  -0.89582  -0.89479  -0.89257
 Alpha  occ. eigenvalues --   -0.88636  -0.88231  -0.87972  -0.87663  -0.86754
 Alpha  occ. eigenvalues --   -0.86144  -0.85242  -0.84838  -0.84608  -0.84110
 Alpha  occ. eigenvalues --   -0.83806  -0.83800  -0.82745  -0.82681  -0.82336
 Alpha  occ. eigenvalues --   -0.81951  -0.80932  -0.79489  -0.79338  -0.79215
 Alpha  occ. eigenvalues --   -0.78886  -0.78626  -0.78317  -0.77690  -0.77274
 Alpha  occ. eigenvalues --   -0.76473  -0.74786  -0.74060  -0.74033  -0.73428
 Alpha  occ. eigenvalues --   -0.71853  -0.71336  -0.71328  -0.70505  -0.70280
 Alpha  occ. eigenvalues --   -0.70216  -0.69200  -0.69077  -0.67820  -0.67400
 Alpha  occ. eigenvalues --   -0.67105  -0.66846  -0.66836  -0.66613  -0.65905
 Alpha  occ. eigenvalues --   -0.65755  -0.65686  -0.63263  -0.62652  -0.62073
 Alpha  occ. eigenvalues --   -0.61459  -0.61262  -0.60934  -0.60693  -0.60149
 Alpha  occ. eigenvalues --   -0.59727  -0.59707  -0.59514  -0.59329  -0.58754
 Alpha  occ. eigenvalues --   -0.58260  -0.58122  -0.58014  -0.57809  -0.57471
 Alpha  occ. eigenvalues --   -0.56997  -0.56519  -0.56204  -0.56122  -0.55874
 Alpha  occ. eigenvalues --   -0.55646  -0.55593  -0.55189  -0.55131  -0.55012
 Alpha  occ. eigenvalues --   -0.54755  -0.54436  -0.54137  -0.53841  -0.53823
 Alpha  occ. eigenvalues --   -0.53639  -0.53617  -0.53347  -0.53344  -0.53085
 Alpha  occ. eigenvalues --   -0.53022  -0.52781  -0.52639  -0.52472  -0.52385
 Alpha  occ. eigenvalues --   -0.52028  -0.52004  -0.51900  -0.51673  -0.51492
 Alpha  occ. eigenvalues --   -0.51450  -0.51367  -0.51225  -0.50910  -0.50879
 Alpha  occ. eigenvalues --   -0.50770  -0.50588  -0.50421  -0.50291  -0.50046
 Alpha  occ. eigenvalues --   -0.50011  -0.49500  -0.49348  -0.49263  -0.49169
 Alpha  occ. eigenvalues --   -0.48876  -0.48773  -0.48623  -0.48252  -0.48093
 Alpha  occ. eigenvalues --   -0.48003  -0.47999  -0.47664  -0.47616  -0.47502
 Alpha  occ. eigenvalues --   -0.47445  -0.47241  -0.47128  -0.47108  -0.47086
 Alpha  occ. eigenvalues --   -0.46822  -0.46760  -0.46614  -0.46170  -0.46095
 Alpha  occ. eigenvalues --   -0.45904  -0.45890  -0.45802  -0.45594  -0.45408
 Alpha  occ. eigenvalues --   -0.45385  -0.45227  -0.45058  -0.44991  -0.44924
 Alpha  occ. eigenvalues --   -0.44826  -0.44693  -0.44467  -0.44237  -0.44216
 Alpha  occ. eigenvalues --   -0.44162  -0.44091  -0.43920  -0.43628  -0.43481
 Alpha  occ. eigenvalues --   -0.43287  -0.43119  -0.42816  -0.42255  -0.42246
 Alpha  occ. eigenvalues --   -0.42075  -0.41814  -0.41107  -0.41001  -0.40948
 Alpha  occ. eigenvalues --   -0.40845  -0.40457  -0.40094  -0.40072  -0.39887
 Alpha  occ. eigenvalues --   -0.39345  -0.39221  -0.38818  -0.38783  -0.38243
 Alpha  occ. eigenvalues --   -0.38238  -0.37798  -0.36668  -0.36475  -0.36396
 Alpha  occ. eigenvalues --   -0.36132  -0.35402  -0.35380  -0.33551  -0.33469
 Alpha  occ. eigenvalues --   -0.33220  -0.33058  -0.32920  -0.32809  -0.32587
 Alpha  occ. eigenvalues --   -0.32443  -0.32224  -0.31853  -0.25950  -0.25904
 Alpha  occ. eigenvalues --   -0.23207  -0.22212
 Alpha virt. eigenvalues --   -0.06980  -0.06230  -0.00232  -0.00170   0.01844
 Alpha virt. eigenvalues --    0.02190   0.03934   0.04152   0.04264   0.06322
 Alpha virt. eigenvalues --    0.06666   0.06713   0.07707   0.07907   0.08493

 Mulliken charges:
               1
     1  Mg   0.955036
     2  C    0.126876
     3  C   -0.086887
     4  C   -0.102829
     5  C   -0.086863
     6  N   -0.280204
     7  C   -0.106239
     8  C    0.024723
     9  C   -0.115349
    10  C    0.019688
    11  C    0.018047
    12  C    0.021159
    13  C   -0.133118
    14  H    0.032717
    15  N   -0.458748
    16  C    0.175511
    17  C   -0.148423
    18  C   -0.099988
    19  C    0.211685
    20  C    0.047936
    21  C    0.038205
    22  O   -0.200632
    23  C   -0.012890
    24  N   -0.368207
    25  C    0.007624
    26  C   -0.062944
    27  C   -0.084169
    28  C    0.069713
    29  C    0.005015
    30  C   -0.009850
    31  C   -0.094177
    32  N   -0.439852
    33  C    0.138904
    34  C   -0.213545
    35  C   -0.016282
    36  C    0.078828
    37  C    0.071681
    38  C    0.139988
    39  O   -0.173415
    40  C   -0.211102
    41  C    0.295860
    42  O   -0.266908
    43  O   -0.352100
    44  C    0.141345
    45  H    0.007247
    46  H   -0.025095
    47  H   -0.020854
    48  H    0.029492
    49  H    0.028331
    50  H    0.024556
    51  H    0.050180
    52  H    0.027397
    53  H    0.036962
    54  H    0.046197
    55  H    0.070660
    56  H    0.060465
    57  H    0.063275
    58  H    0.025801
    59  H    0.056064
    60  H    0.046991
    61  H    0.080154
    62  H    0.053759
    63  H    0.053699
    64  H    0.040265
    65  H    0.049430
    66  H    0.047503
    67  H    0.050475
    68  H    0.049746
    69  H    0.043971
    70  H    0.038464
    71  H    0.044453
    72  H    0.040075
    73  H    0.037449
    74  H    0.051958
    75  H    0.058898
    76  H    0.085142
    77  H    0.049501
    78  H    0.054967
    79  H    0.046601
    80  Mg   0.984895
    81  C   -0.029990
    82  C   -0.097600
    83  C   -0.088062
    84  C   -0.091612
    85  N   -0.320802
    86  C   -0.001196
    87  C   -0.052648
    88  C   -0.133792
    89  C    0.011197
    90  C    0.044499
    91  C   -0.023241
    92  C   -0.099786
    93  H    0.046661
    94  N   -0.499654
    95  C    0.214641
    96  C   -0.158600
    97  C   -0.076669
    98  C    0.175305
    99  C    0.073724
   100  C    0.037659
   101  O   -0.272519
   102  C    0.020760
   103  N   -0.348957
   104  C    0.045690
   105  C   -0.087811
   106  C   -0.049389
   107  C    0.040650
   108  C    0.013462
   109  C   -0.039891
   110  C   -0.032202
   111  N   -0.451905
   112  C    0.124821
   113  C   -0.194063
   114  C   -0.009001
   115  C    0.139252
   116  C    0.070658
   117  C    0.151136
   118  O   -0.214982
   119  C   -0.144246
   120  C    0.289145
   121  O   -0.219281
   122  O   -0.405864
   123  C    0.143379
   124  H   -0.011171
   125  H    0.021192
   126  H    0.001212
   127  H    0.028752
   128  H    0.029442
   129  H    0.028579
   130  H    0.059100
   131  H    0.036174
   132  H    0.041260
   133  H    0.036939
   134  H    0.058403
   135  H    0.059625
   136  H    0.054080
   137  H    0.057824
   138  H    0.036135
   139  H    0.065596
   140  H    0.039196
   141  H    0.055176
   142  H    0.050620
   143  H    0.044478
   144  H    0.052670
   145  H    0.038283
   146  H    0.049589
   147  H    0.034815
   148  H    0.019193
   149  H    0.041749
   150  H    0.039431
   151  H    0.036831
   152  H    0.060595
   153  H    0.027135
   154  H    0.060482
   155  H    0.091825
   156  H    0.068557
   157  H    0.050134
   158  H    0.052330
 Sum of Mulliken charges =  -0.00000

 Dipole moment (field-independent basis, Debye):
    X=              1.8152    Y=              4.8771    Z=             -5.5438  Tot=              7.6036
 Quadrupole moment (field-independent basis, Debye-Ang):
   XX=           -144.4381   YY=           -583.8894   ZZ=           -465.2585
   XY=             17.5702   XZ=             49.4874   YZ=              1.8229

 Normal termination of Gaussian 16 at Sun Sep 19 19:21:29 2021.
