 Gaussian 16, Revision A.03,
 Gaussian 16:  ES64L-G16RevA.03 25-Dec-2016

 --------------------------------
 #p wB97XD/Def2SVP td=(nstates=5)
 --------------------------------

 --------------------------------
 TDDFT excited states in gaussian
 --------------------------------
 Symbolic Z-matrix:
 Charge =  0 Multiplicity = 1

                         Standard orientation:
 ---------------------------------------------------------------------
 Center     Atomic      Atomic             Coordinates (Angstroms)
 Number     Number       Type             X           Y           Z
 ---------------------------------------------------------------------
      1         12           0      -22.825432    0.606781    0.490242
      2          6           0      -22.108727   -2.094969   -1.476689
      3          6           0      -23.410514   -1.359237    3.116029
      4          6           0      -23.689688    3.287016    2.130957
      5          6           0      -22.763663    2.529049   -2.510362
      6          7           0      -22.934843   -1.544407    0.755747
      7          6           0      -22.343494   -2.403412   -0.111681
      8          6           0      -22.015576   -3.719806    0.538128
      9          6           0      -22.715366   -3.538789    1.944656
     10          6           0      -23.129517   -2.083271    1.933509
     11          6           0      -23.861943   -4.538434    2.229315
     12          6           0      -20.410106   -4.093724    0.544330
     13          6           0      -19.983341   -5.505077    0.112819
     14          1           0      -21.047003   -6.638931    0.253874
     15          7           0      -23.272302    0.928582    2.330864
     16          6           0      -23.490025    0.024531    3.321312
     17          6           0      -23.964694    0.623714    4.544790
     18          6           0      -23.853731    1.965757    4.339479
     19          6           0      -23.711239    2.098724    2.856289
     20          6           0      -24.448217   -0.315288    5.634767
     21          6           0      -24.065178    3.117694    5.341951
     22          8           0      -24.003768    4.289433    5.050442
     23          6           0      -24.396630    2.660268    6.731728
     24          7           0      -23.337633    2.592076   -0.181861
     25          6           0      -23.537970    3.520558    0.770688
     26          6           0      -23.637314    4.920773    0.157274
     27          6           0      -23.027697    4.719940   -1.271642
     28          6           0      -23.061265    3.180325   -1.359457
     29          6           0      -25.053969    5.637994    0.136954
     30          6           0      -21.550210    5.224873   -1.479491
     31          6           0      -20.392014    4.718405   -0.660765
     32          7           0      -22.429528    0.389152   -1.589947
     33          6           0      -22.523482    1.213746   -2.715719
     34          6           0      -22.195372    0.485954   -3.948212
     35          6           0      -22.013291   -0.832436   -3.504442
     36          6           0      -22.167782   -0.797691   -2.082778
     37          6           0      -22.030561    1.033801   -5.342567
     38          6           0      -21.736857   -2.140407   -3.889190
     39          8           0      -21.561847   -2.672005   -4.974488
     40          6           0      -21.551277   -2.968766   -2.591523
     41          6           0      -22.351519   -4.183134   -2.870839
     42          8           0      -23.578266   -4.268880   -2.776158
     43          8           0      -21.569019   -5.186499   -3.364455
     44          6           0      -22.201223   -6.357596   -3.980053
     45          1           0      -23.403354   -2.008560    3.994228
     46          1           0      -23.917206    4.233395    2.624495
     47          1           0      -22.738188    3.244166   -3.336147
     48          1           0      -22.563189   -4.531552    0.059163
     49          1           0      -21.959203   -3.616879    2.725521
     50          1           0      -24.815544   -4.027241    2.097877
     51          1           0      -23.788213   -4.861060    3.267873
     52          1           0      -23.749035   -5.350778    1.511266
     53          1           0      -20.092799   -3.922871    1.573104
     54          1           0      -19.863596   -3.438819   -0.133555
     55          1           0      -19.180187   -5.867539    0.753879
     56          1           0      -19.555393   -5.470547   -0.888992
     57          1           0      -25.296847   -0.943210    5.362943
     58          1           0      -24.927755    0.078331    6.530787
     59          1           0      -23.522495   -0.835159    5.881572
     60          1           0      -23.627007    1.987411    7.109198
     61          1           0      -25.398708    2.253448    6.597532
     62          1           0      -24.424017    3.395953    7.534750
     63          1           0      -23.011363    5.500766    0.836365
     64          1           0      -23.734016    5.102712   -2.008658
     65          1           0      -25.794943    4.989647    0.603994
     66          1           0      -25.422465    5.735470   -0.883537
     67          1           0      -25.101024    6.635175    0.577228
     68          1           0      -21.705191    6.293681   -1.329876
     69          1           0      -21.200811    5.066105   -2.499196
     70          1           0      -20.766764    4.106897    0.161080
     71          1           0      -19.851417    5.549783   -0.208621
     72          1           0      -19.688500    4.059663   -1.169519
     73          1           0      -22.854171    0.755416   -5.998542
     74          1           0      -21.088114    0.685865   -5.765797
     75          1           0      -22.106006    2.110851   -5.190907
     76          1           0      -20.499019   -3.149184   -2.370978
     77          1           0      -21.548695   -6.843827   -4.706196
     78          1           0      -23.210920   -6.141604   -4.325918
     79          1           0      -22.443224   -7.132496   -3.252914
     80         12           0       22.277922    0.547181   -0.237421
     81          6           0       24.026317   -1.686375    1.683491
     82          6           0       20.376716   -1.938543   -1.423153
     83          6           0       20.818800    2.827056   -2.246473
     84          6           0       24.702144    3.093903    0.688120
     85          7           0       22.414024   -1.659313   -0.080121
     86          6           0       23.111647   -2.344707    0.833726
     87          6           0       22.716426   -3.909351    0.796569
     88          6           0       21.525492   -3.862223   -0.232235
     89          6           0       21.424353   -2.386898   -0.669247
     90          6           0       21.652939   -4.888359   -1.374931
     91          6           0       22.319118   -4.489615    2.183563
     92          6           0       21.580163   -5.866918    2.227103
     93          1           0       22.418639   -7.134617    2.643262
     94          7           0       20.817957    0.442868   -1.690894
     95          6           0       20.091551   -0.621156   -1.963213
     96          6           0       19.088748   -0.257940   -2.952983
     97          6           0       19.240945    1.113304   -3.318766
     98          6           0       20.326464    1.524379   -2.401472
     99          6           0       18.133584   -1.222465   -3.636359
    100          6           0       18.535873    1.943742   -4.386157
    101          8           0       18.995221    3.020100   -4.756940
    102          6           0       17.274060    1.423030   -4.980145
    103          7           0       22.739567    2.658454   -0.741161
    104          6           0       21.957128    3.362632   -1.550321
    105          6           0       22.324881    4.855696   -1.554908
    106          6           0       23.394908    4.889638   -0.466792
    107          6           0       23.642652    3.454091   -0.188296
    108          6           0       22.748670    5.490240   -2.887881
    109          6           0       23.088852    5.832277    0.669480
    110          6           0       24.080231    7.035307    0.858998
    111          7           0       23.937057    0.721959    0.944216
    112          6           0       24.785604    1.821291    1.306739
    113          6           0       25.736777    1.433455    2.325028
    114          6           0       25.417704    0.055495    2.478056
    115          6           0       24.360378   -0.303706    1.632709
    116          6           0       26.683835    2.232666    3.148828
    117          6           0       25.726506   -1.033494    3.370055
    118          8           0       26.384890   -1.135032    4.416035
    119          6           0       24.980871   -2.244461    2.867615
    120          6           0       25.999574   -3.212311    2.226212
    121          8           0       26.949150   -2.927178    1.480536
    122          8           0       25.669484   -4.475293    2.619229
    123          6           0       26.540454   -5.600070    2.152075
    124          1           0       19.615082   -2.629587   -1.790373
    125          1           0       20.546124    3.572641   -2.996280
    126          1           0       25.304627    3.940444    1.022353
    127          1           0       23.596293   -4.386972    0.367035
    128          1           0       20.608324   -4.063679    0.321181
    129          1           0       20.665960   -5.327628   -1.515763
    130          1           0       22.324417   -5.706837   -1.115258
    131          1           0       21.995494   -4.409160   -2.292140
    132          1           0       21.550162   -3.815482    2.560824
    133          1           0       23.204200   -4.592867    2.811210
    134          1           0       21.296435   -6.103452    1.201087
    135          1           0       20.753273   -5.796198    2.932910
    136          1           0       18.263182   -2.239532   -3.266452
    137          1           0       18.318206   -1.219534   -4.710331
    138          1           0       17.092977   -0.936941   -3.487681
    139          1           0       16.656762    1.136438   -4.128269
    140          1           0       17.245033    0.576465   -5.665464
    141          1           0       16.745139    2.170770   -5.570117
    142          1           0       21.449725    5.409989   -1.217571
    143          1           0       24.302605    5.285410   -0.922023
    144          1           0       22.287355    6.477270   -2.866657
    145          1           0       22.454467    4.857704   -3.725276
    146          1           0       23.826669    5.533889   -3.042850
    147          1           0       23.226771    5.215275    1.556823
    148          1           0       22.092548    6.270440    0.617898
    149          1           0       24.880280    6.978522    0.120413
    150          1           0       24.525815    6.932046    1.848865
    151          1           0       23.619578    8.023088    0.878808
    152          1           0       26.505595    3.297121    2.998588
    153          1           0       27.664616    2.049366    2.711516
    154          1           0       26.498423    1.911005    4.174667
    155          1           0       24.525851   -2.666755    3.763764
    156          1           0       26.793593   -5.581299    1.091761
    157          1           0       26.165712   -6.592468    2.400520
    158          1           0       27.494263   -5.453826    2.658701
 ---------------------------------------------------------------------

 SCF Done:  E(RwB97XD) =  -4070.60420314     A.U. after   19 cycles

 Excitation energies and oscillator strengths:

 Excited State   1:      Singlet-A      1.6636 eV  745.28 nm  f=0.3985  <S**2>=0.000
     309 -> 316        0.18173
     311 -> 313        0.68162
     309 <- 316        0.11253
 This state for optimization and/or second-order correction.
 Total Energy, E(TD-HF/TD-DFT) =  -4070.54306722
 Copying the excited state density for this state as the 1-particle RhoCI density.

 Excited State   2:      Singlet-A      1.7218 eV  720.09 nm  f=0.3760  <S**2>=0.000
     310 -> 315        0.19589
     312 -> 314        0.67979
     310 <- 315        0.11419

 Excited State   3:      Singlet-A      2.2222 eV  557.94 nm  f=0.1051  <S**2>=0.000
     309 -> 313        0.63671
     311 -> 316       -0.28915

 Excited State   4:      Singlet-A      2.2243 eV  557.40 nm  f=0.0604  <S**2>=0.000
     310 -> 314        0.61445
     312 -> 315       -0.33860

 Excited State   5:      Singlet-A      3.4333 eV  361.12 nm  f=0.0041  <S**2>=0.000
     306 -> 313        0.28693
     306 -> 318       -0.17385
     306 -> 320        0.20699
     308 -> 313        0.51264
     308 -> 318       -0.16076
     308 -> 320        0.14573

 The electronic state is 1-A.
 Alpha  occ. eigenvalues --  -46.95540 -46.94332 -19.30841 -19.29150 -19.25014
 Alpha  occ. eigenvalues --  -19.24584 -19.24399 -19.23304 -19.22747 -19.22710
 Alpha  occ. eigenvalues --  -14.46672 -14.46310 -14.46274 -14.45658 -14.44693
 Alpha  occ. eigenvalues --  -14.44675 -14.43888 -14.43358 -10.43416 -10.42122
 Alpha  occ. eigenvalues --  -10.40085 -10.39984 -10.37547 -10.37358 -10.35928
 Alpha  occ. eigenvalues --  -10.35730 -10.35008 -10.34967 -10.34649 -10.34494
 Alpha  occ. eigenvalues --  -10.34480 -10.34442 -10.34413 -10.34356 -10.34319
 Alpha  occ. eigenvalues --  -10.34265 -10.34034 -10.33986 -10.33351 -10.33145
 Alpha  occ. eigenvalues --  -10.33023 -10.32931 -10.32797 -10.32741 -10.32694
 Alpha  occ. eigenvalues --  -10.32441 -10.32192 -10.32163 -10.32133 -10.32043
 Alpha  occ. eigenvalues --  -10.32021 -10.31937 -10.31918 -10.31813 -10.31772
 Alpha  occ. eigenvalues --  -10.31752 -10.31672 -10.31671 -10.31630 -10.31584
 Alpha  occ. eigenvalues --  -10.31562 -10.31415 -10.31384 -10.31057 -10.30979
 Alpha  occ. eigenvalues --  -10.30730 -10.30722 -10.30616 -10.30604 -10.30442
 Alpha  occ. eigenvalues --  -10.30414 -10.30251 -10.30214 -10.30195 -10.30125
 Alpha  occ. eigenvalues --  -10.30046 -10.29932 -10.29931 -10.29766 -10.29646
 Alpha  occ. eigenvalues --  -10.29548 -10.29515 -10.29040 -10.29033 -10.28438
 Alpha  occ. eigenvalues --  -10.28082  -3.21508  -3.20590  -1.95088  -1.94622
 Alpha  occ. eigenvalues --   -1.94491  -1.94153  -1.93735  -1.93601  -1.17729
 Alpha  occ. eigenvalues --   -1.17028  -1.13806  -1.12622  -1.11238  -1.10193
 Alpha  occ. eigenvalues --   -1.08728  -1.08123  -1.07740  -1.07671  -1.06783
 Alpha  occ. eigenvalues --   -1.06416  -1.06136  -1.05914  -1.05040  -1.04991
 Alpha  occ. eigenvalues --   -0.94338  -0.93246  -0.91785  -0.91634  -0.90593
 Alpha  occ. eigenvalues --   -0.90380  -0.90108  -0.89920  -0.89880  -0.89506
 Alpha  occ. eigenvalues --   -0.89420  -0.89090  -0.88956  -0.88512  -0.86317
 Alpha  occ. eigenvalues --   -0.86114  -0.85502  -0.85228  -0.84664  -0.84525
 Alpha  occ. eigenvalues --   -0.84292  -0.84067  -0.83040  -0.83019  -0.82511
 Alpha  occ. eigenvalues --   -0.82010  -0.81037  -0.80502  -0.79480  -0.79404
 Alpha  occ. eigenvalues --   -0.78921  -0.78674  -0.78020  -0.77657  -0.77292
 Alpha  occ. eigenvalues --   -0.77164  -0.74642  -0.74638  -0.73693  -0.73670
 Alpha  occ. eigenvalues --   -0.71586  -0.71370  -0.71069  -0.71038  -0.70152
 Alpha  occ. eigenvalues --   -0.69704  -0.69584  -0.69343  -0.67780  -0.67373
 Alpha  occ. eigenvalues --   -0.66933  -0.66899  -0.66776  -0.66421  -0.65910
 Alpha  occ. eigenvalues --   -0.65774  -0.64626  -0.63723  -0.63187  -0.62738
 Alpha  occ. eigenvalues --   -0.61628  -0.61318  -0.61294  -0.60875  -0.60623
 Alpha  occ. eigenvalues --   -0.59987  -0.59904  -0.59819  -0.59556  -0.59373
 Alpha  occ. eigenvalues --   -0.58354  -0.58317  -0.57648  -0.57261  -0.57118
 Alpha  occ. eigenvalues --   -0.57086  -0.56613  -0.56471  -0.56426  -0.56067
 Alpha  occ. eigenvalues --   -0.55689  -0.55622  -0.55352  -0.55146  -0.54744
 Alpha  occ. eigenvalues --   -0.54620  -0.54588  -0.54488  -0.54364  -0.54204
 Alpha  occ. eigenvalues --   -0.54121  -0.53629  -0.53629  -0.53221  -0.53131
 Alpha  occ. eigenvalues --   -0.53053  -0.52653  -0.52561  -0.52457  -0.52446
 Alpha  occ. eigenvalues --   -0.52162  -0.51868  -0.51740  -0.51605  -0.51520
 Alpha  occ. eigenvalues --   -0.51284  -0.51281  -0.51037  -0.51001  -0.50887
 Alpha  occ. eigenvalues --   -0.50745  -0.50512  -0.50486  -0.50131  -0.50043
 Alpha  occ. eigenvalues --   -0.49966  -0.49763  -0.49743  -0.49625  -0.49243
 Alpha  occ. eigenvalues --   -0.49122  -0.48772  -0.48739  -0.48605  -0.48458
 Alpha  occ. eigenvalues --   -0.48328  -0.48079  -0.47884  -0.47646  -0.47426
 Alpha  occ. eigenvalues --   -0.47172  -0.46916  -0.46795  -0.46680  -0.46480
 Alpha  occ. eigenvalues --   -0.46441  -0.46333  -0.46102  -0.46068  -0.45939
 Alpha  occ. eigenvalues --   -0.45832  -0.45792  -0.45780  -0.45540  -0.45534
 Alpha  occ. eigenvalues --   -0.45098  -0.44868  -0.44846  -0.44826  -0.44720
 Alpha  occ. eigenvalues --   -0.44401  -0.44181  -0.44093  -0.43980  -0.43900
 Alpha  occ. eigenvalues --   -0.43809  -0.43763  -0.43536  -0.43457  -0.43182
 Alpha  occ. eigenvalues --   -0.43107  -0.43009  -0.42728  -0.42719  -0.42477
 Alpha  occ. eigenvalues --   -0.42354  -0.41520  -0.41193  -0.41140  -0.40994
 Alpha  occ. eigenvalues --   -0.40407  -0.40188  -0.40124  -0.39790  -0.39185
 Alpha  occ. eigenvalues --   -0.39056  -0.38689  -0.38448  -0.38333  -0.38213
 Alpha  occ. eigenvalues --   -0.37891  -0.37168  -0.36367  -0.36276  -0.35999
 Alpha  occ. eigenvalues --   -0.35575  -0.35465  -0.34976  -0.34665  -0.33929
 Alpha  occ. eigenvalues --   -0.33435  -0.33337  -0.32958  -0.32796  -0.32091
 Alpha  occ. eigenvalues --   -0.31960  -0.31889  -0.31822  -0.25844  -0.25790
 Alpha  occ. eigenvalues --   -0.22926  -0.22458
 Alpha virt. eigenvalues --   -0.06909  -0.06193   0.00127   0.00146   0.02271
 Alpha virt. eigenvalues --    0.02619   0.04555   0.04606   0.05064   0.05845
 Alpha virt. eigenvalues --    0.07472   0.07541   0.07822   0.08461   0.08831

 Mulliken charges:
               1
     1  Mg   0.992810
     2  C    0.011055
     3  C   -0.117725
     4  C   -0.080876
     5  C   -0.116903
     6  N   -0.330506
     7  C   -0.016931
     8  C   -0.037228
     9  C   -0.153937
    10  C    0.076129
    11  C    0.047338
    12  C    0.007338
    13  C   -0.126047
    14  H    0.026446
    15  N   -0.509791
    16  C    0.180071
    17  C   -0.131458
    18  C   -0.119647
    19  C    0.182787
    20  C    0.046443
    21  C    0.071749
    22  O   -0.201854
    23  C   -0.025361
    24  N   -0.320941
    25  C    0.021017
    26  C   -0.086035
    27  C   -0.050188
    28  C   -0.008484
    29  C    0.024200
    30  C   -0.010738
    31  C   -0.046777
    32  N   -0.398842
    33  C    0.160008
    34  C   -0.187063
    35  C    0.034923
    36  C    0.091242
    37  C    0.104744
    38  C    0.050709
    39  O   -0.214276
    40  C   -0.074740
    41  C    0.264487
    42  O   -0.268162
    43  O   -0.355819
    44  C    0.151779
    45  H   -0.008474
    46  H    0.016483
    47  H   -0.010531
    48  H    0.043132
    49  H    0.031863
    50  H    0.045753
    51  H    0.038582
    52  H    0.045932
    53  H    0.033196
    54  H    0.041113
    55  H    0.049070
    56  H    0.062492
    57  H    0.060501
    58  H    0.029729
    59  H    0.066487
    60  H    0.061511
    61  H    0.069442
    62  H    0.048074
    63  H    0.035043
    64  H    0.029219
    65  H    0.038315
    66  H    0.025942
    67  H    0.050253
    68  H    0.032286
    69  H    0.032289
    70  H    0.028536
    71  H    0.041150
    72  H    0.043802
    73  H    0.059474
    74  H    0.063926
    75  H    0.019676
    76  H    0.072604
    77  H    0.061547
    78  H    0.057209
    79  H    0.029428
    80  Mg   0.970390
    81  C   -0.074786
    82  C   -0.078794
    83  C   -0.049427
    84  C   -0.066330
    85  N   -0.355494
    86  C   -0.026118
    87  C   -0.008963
    88  C   -0.153537
    89  C    0.120018
    90  C    0.024359
    91  C   -0.009651
    92  C   -0.131328
    93  H    0.015025
    94  N   -0.438366
    95  C    0.116849
    96  C   -0.186937
    97  C   -0.059063
    98  C    0.130835
    99  C    0.069457
   100  C    0.087683
   101  O   -0.227301
   102  C   -0.033343
   103  N   -0.274259
   104  C   -0.007301
   105  C   -0.114790
   106  C   -0.055368
   107  C    0.009710
   108  C    0.036077
   109  C    0.000411
   110  C   -0.068101
   111  N   -0.457030
   112  C    0.123274
   113  C   -0.170431
   114  C   -0.076994
   115  C    0.206164
   116  C    0.109157
   117  C    0.102762
   118  O   -0.239428
   119  C   -0.055439
   120  C    0.293507
   121  O   -0.266021
   122  O   -0.365197
   123  C    0.138558
   124  H   -0.019857
   125  H    0.029539
   126  H    0.004094
   127  H    0.040466
   128  H    0.037092
   129  H    0.034002
   130  H    0.041477
   131  H    0.049671
   132  H    0.031925
   133  H    0.073437
   134  H    0.048353
   135  H    0.065627
   136  H    0.031752
   137  H    0.051530
   138  H    0.041247
   139  H    0.048759
   140  H    0.063221
   141  H    0.052481
   142  H    0.038864
   143  H    0.021341
   144  H    0.046532
   145  H    0.044300
   146  H    0.029785
   147  H    0.030504
   148  H    0.036914
   149  H    0.033100
   150  H    0.033421
   151  H    0.041972
   152  H    0.019313
   153  H    0.065424
   154  H    0.081076
   155  H    0.069569
   156  H    0.058575
   157  H    0.063580
   158  H    0.056473
 Sum of Mulliken charges =  -0.00000

 Dipole moment (field-independent basis, Debye):
    X=             -3.6890    Y=             -0.2626    Z=              3.8177  Tot=              5.3153
 Quadrupole moment (field-independent basis, Debye-Ang):
   XX=           -784.8023   YY=           -464.7403   ZZ=           -525.3804
   XY=            -13.1243   XZ=           -171.0829   YZ=            -13.5189

 Normal termination of Gaussian 16 at Sat Sep 18 07:45:05 2021.
