 Gaussian 16, Revision A.03,
 Gaussian 16:  ES64L-G16RevA.03 25-Dec-2016

 --------------------------------
 #p wB97XD/Def2SVP td=(nstates=5)
 --------------------------------

 --------------------------------
 TDDFT excited states in gaussian
 --------------------------------
 Symbolic Z-matrix:
 Charge =  0 Multiplicity = 1

                         Standard orientation:
 ---------------------------------------------------------------------
 Center     Atomic      Atomic             Coordinates (Angstroms)
 Number     Number       Type             X           Y           Z
 ---------------------------------------------------------------------
      1         12           0       25.217577   -0.637844    0.198702
      2          6           0       24.289683    2.681229    0.795109
      3          6           0       26.321885    0.436598   -2.910007
      4          6           0       25.688585   -3.769938   -0.535742
      5          6           0       23.805829   -1.494712    3.331819
      6          7           0       24.928337    1.305267   -1.109547
      7          6           0       24.682650    2.505463   -0.574207
      8          6           0       24.910855    3.530984   -1.633867
      9          6           0       25.137243    2.722456   -2.934867
     10          6           0       25.521288    1.395491   -2.310785
     11          6           0       24.011793    2.603827   -3.964068
     12          6           0       26.128265    4.451366   -1.302701
     13          6           0       25.956968    6.001346   -1.406619
     14          1           0       24.942008    6.587302   -2.437110
     15          7           0       26.065809   -1.548220   -1.473266
     16          6           0       26.617822   -0.873702   -2.554224
     17          6           0       27.212031   -1.865324   -3.390394
     18          6           0       26.931745   -3.155670   -2.785422
     19          6           0       26.215965   -2.892327   -1.545989
     20          6           0       27.889576   -1.577390   -4.748012
     21          6           0       27.230188   -4.588870   -3.312105
     22          8           0       26.938073   -5.591279   -2.740914
     23          6           0       28.003533   -4.669920   -4.613548
     24          7           0       24.805864   -2.346848    1.275047
     25          6           0       25.041410   -3.552812    0.711531
     26          6           0       24.669034   -4.756793    1.620012
     27          6           0       24.318138   -3.984911    2.963883
     28          6           0       24.325866   -2.519164    2.546311
     29          6           0       23.455405   -5.628622    0.953939
     30          6           0       25.224607   -4.381361    4.171337
     31          6           0       26.398634   -3.478197    4.504358
     32          7           0       24.258997    0.342467    1.825831
     33          6           0       23.832900   -0.118038    3.042355
     34          6           0       23.313847    1.054318    3.830699
     35          6           0       23.485716    2.160951    2.968704
     36          6           0       24.029797    1.694806    1.726248
     37          6           0       22.592821    1.030550    5.151060
     38          6           0       23.299417    3.603632    2.834442
     39          8           0       22.818251    4.386959    3.658123
     40          6           0       23.957376    3.982162    1.510863
     41          6           0       22.942566    4.808773    0.774286
     42          8           0       21.976354    4.367306    0.179683
     43          8           0       23.216202    6.067469    1.075681
     44          6           0       22.183436    7.067734    0.855692
     45          1           0       26.537397    0.738728   -3.936550
     46          1           0       26.002351   -4.804943   -0.684556
     47          1           0       23.384447   -1.758374    4.304442
     48          1           0       24.026214    4.163455   -1.700845
     49          1           0       25.937518    3.234322   -3.469492
     50          1           0       23.093480    3.147986   -3.742687
     51          1           0       23.747321    1.556724   -4.114107
     52          1           0       24.419308    2.987560   -4.899104
     53          1           0       27.042046    4.168835   -1.825047
     54          1           0       26.276820    4.168174   -0.260759
     55          1           0       26.956523    6.346944   -1.673351
     56          1           0       25.690712    6.387125   -0.422885
     57          1           0       27.490881   -2.179255   -5.564712
     58          1           0       28.940611   -1.866543   -4.755550
     59          1           0       27.863467   -0.530424   -5.053021
     60          1           0       28.911824   -4.067054   -4.604069
     61          1           0       27.326164   -4.398747   -5.423420
     62          1           0       28.215925   -5.709375   -4.863524
     63          1           0       25.505376   -5.438195    1.775006
     64          1           0       23.326821   -4.225456    3.347719
     65          1           0       22.591017   -5.407267    1.580130
     66          1           0       23.578797   -6.705463    1.071335
     67          1           0       23.178491   -5.310236   -0.051708
     68          1           0       25.696946   -5.308289    3.845763
     69          1           0       24.650784   -4.588902    5.074298
     70          1           0       26.835111   -3.246379    3.532075
     71          1           0       27.008597   -4.142988    5.115547
     72          1           0       26.239928   -2.496125    4.949092
     73          1           0       22.339139    0.066254    5.591483
     74          1           0       21.646349    1.562005    5.050816
     75          1           0       23.201883    1.642863    5.815308
     76          1           0       24.790744    4.679626    1.597646
     77          1           0       21.184590    6.762843    0.545165
     78          1           0       22.577414    7.630267    0.008707
     79          1           0       22.332576    7.872278    1.575913
     80         12           0      -24.350367   -0.808576    0.104804
     81          6           0      -25.981978    2.352609    0.528578
     82          6           0      -22.781357    0.633610   -2.706224
     83          6           0      -23.340647   -3.770308   -0.850589
     84          6           0      -26.246121   -2.073969    2.628168
     85          7           0      -24.364636    1.273871   -0.903478
     86          6           0      -25.031439    2.358635   -0.440922
     87          6           0      -24.594373    3.574467   -1.241274
     88          6           0      -23.542030    3.108466   -2.286540
     89          6           0      -23.520908    1.605529   -1.947547
     90          6           0      -23.943101    3.470317   -3.826101
     91          6           0      -23.974848    4.719626   -0.330986
     92          6           0      -24.491893    6.138582   -0.570094
     93          1           0      -24.920599    6.617129   -2.015101
     94          7           0      -23.249484   -1.488143   -1.596951
     95          6           0      -22.709389   -0.761595   -2.552351
     96          6           0      -22.046639   -1.662155   -3.453019
     97          6           0      -22.032504   -2.969995   -2.905320
     98          6           0      -22.910961   -2.793517   -1.778687
     99          6           0      -21.208426   -1.178922   -4.635409
    100          6           0      -21.283950   -4.252234   -3.233825
    101          8           0      -21.484026   -5.303555   -2.653557
    102          6           0      -20.218903   -4.143800   -4.290167
    103          7           0      -25.030419   -2.679936    0.586911
    104          6           0      -24.278398   -3.784417    0.182332
    105          6           0      -24.539615   -5.048389    1.045838
    106          6           0      -25.344188   -4.383446    2.225613
    107          6           0      -25.562966   -2.931934    1.799028
    108          6           0      -25.290547   -6.117132    0.238466
    109          6           0      -24.542930   -4.356805    3.612175
    110          6           0      -24.950835   -5.306776    4.687896
    111          7           0      -25.704005   -0.042865    1.391148
    112          6           0      -26.425852   -0.704746    2.360783
    113          6           0      -27.428694    0.144083    2.998787
    114          6           0      -27.291701    1.397234    2.301631
    115          6           0      -26.339438    1.190496    1.275797
    116          6           0      -28.187179   -0.231694    4.220029
    117          6           0      -27.706613    2.791194    2.266116
    118          8           0      -28.513952    3.353918    3.027937
    119          6           0      -26.871932    3.497461    1.052899
    120          6           0      -27.888075    3.941303    0.111834
    121          8           0      -28.710612    3.205151   -0.387628
    122          8           0      -27.788107    5.252612   -0.136042
    123          6           0      -28.751206    5.973180   -1.026534
    124          1           0      -22.212353    1.047579   -3.541176
    125          1           0      -22.744401   -4.685582   -0.827667
    126          1           0      -26.769706   -2.502634    3.484918
    127          1           0      -25.472995    3.936771   -1.775019
    128          1           0      -22.593692    3.633952   -2.172923
    129          1           0      -24.647081    4.301915   -3.858494
    130          1           0      -24.366262    2.548497   -4.226046
    131          1           0      -23.044028    3.715126   -4.391407
    132          1           0      -22.886668    4.764223   -0.320838
    133          1           0      -24.227379    4.523056    0.710908
    134          1           0      -23.787270    6.888691   -0.210389
    135          1           0      -25.334539    6.203183    0.118302
    136          1           0      -20.139987   -1.114765   -4.428771
    137          1           0      -21.612720   -0.262944   -5.067313
    138          1           0      -21.357918   -1.912050   -5.427725
    139          1           0      -19.605423   -3.243664   -4.241117
    140          1           0      -20.585363   -4.185432   -5.314923
    141          1           0      -19.443928   -4.882398   -4.085087
    142          1           0      -23.568469   -5.437648    1.350320
    143          1           0      -26.270546   -4.943470    2.354091
    144          1           0      -25.357333   -5.912438   -0.829967
    145          1           0      -26.323827   -6.218111    0.568623
    146          1           0      -24.803669   -7.082237    0.382322
    147          1           0      -24.552481   -3.396536    4.127793
    148          1           0      -23.469636   -4.486429    3.478082
    149          1           0      -24.142618   -6.005808    4.899105
    150          1           0      -25.811099   -5.814222    4.250985
    151          1           0      -25.187536   -4.766763    5.604612
    152          1           0      -28.363373    0.632531    4.859575
    153          1           0      -27.643776   -1.061225    4.672083
    154          1           0      -29.153455   -0.608025    3.881421
    155          1           0      -26.306527    4.360980    1.400666
    156          1           0      -29.770879    5.735197   -0.723093
    157          1           0      -28.642437    5.694351   -2.074927
    158          1           0      -28.570277    7.045780   -1.090820
 ---------------------------------------------------------------------

 SCF Done:  E(RwB97XD) =  -4070.60210616     A.U. after   19 cycles

 Excitation energies and oscillator strengths:

 Excited State   1:      Singlet-A      1.6236 eV  763.66 nm  f=0.4018  <S**2>=0.000
     309 -> 316       -0.17886
     312 -> 313        0.68453
     309 <- 316       -0.11640
 This state for optimization and/or second-order correction.
 Total Energy, E(TD-HF/TD-DFT) =  -4070.54244152
 Copying the excited state density for this state as the 1-particle RhoCI density.

 Excited State   2:      Singlet-A      1.6771 eV  739.28 nm  f=0.3964  <S**2>=0.000
     310 -> 315        0.19189
     311 -> 314        0.68165
     310 <- 315        0.11865

 Excited State   3:      Singlet-A      2.1424 eV  578.71 nm  f=0.1274  <S**2>=0.000
     309 -> 313        0.64800
     312 -> 316        0.26643

 Excited State   4:      Singlet-A      2.1599 eV  574.04 nm  f=0.0985  <S**2>=0.000
     310 -> 314        0.64012
     311 -> 315       -0.28507

 Excited State   5:      Singlet-A      3.3634 eV  368.63 nm  f=0.0023  <S**2>=0.000
     306 -> 314       -0.35459
     308 -> 314        0.58096

 The electronic state is 1-A.
 Alpha  occ. eigenvalues --  -46.95146 -46.94968 -19.31529 -19.30459 -19.24659
 Alpha  occ. eigenvalues --  -19.24572 -19.24546 -19.24106 -19.23581 -19.23445
 Alpha  occ. eigenvalues --  -14.46486 -14.46380 -14.46303 -14.46205 -14.43995
 Alpha  occ. eigenvalues --  -14.43972 -14.43651 -14.43316 -10.43060 -10.42306
 Alpha  occ. eigenvalues --  -10.39745 -10.39580 -10.39530 -10.38407 -10.36276
 Alpha  occ. eigenvalues --  -10.35844 -10.35370 -10.35341 -10.35156 -10.34804
 Alpha  occ. eigenvalues --  -10.34787 -10.34772 -10.34501 -10.34267 -10.33719
 Alpha  occ. eigenvalues --  -10.33671 -10.33647 -10.33605 -10.33552 -10.33503
 Alpha  occ. eigenvalues --  -10.33369 -10.33204 -10.33017 -10.32934 -10.32740
 Alpha  occ. eigenvalues --  -10.32625 -10.32455 -10.32422 -10.32405 -10.32329
 Alpha  occ. eigenvalues --  -10.32259 -10.32159 -10.32152 -10.31989 -10.31850
 Alpha  occ. eigenvalues --  -10.31833 -10.31673 -10.31640 -10.31209 -10.31148
 Alpha  occ. eigenvalues --  -10.31139 -10.31062 -10.30964 -10.30736 -10.30652
 Alpha  occ. eigenvalues --  -10.30646 -10.30616 -10.30602 -10.30444 -10.30356
 Alpha  occ. eigenvalues --  -10.30304 -10.30287 -10.30253 -10.29967 -10.29958
 Alpha  occ. eigenvalues --  -10.29945 -10.29921 -10.29822 -10.29738 -10.29642
 Alpha  occ. eigenvalues --  -10.29617 -10.29304 -10.29233 -10.29054 -10.28911
 Alpha  occ. eigenvalues --  -10.28807  -3.21053  -3.21033  -1.94648  -1.94587
 Alpha  occ. eigenvalues --   -1.94210  -1.94164  -1.94011  -1.93980  -1.20587
 Alpha  occ. eigenvalues --   -1.18721  -1.13535  -1.13053  -1.11942  -1.10917
 Alpha  occ. eigenvalues --   -1.10692  -1.09553  -1.07044  -1.06680  -1.05799
 Alpha  occ. eigenvalues --   -1.05517  -1.05140  -1.04695  -1.03925  -1.03876
 Alpha  occ. eigenvalues --   -0.95426  -0.94136  -0.90610  -0.90506  -0.90505
 Alpha  occ. eigenvalues --   -0.90151  -0.89964  -0.89954  -0.89053  -0.89048
 Alpha  occ. eigenvalues --   -0.88948  -0.88359  -0.88252  -0.87451  -0.86402
 Alpha  occ. eigenvalues --   -0.86147  -0.86008  -0.85637  -0.84557  -0.84525
 Alpha  occ. eigenvalues --   -0.83743  -0.83368  -0.83224  -0.82722  -0.82656
 Alpha  occ. eigenvalues --   -0.81979  -0.80221  -0.79896  -0.79601  -0.79330
 Alpha  occ. eigenvalues --   -0.78928  -0.78797  -0.78248  -0.78178  -0.77054
 Alpha  occ. eigenvalues --   -0.76784  -0.74712  -0.74479  -0.73713  -0.73395
 Alpha  occ. eigenvalues --   -0.71481  -0.70908  -0.70743  -0.70020  -0.69749
 Alpha  occ. eigenvalues --   -0.69606  -0.68921  -0.68084  -0.67471  -0.67267
 Alpha  occ. eigenvalues --   -0.67095  -0.66925  -0.66647  -0.66625  -0.66487
 Alpha  occ. eigenvalues --   -0.66357  -0.64834  -0.64408  -0.62489  -0.61855
 Alpha  occ. eigenvalues --   -0.61673  -0.61198  -0.61172  -0.60819  -0.60501
 Alpha  occ. eigenvalues --   -0.60463  -0.60126  -0.60029  -0.59459  -0.59323
 Alpha  occ. eigenvalues --   -0.58857  -0.58085  -0.58022  -0.57664  -0.57143
 Alpha  occ. eigenvalues --   -0.56938  -0.56762  -0.56666  -0.56284  -0.55611
 Alpha  occ. eigenvalues --   -0.55442  -0.55252  -0.55230  -0.54936  -0.54850
 Alpha  occ. eigenvalues --   -0.54848  -0.54541  -0.54469  -0.54249  -0.54000
 Alpha  occ. eigenvalues --   -0.53914  -0.53626  -0.53362  -0.53207  -0.53163
 Alpha  occ. eigenvalues --   -0.53108  -0.53016  -0.52535  -0.52463  -0.52152
 Alpha  occ. eigenvalues --   -0.51995  -0.51924  -0.51644  -0.51342  -0.51168
 Alpha  occ. eigenvalues --   -0.51124  -0.51002  -0.50778  -0.50700  -0.50648
 Alpha  occ. eigenvalues --   -0.50485  -0.50331  -0.50323  -0.50035  -0.50027
 Alpha  occ. eigenvalues --   -0.49907  -0.49669  -0.49352  -0.49276  -0.48836
 Alpha  occ. eigenvalues --   -0.48654  -0.48527  -0.48340  -0.48158  -0.48045
 Alpha  occ. eigenvalues --   -0.47948  -0.47852  -0.47820  -0.47811  -0.47618
 Alpha  occ. eigenvalues --   -0.47555  -0.47344  -0.47222  -0.47033  -0.46976
 Alpha  occ. eigenvalues --   -0.46765  -0.46455  -0.46447  -0.46187  -0.45750
 Alpha  occ. eigenvalues --   -0.45726  -0.45536  -0.45348  -0.45261  -0.45185
 Alpha  occ. eigenvalues --   -0.45049  -0.44969  -0.44922  -0.44686  -0.44656
 Alpha  occ. eigenvalues --   -0.44597  -0.44438  -0.44123  -0.43765  -0.43729
 Alpha  occ. eigenvalues --   -0.43566  -0.43478  -0.43335  -0.43193  -0.43128
 Alpha  occ. eigenvalues --   -0.42971  -0.42906  -0.42617  -0.42430  -0.42185
 Alpha  occ. eigenvalues --   -0.42181  -0.41608  -0.41557  -0.41258  -0.41215
 Alpha  occ. eigenvalues --   -0.40305  -0.40280  -0.39848  -0.39209  -0.39051
 Alpha  occ. eigenvalues --   -0.39043  -0.38807  -0.38531  -0.38447  -0.38223
 Alpha  occ. eigenvalues --   -0.38167  -0.38116  -0.36445  -0.36435  -0.36108
 Alpha  occ. eigenvalues --   -0.35699  -0.35361  -0.35230  -0.33689  -0.33469
 Alpha  occ. eigenvalues --   -0.33397  -0.33022  -0.32780  -0.32296  -0.32263
 Alpha  occ. eigenvalues --   -0.32171  -0.31578  -0.31093  -0.25747  -0.25739
 Alpha  occ. eigenvalues --   -0.22899  -0.22761
 Alpha virt. eigenvalues --   -0.07076  -0.06851   0.00376   0.00805   0.02196
 Alpha virt. eigenvalues --    0.02217   0.04159   0.04940   0.04968   0.05871
 Alpha virt. eigenvalues --    0.07371   0.07673   0.07846   0.07870   0.08161

 Mulliken charges:
               1
     1  Mg   0.943740
     2  C   -0.009840
     3  C   -0.053593
     4  C   -0.049937
     5  C   -0.089571
     6  N   -0.281386
     7  C    0.032626
     8  C   -0.102517
     9  C   -0.079020
    10  C   -0.023260
    11  C    0.044042
    12  C   -0.008049
    13  C   -0.108866
    14  H    0.034699
    15  N   -0.486574
    16  C    0.194337
    17  C   -0.162063
    18  C   -0.110850
    19  C    0.127632
    20  C    0.066672
    21  C    0.057675
    22  O   -0.197945
    23  C   -0.025281
    24  N   -0.388387
    25  C    0.068231
    26  C   -0.106300
    27  C   -0.052054
    28  C    0.081472
    29  C    0.014978
    30  C   -0.034383
    31  C   -0.035107
    32  N   -0.430979
    33  C    0.126552
    34  C   -0.181596
    35  C   -0.031513
    36  C    0.144819
    37  C    0.072003
    38  C    0.142823
    39  O   -0.213891
    40  C   -0.092647
    41  C    0.223736
    42  O   -0.247856
    43  O   -0.327069
    44  C    0.146650
    45  H   -0.006206
    46  H    0.024715
    47  H   -0.006533
    48  H    0.040494
    49  H    0.020990
    50  H    0.046956
    51  H    0.041493
    52  H    0.029954
    53  H    0.038470
    54  H    0.025597
    55  H    0.053014
    56  H    0.060570
    57  H    0.037213
    58  H    0.040675
    59  H    0.034240
    60  H    0.057509
    61  H    0.052194
    62  H    0.039948
    63  H    0.050028
    64  H    0.031426
    65  H    0.019109
    66  H    0.045901
    67  H    0.058978
    68  H    0.022777
    69  H    0.029631
    70  H    0.030057
    71  H    0.044307
    72  H    0.041676
    73  H    0.038405
    74  H    0.061868
    75  H    0.059413
    76  H    0.073367
    77  H    0.085467
    78  H    0.026946
    79  H    0.057197
    80  Mg   0.966433
    81  C   -0.049271
    82  C   -0.089648
    83  C   -0.059763
    84  C   -0.106356
    85  N   -0.317482
    86  C    0.011460
    87  C   -0.040489
    88  C   -0.105315
    89  C    0.050138
    90  C   -0.005186
    91  C   -0.008631
    92  C   -0.109743
    93  H    0.017129
    94  N   -0.388162
    95  C    0.164078
    96  C   -0.188225
    97  C   -0.059136
    98  C    0.115275
    99  C    0.051900
   100  C    0.080695
   101  O   -0.219423
   102  C   -0.036831
   103  N   -0.403575
   104  C    0.019270
   105  C   -0.074843
   106  C   -0.054015
   107  C    0.103266
   108  C    0.032746
   109  C   -0.056508
   110  C   -0.031330
   111  N   -0.481487
   112  C    0.161902
   113  C   -0.187092
   114  C   -0.019286
   115  C    0.159812
   116  C    0.089857
   117  C    0.119844
   118  O   -0.226491
   119  C   -0.061677
   120  C    0.257994
   121  O   -0.245680
   122  O   -0.357592
   123  C    0.146431
   124  H   -0.009380
   125  H    0.024561
   126  H    0.001012
   127  H    0.044164
   128  H    0.046808
   129  H    0.047904
   130  H    0.045185
   131  H    0.037815
   132  H    0.030195
   133  H    0.028318
   134  H    0.044372
   135  H    0.052374
   136  H    0.066450
   137  H    0.038123
   138  H    0.031105
   139  H    0.036030
   140  H    0.074654
   141  H    0.049279
   142  H    0.043696
   143  H    0.035657
   144  H    0.053039
   145  H    0.026331
   146  H    0.041769
   147  H    0.029354
   148  H    0.020491
   149  H    0.036583
   150  H    0.025281
   151  H    0.038913
   152  H    0.066620
   153  H    0.037274
   154  H    0.055599
   155  H    0.057923
   156  H    0.070420
   157  H    0.046841
   158  H    0.060249
 Sum of Mulliken charges =  -0.00000

 Dipole moment (field-independent basis, Debye):
    X=              6.7659    Y=              2.4680    Z=             -1.9791  Tot=              7.4689
 Quadrupole moment (field-independent basis, Debye-Ang):
   XX=           -648.3362   YY=           -494.1134   ZZ=           -478.3884
   XY=             37.9115   XZ=              9.8448   YZ=            -52.8664

 Normal termination of Gaussian 16 at Mon Sep 20 20:00:19 2021.
