 Gaussian 16, Revision A.03,
 Gaussian 16:  ES64L-G16RevA.03 25-Dec-2016

 --------------------------------
 #p wB97XD/Def2SVP td=(nstates=5)
 --------------------------------

 --------------------------------
 TDDFT excited states in gaussian
 --------------------------------
 Symbolic Z-matrix:
 Charge =  0 Multiplicity = 1

                         Standard orientation:
 ---------------------------------------------------------------------
 Center     Atomic      Atomic             Coordinates (Angstroms)
 Number     Number       Type             X           Y           Z
 ---------------------------------------------------------------------
      1         12           0        0.797515   -0.014105   -0.026802
      2          6           0       -2.704184   -0.035363    0.202810
      3          6           0        0.922928   -3.302137    0.515989
      4          6           0        4.021285    0.218823   -0.190114
      5          6           0        0.548400    3.566057    0.430428
      6          7           0       -0.752325   -1.442534    0.420266
      7          6           0       -2.080497   -1.317003    0.306201
      8          6           0       -2.798600   -2.599946    0.636685
      9          6           0       -1.620718   -3.528254    1.138285
     10          6           0       -0.415424   -2.741659    0.660655
     11          6           0       -1.549409   -3.885683    2.658387
     12          6           0       -3.466875   -3.231792   -0.689064
     13          6           0       -4.954777   -3.669247   -0.487745
     14          1           0       -5.675843   -4.002691   -1.903820
     15          7           0        2.208733   -1.348535   -0.110145
     16          6           0        2.088057   -2.712218    0.096174
     17          6           0        3.322731   -3.341261   -0.284542
     18          6           0        4.329086   -2.325530   -0.553179
     19          6           0        3.527185   -1.050898   -0.406156
     20          6           0        3.441265   -4.888940   -0.179765
     21          6           0        5.804526   -2.322907   -0.936564
     22          8           0        6.492620   -1.325094   -1.217918
     23          6           0        6.363266   -3.695753   -1.064716
     24          7           0        2.027005    1.669521    0.266352
     25          6           0        3.370418    1.417340    0.136399
     26          6           0        4.193082    2.674250    0.422014
     27          6           0        3.111203    3.779570    0.302828
     28          6           0        1.804911    2.988977    0.399100
     29          6           0        4.967156    2.514215    1.790351
     30          6           0        3.172967    4.678515   -1.004327
     31          6           0        2.541635    6.076968   -0.912941
     32          7           0       -0.735566    1.508071    0.223975
     33          6           0       -0.652427    2.857871    0.385622
     34          6           0       -1.963382    3.467456    0.375595
     35          6           0       -2.787418    2.336330    0.230886
     36          6           0       -2.010982    1.168940    0.207312
     37          6           0       -2.423638    4.939271    0.485660
     38          6           0       -4.162127    1.943100    0.094807
     39          8           0       -5.181489    2.552087   -0.099164
     40          6           0       -4.152582    0.333767    0.241799
     41          6           0       -5.080801   -0.042567   -0.827715
     42          8           0       -4.858769   -0.177878   -2.057528
     43          8           0       -6.266288   -0.206271   -0.215608
     44          6           0       -7.427606   -0.553319   -1.035945
     45          1           0        0.967139   -4.389989    0.601853
     46          1           0        5.102078    0.306952   -0.320386
     47          1           0        0.532562    4.657167    0.471443
     48          1           0       -3.606874   -2.506030    1.362457
     49          1           0       -1.521545   -4.490147    0.634912
     50          1           0       -0.685648   -3.370777    3.078932
     51          1           0       -1.392109   -4.963749    2.687138
     52          1           0       -2.390258   -3.619734    3.298011
     53          1           0       -2.922675   -4.057261   -1.149437
     54          1           0       -3.348993   -2.482724   -1.472151
     55          1           0       -5.521998   -2.880119    0.005421
     56          1           0       -5.095105   -4.594581    0.070454
     57          1           0        3.134396   -5.312861   -1.134924
     58          1           0        2.673501   -5.345638    0.445996
     59          1           0        4.343488   -5.287237    0.283816
     60          1           0        5.888501   -4.310006   -1.829008
     61          1           0        6.246124   -4.081368   -0.051222
     62          1           0        7.436007   -3.715966   -1.258926
     63          1           0        4.926494    2.723730   -0.382929
     64          1           0        3.225040    4.482306    1.128188
     65          1           0        4.510916    3.140593    2.556796
     66          1           0        6.023954    2.777297    1.827700
     67          1           0        4.914852    1.537558    2.271955
     68          1           0        2.520651    4.140668   -1.692832
     69          1           0        4.147851    4.828246   -1.468812
     70          1           0        1.664625    6.174489   -1.554134
     71          1           0        3.150947    6.951469   -1.142086
     72          1           0        2.132585    6.140510    0.094419
     73          1           0       -1.624315    5.458617    1.014306
     74          1           0       -3.366318    5.016502    1.029021
     75          1           0       -2.495265    5.313311   -0.535591
     76          1           0       -4.601099    0.051433    1.194445
     77          1           0       -7.715894   -1.579477   -0.808599
     78          1           0       -7.268816   -0.332074   -2.090841
     79          1           0       -8.274584    0.040570   -0.692624
 ---------------------------------------------------------------------

 SCF Done:  E(RwB97XD) =  -2035.29672446     A.U. after   20 cycles

 Excitation energies and oscillator strengths:

 Excited State   1:      Singlet-A      1.6707 eV  742.09 nm  f=0.3774  <S**2>=0.000
     155 ->158         0.20310
     156 ->157         0.67877
     155 <-158         0.12004
 This state for optimization and/or second-order correction.
 Total Energy, E(TD-HF/TD-DFT) =  -2035.23532614
 Copying the excited state density for this state as the 1-particle RhoCI density.

 Excited State   2:      Singlet-A      2.1931 eV  565.34 nm  f=0.0611  <S**2>=0.000
     155 ->157         0.61584
     156 ->158        -0.33615

 Excited State   3:      Singlet-A      3.4186 eV  362.67 nm  f=0.4059  <S**2>=0.000
     153 ->157        -0.13303
     154 ->157         0.33967
     155 ->157         0.25516
     156 ->158         0.52641

 Excited State   4:      Singlet-A      3.4688 eV  357.42 nm  f=0.1553  <S**2>=0.000
     152 ->157        -0.19955
     154 ->157         0.56390
     155 ->157        -0.15217
     156 ->158        -0.26427

 Excited State   5:      Singlet-A      3.6154 eV  342.93 nm  f=0.0380  <S**2>=0.000
     152 ->157         0.19823
     152 ->159        -0.14960
     152 ->160        -0.14355
     153 ->157         0.54943
     153 ->159        -0.17494
     153 ->160        -0.18086

 The electronic state is 1-A.
 Alpha  occ. eigenvalues --  -46.93926 -19.30085 -19.24736 -19.24071 -19.23404
 Alpha  occ. eigenvalues --  -14.47188 -14.46315 -14.44097 -14.42997 -10.42425
 Alpha  occ. eigenvalues --  -10.39992 -10.38664 -10.35762 -10.35202 -10.34826
 Alpha  occ. eigenvalues --  -10.34742 -10.34673 -10.34258 -10.34254 -10.34154
 Alpha  occ. eigenvalues --  -10.33462 -10.33226 -10.32795 -10.32695 -10.32419
 Alpha  occ. eigenvalues --  -10.31994 -10.31887 -10.31797 -10.31777 -10.31758
 Alpha  occ. eigenvalues --  -10.31685 -10.31655 -10.31337 -10.30766 -10.30522
 Alpha  occ. eigenvalues --  -10.30358 -10.30357 -10.30265 -10.29936 -10.29871
 Alpha  occ. eigenvalues --  -10.29731 -10.29190 -10.28482  -3.20169  -1.93751
 Alpha  occ. eigenvalues --   -1.93313  -1.93158  -1.18118  -1.13006  -1.11632
 Alpha  occ. eigenvalues --   -1.07721  -1.07203  -1.06315  -1.05615  -1.04472
 Alpha  occ. eigenvalues --   -0.94695  -0.91060  -0.90126  -0.89898  -0.89378
 Alpha  occ. eigenvalues --   -0.88934  -0.88217  -0.86455  -0.85734  -0.84393
 Alpha  occ. eigenvalues --   -0.84170  -0.83234  -0.82246  -0.80189  -0.79238
 Alpha  occ. eigenvalues --   -0.78829  -0.77852  -0.77323  -0.74777  -0.74117
 Alpha  occ. eigenvalues --   -0.71226  -0.70719  -0.69852  -0.69201  -0.67991
 Alpha  occ. eigenvalues --   -0.67466  -0.66882  -0.66440  -0.63757  -0.62265
 Alpha  occ. eigenvalues --   -0.61796  -0.61147  -0.60621  -0.59990  -0.59110
 Alpha  occ. eigenvalues --   -0.58325  -0.57849  -0.57444  -0.56288  -0.55844
 Alpha  occ. eigenvalues --   -0.55382  -0.55179  -0.54759  -0.54493  -0.54151
 Alpha  occ. eigenvalues --   -0.53525  -0.53340  -0.52980  -0.52682  -0.52313
 Alpha  occ. eigenvalues --   -0.52125  -0.51951  -0.51361  -0.51019  -0.50842
 Alpha  occ. eigenvalues --   -0.50402  -0.50086  -0.49932  -0.49317  -0.49191
 Alpha  occ. eigenvalues --   -0.48814  -0.48413  -0.48261  -0.47844  -0.47651
 Alpha  occ. eigenvalues --   -0.47458  -0.47068  -0.46853  -0.45963  -0.45690
 Alpha  occ. eigenvalues --   -0.45505  -0.45417  -0.45014  -0.44813  -0.44782
 Alpha  occ. eigenvalues --   -0.44594  -0.44163  -0.44028  -0.43877  -0.43258
 Alpha  occ. eigenvalues --   -0.43153  -0.42709  -0.42465  -0.42204  -0.41504
 Alpha  occ. eigenvalues --   -0.40727  -0.39771  -0.39464  -0.38949  -0.37515
 Alpha  occ. eigenvalues --   -0.37221  -0.36156  -0.35975  -0.34960  -0.33723
 Alpha  occ. eigenvalues --   -0.33505  -0.32621  -0.32465  -0.31775  -0.26120
 Alpha  occ. eigenvalues --   -0.22934
 Alpha virt. eigenvalues --   -0.06789  -0.00398   0.01749   0.04559   0.06216
 Alpha virt. eigenvalues --    0.07370   0.07598   0.08241   0.09576   0.10469
 Alpha virt. eigenvalues --    0.11419   0.12210   0.13148   0.13598   0.14017

 Mulliken charges:
               1
     1  Mg   0.994356
     2  C    0.048627
     3  C   -0.082902
     4  C   -0.068761
     5  C   -0.108745
     6  N   -0.341607
     7  C    0.045944
     8  C   -0.121715
     9  C   -0.075764
    10  C    0.029388
    11  C    0.026873
    12  C    0.024091
    13  C   -0.140468
    14  H    0.018714
    15  N   -0.559234
    16  C    0.189692
    17  C   -0.126395
    18  C   -0.130595
    19  C    0.181265
    20  C    0.043810
    21  C    0.089138
    22  O   -0.240697
    23  C   -0.020631
    24  N   -0.364125
    25  C    0.073110
    26  C   -0.083648
    27  C   -0.059630
    28  C    0.063243
    29  C    0.017212
    30  C   -0.011387
    31  C   -0.064773
    32  N   -0.360238
    33  C    0.130690
    34  C   -0.202593
    35  C   -0.018091
    36  C    0.092047
    37  C    0.097864
    38  C    0.101681
    39  O   -0.185087
    40  C   -0.133243
    41  C    0.263473
    42  O   -0.285043
    43  O   -0.350093
    44  C    0.138293
    45  H   -0.014461
    46  H    0.026611
    47  H   -0.019350
    48  H    0.037180
    49  H    0.028908
    50  H    0.042204
    51  H    0.037582
    52  H    0.042993
    53  H    0.031547
    54  H    0.058118
    55  H    0.053282
    56  H    0.056610
    57  H    0.054085
    58  H    0.028150
    59  H    0.054138
    60  H    0.074529
    61  H    0.050170
    62  H    0.047473
    63  H    0.043282
    64  H    0.027329
    65  H    0.021181
    66  H    0.043985
    67  H    0.041022
    68  H    0.036399
    69  H    0.043292
    70  H    0.035197
    71  H    0.044630
    72  H    0.027528
    73  H    0.034198
    74  H    0.066265
    75  H    0.064444
    76  H    0.073471
    77  H    0.048554
    78  H    0.075976
    79  H    0.049433
 Sum of Mulliken charges =  -0.00000

 Dipole moment (field-independent basis, Debye):
    X=              1.7665    Y=             -3.4195    Z=              3.0775  Tot=              4.9279
 Quadrupole moment (field-independent basis, Debye-Ang):
   XX=           -268.8679   YY=           -218.8119   ZZ=           -260.3404
   XY=             11.8758   XZ=             -3.4509   YZ=             -2.5748

 Normal termination of Gaussian 16 at Sun Sep 19 14:31:46 2021.
