 Gaussian 16, Revision A.03,
 Gaussian 16:  ES64L-G16RevA.03 25-Dec-2016

 --------------------------------
 #p wB97XD/Def2SVP td=(nstates=5)
 --------------------------------

 --------------------------------
 TDDFT excited states in gaussian
 --------------------------------
 Symbolic Z-matrix:
 Charge =  0 Multiplicity = 1

                         Standard orientation:
 ---------------------------------------------------------------------
 Center     Atomic      Atomic             Coordinates (Angstroms)
 Number     Number       Type             X           Y           Z
 ---------------------------------------------------------------------
      1         12           0       21.363176   -0.083966    0.719787
      2          6           0       17.898906   -0.526189    0.085963
      3          6           0       21.848400   -3.308845   -0.517886
      4          6           0       24.496094    0.787377    0.208195
      5          6           0       20.519301    3.355890    1.646737
      6          7           0       19.983902   -1.662012   -0.372544
      7          6           0       18.634459   -1.692968   -0.241549
      8          6           0       18.124923   -3.073196   -0.615981
      9          6           0       19.273573   -4.008152   -0.236924
     10          6           0       20.472472   -2.946998   -0.435915
     11          6           0       19.318079   -4.571586    1.184660
     12          6           0       17.660860   -3.075892   -2.137650
     13          6           0       16.363539   -3.758022   -2.328925
     14          1           0       16.215269   -4.678188   -3.556230
     15          7           0       23.014546   -1.098981   -0.107924
     16          6           0       23.019115   -2.464660   -0.485933
     17          6           0       24.371839   -2.773777   -0.875490
     18          6           0       25.217695   -1.664520   -0.609204
     19          6           0       24.281166   -0.569137   -0.171120
     20          6           0       24.727937   -4.152524   -1.422467
     21          6           0       26.670363   -1.590603   -0.869679
     22          8           0       27.234445   -2.566926   -1.347940
     23          6           0       27.556336   -0.400379   -0.699481
     24          7           0       22.343682    1.923649    0.829154
     25          6           0       23.688298    1.869890    0.752456
     26          6           0       24.310978    3.215034    1.168029
     27          6           0       23.047272    4.034197    1.794285
     28          6           0       21.888637    3.059556    1.459381
     29          6           0       25.608779    3.089255    2.086431
     30          6           0       22.854553    5.486966    1.257246
     31          6           0       21.795996    5.711180    0.124092
     32          7           0       19.668717    1.144880    0.856163
     33          6           0       19.495124    2.483682    1.309301
     34          6           0       18.000053    2.748310    1.478150
     35          6           0       17.413315    1.605134    0.959385
     36          6           0       18.459134    0.673602    0.620790
     37          6           0       17.209116    3.961090    2.005225
     38          6           0       16.161896    0.962843    0.710362
     39          8           0       15.013079    1.326337    0.967624
     40          6           0       16.496895   -0.311759    0.021588
     41          6           0       16.044967   -0.048909   -1.433151
     42          8           0       16.640962    0.596795   -2.292701
     43          8           0       14.757085   -0.633906   -1.584201
     44          6           0       14.069890   -0.428014   -2.794040
     45          1           0       22.062174   -4.340631   -0.805001
     46          1           0       25.578829    0.922403    0.169747
     47          1           0       20.164092    4.304442    2.053125
     48          1           0       17.292462   -3.408105    0.002665
     49          1           0       19.460312   -4.914974   -0.811020
     50          1           0       18.361858   -4.528166    1.705262
     51          1           0       20.187205   -4.208549    1.733774
     52          1           0       19.496544   -5.632220    1.003955
     53          1           0       18.397314   -3.625903   -2.723602
     54          1           0       17.708468   -2.100491   -2.621943
     55          1           0       15.676626   -2.913161   -2.363281
     56          1           0       16.165472   -4.367019   -1.447014
     57          1           0       25.262759   -4.770277   -0.701309
     58          1           0       25.266570   -4.026573   -2.360536
     59          1           0       23.822208   -4.705106   -1.672702
     60          1           0       27.642074   -0.190677    0.366998
     61          1           0       27.239070    0.507002   -1.214849
     62          1           0       28.597411   -0.642327   -0.909839
     63          1           0       24.556117    3.673856    0.210409
     64          1           0       23.128022    4.015216    2.880601
     65          1           0       26.099861    2.127025    1.941992
     66          1           0       25.532750    3.328276    3.147844
     67          1           0       26.188413    3.964931    1.790171
     68          1           0       23.790606    5.933908    0.923346
     69          1           0       22.495223    6.009263    2.143589
     70          1           0       22.325679    6.535250   -0.354440
     71          1           0       20.797563    6.041548    0.411439
     72          1           0       21.797471    4.822297   -0.507104
     73          1           0       16.578130    3.680009    2.847682
     74          1           0       16.532416    4.047849    1.155670
     75          1           0       17.905125    4.795489    2.088745
     76          1           0       15.894536   -1.118972    0.438483
     77          1           0       13.083743   -0.891584   -2.841641
     78          1           0       14.677809   -0.857222   -3.589480
     79          1           0       13.974013    0.654698   -2.880331
     80         12           0      -20.816094    0.614433    0.232941
     81          6           0      -19.943554   -2.751859    0.220336
     82          6           0      -17.501106    1.363025   -0.455641
     83          6           0      -21.590610    3.778512   -0.327366
     84          6           0      -24.154633   -0.278722    0.419905
     85          7           0      -18.981235   -0.547330   -0.240240
     86          6           0      -18.830954   -1.905342   -0.047595
     87          6           0      -17.403497   -2.354146   -0.153654
     88          6           0      -16.622038   -0.976709    0.011520
     89          6           0      -17.730933    0.025589   -0.280041
     90          6           0      -15.677156   -0.680704    1.271152
     91          6           0      -17.049412   -3.209966   -1.456807
     92          6           0      -17.828991   -2.890962   -2.767126
     93          1           0      -16.976383   -2.893750   -4.013180
     94          7           0      -19.724535    2.328043   -0.433065
     95          6           0      -18.344226    2.426090   -0.648363
     96          6           0      -17.974309    3.735379   -1.111573
     97          6           0      -19.177713    4.480287   -1.107994
     98          6           0      -20.253980    3.555157   -0.643520
     99          6           0      -16.499618    4.125555   -1.223311
    100          6           0      -19.210832    5.975102   -1.499865
    101          8           0      -18.211695    6.563506   -1.925624
    102          6           0      -20.488986    6.669391   -1.282111
    103          7           0      -22.648858    1.530592   -0.041030
    104          6           0      -22.682172    2.913756    0.015791
    105          6           0      -24.112815    3.476399    0.165469
    106          6           0      -24.899654    2.101971    0.161426
    107          6           0      -23.872879    1.059030    0.129482
    108          6           0      -24.444730    4.338394    1.342430
    109          6           0      -25.866626    1.935663   -1.117533
    110          6           0      -27.227705    1.436943   -0.707381
    111          7           0      -21.896748   -1.146293    0.505504
    112          6           0      -23.262825   -1.351405    0.562649
    113          6           0      -23.549698   -2.796733    0.709419
    114          6           0      -22.248225   -3.395592    0.581594
    115          6           0      -21.321926   -2.353361    0.459023
    116          6           0      -24.830391   -3.527026    0.672704
    117          6           0      -21.465038   -4.644409    0.468275
    118          8           0      -21.850870   -5.789652    0.424243
    119          6           0      -19.958377   -4.278255    0.274016
    120          6           0      -19.144707   -4.905236    1.316297
    121          8           0      -18.240122   -5.735285    1.222715
    122          8           0      -19.768675   -4.609043    2.556519
    123          6           0      -19.063996   -5.108614    3.756587
    124          1           0      -16.428775    1.568075   -0.416335
    125          1           0      -21.940665    4.812298   -0.296330
    126          1           0      -25.225309   -0.446482    0.549430
    127          1           0      -17.159026   -3.030445    0.665389
    128          1           0      -15.977571   -1.012998   -0.867161
    129          1           0      -15.527890   -1.513237    1.958462
    130          1           0      -16.056364    0.099433    1.931090
    131          1           0      -14.655979   -0.522734    0.923159
    132          1           0      -17.099650   -4.276439   -1.239708
    133          1           0      -15.986091   -3.053149   -1.637909
    134          1           0      -18.351234   -1.937506   -2.682168
    135          1           0      -18.595773   -3.647223   -2.932826
    136          1           0      -16.296253    4.859257   -2.003967
    137          1           0      -15.923508    3.256008   -1.538589
    138          1           0      -16.232319    4.547969   -0.254406
    139          1           0      -20.647900    6.772176   -0.209080
    140          1           0      -21.293814    6.121726   -1.773437
    141          1           0      -20.354248    7.652424   -1.733234
    142          1           0      -24.384440    3.929382   -0.788298
    143          1           0      -25.312295    2.068050    1.169711
    144          1           0      -25.530888    4.431295    1.343789
    145          1           0      -24.073066    5.338419    1.118926
    146          1           0      -24.019182    3.919686    2.255174
    147          1           0      -25.352239    1.263778   -1.804490
    148          1           0      -25.985613    2.804237   -1.766474
    149          1           0      -27.333976    0.417447   -1.077326
    150          1           0      -28.031374    1.913519   -1.269694
    151          1           0      -27.285696    1.373543    0.379036
    152          1           0      -25.725303   -2.912533    0.563882
    153          1           0      -24.921192   -4.015585    1.642219
    154          1           0      -24.723948   -4.056400   -0.273938
    155          1           0      -19.709610   -4.667960   -0.712796
    156          1           0      -19.103056   -4.241065    4.416319
    157          1           0      -18.029182   -5.446728    3.701654
    158          1           0      -19.773217   -5.796334    4.217555
 ---------------------------------------------------------------------

 SCF Done:  E(RwB97XD) =  -4070.56523991     A.U. after   20 cycles

 Excitation energies and oscillator strengths:

 Excited State   1:      Singlet-A      1.6240 eV  763.45 nm  f=0.3539  <S**2>=0.000
     310 -> 315       -0.20431
     312 -> 314        0.67792
     310 <- 315       -0.12287
 This state for optimization and/or second-order correction.
 Total Energy, E(TD-HF/TD-DFT) =  -4070.50555941
 Copying the excited state density for this state as the 1-particle RhoCI density.

 Excited State   2:      Singlet-A      1.6615 eV  746.20 nm  f=0.3702  <S**2>=0.000
     309 -> 316        0.18775
     311 -> 313        0.68141
     309 <- 316        0.11476

 Excited State   3:      Singlet-A      2.1336 eV  581.10 nm  f=0.0543  <S**2>=0.000
     310 -> 314        0.61273
     312 -> 315        0.34223

 Excited State   4:      Singlet-A      2.1479 eV  577.24 nm  f=0.0861  <S**2>=0.000
     309 -> 313        0.62822
     311 -> 316       -0.30707

 Excited State   5:      Singlet-A      3.4238 eV  362.13 nm  f=0.0603  <S**2>=0.000
     305 -> 313       -0.15827
     307 -> 313        0.62243
     311 -> 316        0.23273

 The electronic state is 1-A.
 Alpha  occ. eigenvalues --  -46.97658 -46.95447 -19.29950 -19.29572 -19.26344
 Alpha  occ. eigenvalues --  -19.25482 -19.24050 -19.23994 -19.23868 -19.22572
 Alpha  occ. eigenvalues --  -14.46991 -14.46836 -14.46776 -14.46516 -14.44835
 Alpha  occ. eigenvalues --  -14.44345 -14.44254 -14.43767 -10.44502 -10.43593
 Alpha  occ. eigenvalues --  -10.39136 -10.39067 -10.38585 -10.38059 -10.35851
 Alpha  occ. eigenvalues --  -10.35680 -10.35460 -10.35459 -10.35358 -10.35203
 Alpha  occ. eigenvalues --  -10.35047 -10.35017 -10.34865 -10.34770 -10.34725
 Alpha  occ. eigenvalues --  -10.34658 -10.34131 -10.34116 -10.34076 -10.33572
 Alpha  occ. eigenvalues --  -10.33491 -10.33389 -10.32938 -10.32836 -10.32789
 Alpha  occ. eigenvalues --  -10.32607 -10.32574 -10.32562 -10.32455 -10.32441
 Alpha  occ. eigenvalues --  -10.32370 -10.32367 -10.32309 -10.32267 -10.32261
 Alpha  occ. eigenvalues --  -10.32165 -10.32106 -10.31943 -10.31780 -10.31713
 Alpha  occ. eigenvalues --  -10.31646 -10.31612 -10.31457 -10.31417 -10.31199
 Alpha  occ. eigenvalues --  -10.31175 -10.31085 -10.31072 -10.31041 -10.31003
 Alpha  occ. eigenvalues --  -10.30860 -10.30820 -10.30734 -10.30668 -10.30222
 Alpha  occ. eigenvalues --  -10.30166 -10.30070 -10.30059 -10.29896 -10.29889
 Alpha  occ. eigenvalues --  -10.29625 -10.29560 -10.29512 -10.29436 -10.29179
 Alpha  occ. eigenvalues --  -10.29041  -3.23363  -3.21415  -1.96878  -1.96524
 Alpha  occ. eigenvalues --   -1.96275  -1.94987  -1.94554  -1.94378  -1.17987
 Alpha  occ. eigenvalues --   -1.16964  -1.12601  -1.11849  -1.11584  -1.11545
 Alpha  occ. eigenvalues --   -1.10857  -1.09104  -1.07053  -1.06208  -1.05715
 Alpha  occ. eigenvalues --   -1.05442  -1.05211  -1.04866  -1.04384  -1.03295
 Alpha  occ. eigenvalues --   -0.96404  -0.94424  -0.91500  -0.91159  -0.91029
 Alpha  occ. eigenvalues --   -0.90623  -0.89876  -0.89681  -0.89552  -0.89205
 Alpha  occ. eigenvalues --   -0.88807  -0.88787  -0.88149  -0.87504  -0.86722
 Alpha  occ. eigenvalues --   -0.86692  -0.86355  -0.85569  -0.84653  -0.84610
 Alpha  occ. eigenvalues --   -0.84266  -0.83555  -0.82806  -0.82788  -0.82235
 Alpha  occ. eigenvalues --   -0.82098  -0.80229  -0.79985  -0.79448  -0.79192
 Alpha  occ. eigenvalues --   -0.78800  -0.78752  -0.78134  -0.77962  -0.77696
 Alpha  occ. eigenvalues --   -0.77150  -0.74743  -0.74623  -0.74116  -0.73826
 Alpha  occ. eigenvalues --   -0.71837  -0.71348  -0.71234  -0.70717  -0.70074
 Alpha  occ. eigenvalues --   -0.69250  -0.68817  -0.68817  -0.68336  -0.67305
 Alpha  occ. eigenvalues --   -0.66915  -0.66892  -0.66693  -0.66549  -0.66505
 Alpha  occ. eigenvalues --   -0.65981  -0.64522  -0.64216  -0.62244  -0.61921
 Alpha  occ. eigenvalues --   -0.61763  -0.61392  -0.61269  -0.60929  -0.60860
 Alpha  occ. eigenvalues --   -0.60267  -0.60266  -0.59502  -0.59189  -0.59010
 Alpha  occ. eigenvalues --   -0.58288  -0.58094  -0.57934  -0.57760  -0.57617
 Alpha  occ. eigenvalues --   -0.57336  -0.57038  -0.56850  -0.56539  -0.56506
 Alpha  occ. eigenvalues --   -0.55787  -0.55634  -0.55297  -0.54972  -0.54854
 Alpha  occ. eigenvalues --   -0.54643  -0.54567  -0.54552  -0.54102  -0.54089
 Alpha  occ. eigenvalues --   -0.53907  -0.53889  -0.53606  -0.53534  -0.53330
 Alpha  occ. eigenvalues --   -0.53245  -0.53036  -0.52740  -0.52477  -0.52360
 Alpha  occ. eigenvalues --   -0.52223  -0.52085  -0.51898  -0.51543  -0.51488
 Alpha  occ. eigenvalues --   -0.51396  -0.51246  -0.51163  -0.50903  -0.50748
 Alpha  occ. eigenvalues --   -0.50491  -0.50421  -0.50180  -0.50176  -0.50089
 Alpha  occ. eigenvalues --   -0.49700  -0.49672  -0.49397  -0.49195  -0.49112
 Alpha  occ. eigenvalues --   -0.48864  -0.48771  -0.48454  -0.48205  -0.48134
 Alpha  occ. eigenvalues --   -0.48009  -0.47897  -0.47825  -0.47794  -0.47650
 Alpha  occ. eigenvalues --   -0.47359  -0.47310  -0.47228  -0.47058  -0.47049
 Alpha  occ. eigenvalues --   -0.46901  -0.46849  -0.46624  -0.46565  -0.46485
 Alpha  occ. eigenvalues --   -0.46365  -0.46021  -0.45853  -0.45796  -0.45440
 Alpha  occ. eigenvalues --   -0.45349  -0.45209  -0.45157  -0.45036  -0.44986
 Alpha  occ. eigenvalues --   -0.44739  -0.44440  -0.44342  -0.44055  -0.43967
 Alpha  occ. eigenvalues --   -0.43950  -0.43665  -0.43572  -0.43488  -0.43304
 Alpha  occ. eigenvalues --   -0.43114  -0.42957  -0.42869  -0.42362  -0.42325
 Alpha  occ. eigenvalues --   -0.41949  -0.41870  -0.41061  -0.41004  -0.40495
 Alpha  occ. eigenvalues --   -0.40424  -0.40175  -0.39953  -0.39877  -0.39624
 Alpha  occ. eigenvalues --   -0.39393  -0.38897  -0.38593  -0.38539  -0.38311
 Alpha  occ. eigenvalues --   -0.37717  -0.37649  -0.37176  -0.37138  -0.36764
 Alpha  occ. eigenvalues --   -0.36223  -0.35610  -0.35563  -0.33529  -0.33491
 Alpha  occ. eigenvalues --   -0.33131  -0.32980  -0.32788  -0.32710  -0.32162
 Alpha  occ. eigenvalues --   -0.32140  -0.31824  -0.31627  -0.26010  -0.25960
 Alpha  occ. eigenvalues --   -0.23013  -0.22829
 Alpha virt. eigenvalues --   -0.07000  -0.06878  -0.00726  -0.00306   0.01856
 Alpha virt. eigenvalues --    0.02730   0.02930   0.04319   0.04569   0.04864
 Alpha virt. eigenvalues --    0.06217   0.06855   0.07470   0.07574   0.08417

 Mulliken charges:
               1
     1  Mg   0.936487
     2  C    0.010770
     3  C   -0.075292
     4  C   -0.029772
     5  C   -0.064845
     6  N   -0.298151
     7  C   -0.021608
     8  C   -0.051958
     9  C   -0.134217
    10  C    0.044059
    11  C    0.038297
    12  C    0.033761
    13  C   -0.117056
    14  H    0.034938
    15  N   -0.490353
    16  C    0.145823
    17  C   -0.165594
    18  C   -0.025037
    19  C    0.111656
    20  C    0.096337
    21  C   -0.006974
    22  O   -0.246465
    23  C    0.014074
    24  N   -0.325700
    25  C    0.062798
    26  C   -0.098262
    27  C   -0.020586
    28  C    0.007912
    29  C    0.005971
    30  C   -0.047096
    31  C   -0.047982
    32  N   -0.422749
    33  C    0.106828
    34  C   -0.210746
    35  C   -0.023438
    36  C    0.161913
    37  C    0.090951
    38  C    0.075679
    39  O   -0.216285
    40  C   -0.054835
    41  C    0.276320
    42  O   -0.229396
    43  O   -0.374843
    44  C    0.144795
    45  H    0.004558
    46  H   -0.047386
    47  H   -0.000857
    48  H    0.012676
    49  H    0.029603
    50  H    0.042135
    51  H    0.047012
    52  H    0.028412
    53  H    0.032670
    54  H    0.056485
    55  H    0.045313
    56  H    0.046266
    57  H    0.058319
    58  H    0.061362
    59  H    0.009469
    60  H    0.040864
    61  H    0.071635
    62  H    0.046906
    63  H    0.050781
    64  H    0.037810
    65  H    0.052398
    66  H    0.033854
    67  H    0.031523
    68  H    0.040215
    69  H    0.030976
    70  H    0.035590
    71  H    0.046414
    72  H    0.060466
    73  H    0.072901
    74  H    0.067995
    75  H    0.038964
    76  H    0.061025
    77  H    0.058051
    78  H    0.041831
    79  H    0.053633
    80  Mg   0.956627
    81  C   -0.040848
    82  C   -0.109734
    83  C   -0.099706
    84  C   -0.098540
    85  N   -0.351167
    86  C    0.005532
    87  C   -0.079422
    88  C   -0.049972
    89  C    0.025526
    90  C    0.014885
    91  C   -0.014102
    92  C   -0.131220
    93  H    0.040675
    94  N   -0.438383
    95  C    0.180441
    96  C   -0.147268
    97  C   -0.106913
    98  C    0.207159
    99  C    0.079861
   100  C    0.051169
   101  O   -0.236284
   102  C   -0.010239
   103  N   -0.368921
   104  C    0.022442
   105  C   -0.081693
   106  C   -0.120641
   107  C    0.043118
   108  C    0.052827
   109  C   -0.004582
   110  C   -0.029183
   111  N   -0.431202
   112  C    0.160636
   113  C   -0.200512
   114  C   -0.051335
   115  C    0.127771
   116  C    0.085787
   117  C    0.113348
   118  O   -0.186417
   119  C   -0.040877
   120  C    0.283570
   121  O   -0.239903
   122  O   -0.406698
   123  C    0.140540
   124  H   -0.005300
   125  H   -0.020554
   126  H   -0.017695
   127  H    0.039103
   128  H    0.033417
   129  H    0.033386
   130  H    0.047810
   131  H    0.043674
   132  H    0.053332
   133  H    0.034518
   134  H    0.067860
   135  H    0.053300
   136  H    0.060316
   137  H    0.036814
   138  H    0.064876
   139  H    0.070816
   140  H    0.065159
   141  H    0.051329
   142  H    0.031715
   143  H    0.032428
   144  H    0.042831
   145  H    0.037345
   146  H    0.047635
   147  H    0.039945
   148  H    0.030706
   149  H    0.027369
   150  H    0.038712
   151  H    0.043342
   152  H    0.019153
   153  H    0.066767
   154  H    0.074747
   155  H    0.069308
   156  H    0.037383
   157  H    0.075525
   158  H    0.056776
 Sum of Mulliken charges =  -0.00000

 Dipole moment (field-independent basis, Debye):
    X=             -1.7258    Y=              5.2101    Z=              6.9136  Tot=              8.8273
 Quadrupole moment (field-independent basis, Debye-Ang):
   XX=           -374.5789   YY=           -537.0813   ZZ=           -502.8817
   XY=            -50.3104   XZ=             40.7895   YZ=             11.6660

 Normal termination of Gaussian 16 at Sun Sep 19 12:39:18 2021.
