 Gaussian 16, Revision A.03,
 Gaussian 16:  ES64L-G16RevA.03 25-Dec-2016

 --------------------------------
 #p wB97XD/Def2SVP td=(nstates=5)
 --------------------------------

 --------------------------------
 TDDFT excited states in gaussian
 --------------------------------
 Symbolic Z-matrix:
 Charge =  0 Multiplicity = 1

                         Standard orientation:
 ---------------------------------------------------------------------
 Center     Atomic      Atomic             Coordinates (Angstroms)
 Number     Number       Type             X           Y           Z
 ---------------------------------------------------------------------
      1         12           0       20.596899   -0.599585    0.014522
      2          6           0       19.987466    2.876315    0.482269
      3          6           0       20.106711   -0.144615   -3.358208
      4          6           0       21.125573   -3.853066   -0.218385
      5          6           0       20.583086   -1.019555    3.584222
      6          7           0       20.019356    1.204191   -1.337399
      7          6           0       19.942438    2.504017   -0.871731
      8          6           0       19.710623    3.404486   -2.133272
      9          6           0       19.705343    2.404680   -3.408948
     10          6           0       19.940098    1.087588   -2.662323
     11          6           0       18.460747    2.470101   -4.318444
     12          6           0       20.633382    4.683616   -2.285365
     13          6           0       19.914282    5.998997   -2.362291
     14          1           0       18.516047    6.156268   -2.898954
     15          7           0       20.742164   -1.861697   -1.658337
     16          6           0       20.495451   -1.473358   -2.937446
     17          6           0       20.856501   -2.594970   -3.765807
     18          6           0       21.049871   -3.690768   -2.897212
     19          6           0       20.959532   -3.201776   -1.482975
     20          6           0       20.793567   -2.472182   -5.297611
     21          6           0       21.184294   -5.134017   -3.278185
     22          8           0       21.233405   -6.039456   -2.412150
     23          6           0       21.202236   -5.508866   -4.713666
     24          7           0       20.755034   -2.202062    1.545932
     25          6           0       21.043480   -3.400429    1.173981
     26          6           0       21.324558   -4.485715    2.344588
     27          6           0       21.124933   -3.558206    3.552905
     28          6           0       20.816330   -2.227178    2.912196
     29          6           0       20.294650   -5.668164    2.225246
     30          6           0       22.314840   -3.453778    4.570498
     31          6           0       23.562689   -2.670574    4.098065
     32          7           0       20.225577    0.597538    1.630076
     33          6           0       20.236612    0.256959    3.003212
     34          6           0       20.056245    1.494703    3.774044
     35          6           0       19.963858    2.542266    2.826448
     36          6           0       20.115875    1.950169    1.527207
     37          6           0       20.025422    1.595267    5.328567
     38          6           0       19.822276    3.898278    2.738587
     39          8           0       19.645259    4.757306    3.578185
     40          6           0       19.884754    4.242024    1.224119
     41          6           0       18.711646    5.012369    0.881320
     42          8           0       17.627679    4.530466    0.533527
     43          8           0       18.911047    6.354182    1.227192
     44          6           0       17.702348    7.204952    1.095578
     45          1           0       19.735491   -0.187370   -4.384651
     46          1           0       21.134975   -4.941406   -0.308079
     47          1           0       20.573790   -1.090589    4.673821
     48          1           0       18.745945    3.820866   -1.846121
     49          1           0       20.515821    2.688156   -4.078942
     50          1           0       18.748356    2.672113   -5.351019
     51          1           0       17.680076    3.174934   -4.032827
     52          1           0       18.031795    1.470917   -4.242699
     53          1           0       21.273989    4.579274   -3.161276
     54          1           0       21.228165    4.716567   -1.372507
     55          1           0       20.393712    6.562232   -3.163714
     56          1           0       19.984325    6.473592   -1.384179
     57          1           0       20.768761   -1.432764   -5.625673
     58          1           0       19.911093   -2.990167   -5.670954
     59          1           0       21.705347   -2.957115   -5.644838
     60          1           0       22.034838   -4.972735   -5.169162
     61          1           0       20.295224   -5.179921   -5.222290
     62          1           0       21.246142   -6.591248   -4.827689
     63          1           0       22.348978   -4.856730    2.304320
     64          1           0       20.177790   -3.793421    4.038930
     65          1           0       19.380003   -5.268071    1.787787
     66          1           0       20.053376   -6.009539    3.232517
     67          1           0       20.584692   -6.543056    1.642832
     68          1           0       22.539545   -4.439116    4.977582
     69          1           0       21.933639   -2.962937    5.465418
     70          1           0       23.794349   -2.711126    3.034266
     71          1           0       24.406615   -2.974046    4.718610
     72          1           0       23.367717   -1.636960    4.383524
     73          1           0       20.686377    2.367962    5.721362
     74          1           0       20.238339    0.649775    5.826102
     75          1           0       19.090510    2.066362    5.633105
     76          1           0       20.782477    4.857703    1.178813
     77          1           0       16.963953    6.941248    1.852336
     78          1           0       17.179420    7.102364    0.145416
     79          1           0       18.056799    8.235168    1.057945
     80         12           0      -19.700843   -0.768675    0.216384
     81          6           0      -21.657453    2.244479    0.483533
     82          6           0      -17.690495    0.771749   -1.961090
     83          6           0      -18.529528   -3.796639   -0.614401
     84          6           0      -22.182926   -2.333385    2.138676
     85          7           0      -19.726783    1.224658   -0.654111
     86          6           0      -20.474563    2.353772   -0.278858
     87          6           0      -19.889188    3.669399   -0.919963
     88          6           0      -18.673585    3.133073   -1.734966
     89          6           0      -18.650837    1.619484   -1.393021
     90          6           0      -18.676713    3.375355   -3.223015
     91          6           0      -19.545658    4.806515    0.183753
     92          6           0      -20.163635    6.184552   -0.083206
     93          1           0      -19.108496    7.346401   -0.202135
     94          7           0      -18.196643   -1.408446   -1.014052
     95          6           0      -17.477671   -0.645568   -1.843680
     96          6           0      -16.514614   -1.440067   -2.608135
     97          6           0      -16.844343   -2.796906   -2.265781
     98          6           0      -17.913516   -2.727667   -1.264203
     99          6           0      -15.525224   -0.853750   -3.521135
    100          6           0      -16.211973   -4.044460   -2.958988
    101          8           0      -16.466607   -5.181794   -2.599578
    102          6           0      -15.236965   -3.936170   -4.087708
    103          7           0      -20.269146   -2.704254    0.692847
    104          6           0      -19.524484   -3.814836    0.310394
    105          6           0      -20.088764   -5.119769    0.962251
    106          6           0      -21.024923   -4.563360    2.099065
    107          6           0      -21.138714   -3.100567    1.670518
    108          6           0      -20.692744   -6.207004    0.014865
    109          6           0      -20.433252   -4.690378    3.529614
    110          6           0      -21.354113   -5.064518    4.663523
    111          7           0      -21.575083   -0.211687    1.094941
    112          6           0      -22.449558   -0.956785    1.833917
    113          6           0      -23.531646   -0.030407    2.386852
    114          6           0      -23.229759    1.228533    1.926784
    115          6           0      -22.074640    1.058471    1.088904
    116          6           0      -24.602215   -0.504095    3.343381
    117          6           0      -23.610832    2.628986    1.881886
    118          8           0      -24.598450    3.104785    2.479990
    119          6           0      -22.613323    3.381658    0.814935
    120          6           0      -23.289865    3.875991   -0.446600
    121          8           0      -23.967404    3.103441   -1.152972
    122          8           0      -23.209557    5.261888   -0.588912
    123          6           0      -24.189606    5.778246   -1.537298
    124          1           0      -16.931467    1.237170   -2.592989
    125          1           0      -18.045350   -4.734276   -0.894035
    126          1           0      -22.845255   -2.863181    2.827170
    127          1           0      -20.717204    4.015473   -1.538297
    128          1           0      -17.838212    3.762478   -1.425138
    129          1           0      -19.580019    3.873591   -3.575266
    130          1           0      -18.781027    2.346989   -3.567304
    131          1           0      -17.826611    3.965844   -3.566027
    132          1           0      -18.456458    4.832823    0.167142
    133          1           0      -19.795764    4.425384    1.173491
    134          1           0      -20.904317    6.349209    0.699339
    135          1           0      -20.692673    6.160074   -1.036756
    136          1           0      -15.486122   -1.170651   -4.562850
    137          1           0      -14.576610   -1.282462   -3.199975
    138          1           0      -15.351013    0.215725   -3.400903
    139          1           0      -14.387958   -3.390015   -3.674863
    140          1           0      -15.699378   -3.291096   -4.835330
    141          1           0      -15.046926   -4.959036   -4.410451
    142          1           0      -19.213371   -5.569783    1.430582
    143          1           0      -22.038327   -4.960614    2.046670
    144          1           0      -20.459663   -5.845280   -0.986341
    145          1           0      -21.750972   -6.407568    0.179829
    146          1           0      -20.124350   -7.137478    0.042774
    147          1           0      -20.078157   -3.664804    3.628791
    148          1           0      -19.558330   -5.336093    3.607592
    149          1           0      -20.800562   -5.788734    5.261294
    150          1           0      -22.266905   -5.558678    4.329221
    151          1           0      -21.422278   -4.178626    5.295392
    152          1           0      -24.450725   -1.573441    3.489398
    153          1           0      -25.567131   -0.403720    2.846930
    154          1           0      -24.577655    0.102027    4.248757
    155          1           0      -22.090199    4.179690    1.341810
    156          1           0      -24.992792    6.370660   -1.101278
    157          1           0      -24.652053    5.013343   -2.161295
    158          1           0      -23.637466    6.425350   -2.218355
 ---------------------------------------------------------------------

 SCF Done:  E(RwB97XD) =  -4070.59652390     A.U. after   19 cycles

 Excitation energies and oscillator strengths:

 Excited State   1:      Singlet-A      1.6412 eV  755.47 nm  f=0.4126  <S**2>=0.000
     309 -> 316        0.17863
     312 -> 314        0.68586
     309 <- 316        0.11672
 This state for optimization and/or second-order correction.
 Total Energy, E(TD-HF/TD-DFT) =  -4070.53621258
 Copying the excited state density for this state as the 1-particle RhoCI density.

 Excited State   2:      Singlet-A      1.7179 eV  721.73 nm  f=0.3748  <S**2>=0.000
     310 -> 315        0.19150
     311 -> 313        0.67996
     310 <- 315        0.11530

 Excited State   3:      Singlet-A      2.1592 eV  574.22 nm  f=0.1060  <S**2>=0.000
     310 -> 313        0.63945
     311 -> 315       -0.28255

 Excited State   4:      Singlet-A      2.2310 eV  555.74 nm  f=0.0894  <S**2>=0.000
     309 -> 314        0.62833
     312 -> 316       -0.31484

 Excited State   5:      Singlet-A      3.4133 eV  363.24 nm  f=0.1600  <S**2>=0.000
     300 -> 313        0.17293
     305 -> 313        0.47766
     306 -> 313       -0.11144
     308 -> 313       -0.16532
     310 -> 313        0.12688
     311 -> 315        0.40876

 The electronic state is 1-A.
 Alpha  occ. eigenvalues --  -46.96173 -46.94731 -19.31928 -19.29462 -19.25812
 Alpha  occ. eigenvalues --  -19.25058 -19.24196 -19.23900 -19.23518 -19.22519
 Alpha  occ. eigenvalues --  -14.47287 -14.47175 -14.46481 -14.46242 -14.44401
 Alpha  occ. eigenvalues --  -14.44295 -14.44260 -14.43923 -10.44712 -10.42426
 Alpha  occ. eigenvalues --  -10.40601 -10.39112 -10.38848 -10.37227 -10.36011
 Alpha  occ. eigenvalues --  -10.35835 -10.35659 -10.35610 -10.35477 -10.35128
 Alpha  occ. eigenvalues --  -10.35077 -10.34950 -10.34727 -10.34518 -10.34349
 Alpha  occ. eigenvalues --  -10.34172 -10.34106 -10.34030 -10.33820 -10.33757
 Alpha  occ. eigenvalues --  -10.33627 -10.33470 -10.33175 -10.33050 -10.33005
 Alpha  occ. eigenvalues --  -10.32907 -10.32737 -10.32635 -10.32463 -10.32328
 Alpha  occ. eigenvalues --  -10.32205 -10.32170 -10.32147 -10.32131 -10.32088
 Alpha  occ. eigenvalues --  -10.31992 -10.31930 -10.31729 -10.31701 -10.31493
 Alpha  occ. eigenvalues --  -10.31493 -10.31455 -10.31407 -10.31282 -10.31254
 Alpha  occ. eigenvalues --  -10.31212 -10.31176 -10.31172 -10.31001 -10.30984
 Alpha  occ. eigenvalues --  -10.30540 -10.30534 -10.30286 -10.30237 -10.30041
 Alpha  occ. eigenvalues --  -10.29985 -10.29899 -10.29829 -10.29820 -10.29811
 Alpha  occ. eigenvalues --  -10.29695 -10.29354 -10.29330 -10.29229 -10.29194
 Alpha  occ. eigenvalues --  -10.27852  -3.21978  -3.20805  -1.95577  -1.95130
 Alpha  occ. eigenvalues --   -1.94898  -1.94378  -1.93915  -1.93805  -1.18523
 Alpha  occ. eigenvalues --   -1.16471  -1.12276  -1.11424  -1.11334  -1.10755
 Alpha  occ. eigenvalues --   -1.10164  -1.08472  -1.08148  -1.05917  -1.05795
 Alpha  occ. eigenvalues --   -1.05321  -1.05093  -1.04626  -1.03902  -1.03695
 Alpha  occ. eigenvalues --   -0.94628  -0.94239  -0.91617  -0.90985  -0.90595
 Alpha  occ. eigenvalues --   -0.90294  -0.89912  -0.89690  -0.89277  -0.89253
 Alpha  occ. eigenvalues --   -0.89127  -0.88725  -0.88068  -0.87426  -0.86242
 Alpha  occ. eigenvalues --   -0.86184  -0.85548  -0.85244  -0.84609  -0.84460
 Alpha  occ. eigenvalues --   -0.84213  -0.83824  -0.83155  -0.82617  -0.82186
 Alpha  occ. eigenvalues --   -0.82049  -0.80372  -0.80352  -0.79528  -0.79486
 Alpha  occ. eigenvalues --   -0.78867  -0.78364  -0.78135  -0.77638  -0.76962
 Alpha  occ. eigenvalues --   -0.76642  -0.74514  -0.74449  -0.73558  -0.72940
 Alpha  occ. eigenvalues --   -0.72372  -0.71043  -0.71004  -0.70325  -0.69829
 Alpha  occ. eigenvalues --   -0.69827  -0.68955  -0.68670  -0.67266  -0.67255
 Alpha  occ. eigenvalues --   -0.66933  -0.66908  -0.66891  -0.66607  -0.66352
 Alpha  occ. eigenvalues --   -0.66231  -0.64587  -0.63403  -0.62290  -0.62243
 Alpha  occ. eigenvalues --   -0.61742  -0.61505  -0.60880  -0.60625  -0.60494
 Alpha  occ. eigenvalues --   -0.60334  -0.60115  -0.59892  -0.59535  -0.59309
 Alpha  occ. eigenvalues --   -0.58242  -0.58235  -0.58007  -0.57400  -0.57221
 Alpha  occ. eigenvalues --   -0.57046  -0.56927  -0.56846  -0.55697  -0.55500
 Alpha  occ. eigenvalues --   -0.55437  -0.55239  -0.55106  -0.54955  -0.54813
 Alpha  occ. eigenvalues --   -0.54531  -0.54510  -0.54349  -0.53992  -0.53751
 Alpha  occ. eigenvalues --   -0.53538  -0.53483  -0.53438  -0.53246  -0.53174
 Alpha  occ. eigenvalues --   -0.53054  -0.52767  -0.52734  -0.52468  -0.52175
 Alpha  occ. eigenvalues --   -0.51761  -0.51552  -0.51492  -0.51331  -0.51206
 Alpha  occ. eigenvalues --   -0.51149  -0.51059  -0.50969  -0.50804  -0.50718
 Alpha  occ. eigenvalues --   -0.50561  -0.50536  -0.50251  -0.50070  -0.49983
 Alpha  occ. eigenvalues --   -0.49896  -0.49859  -0.49445  -0.49248  -0.49175
 Alpha  occ. eigenvalues --   -0.48919  -0.48676  -0.48666  -0.48560  -0.48459
 Alpha  occ. eigenvalues --   -0.48418  -0.48112  -0.47947  -0.47881  -0.47749
 Alpha  occ. eigenvalues --   -0.47590  -0.47443  -0.47313  -0.46852  -0.46507
 Alpha  occ. eigenvalues --   -0.46494  -0.46311  -0.46136  -0.46064  -0.45939
 Alpha  occ. eigenvalues --   -0.45748  -0.45709  -0.45677  -0.45546  -0.45415
 Alpha  occ. eigenvalues --   -0.45152  -0.45143  -0.44946  -0.44808  -0.44691
 Alpha  occ. eigenvalues --   -0.44589  -0.44396  -0.44283  -0.43802  -0.43757
 Alpha  occ. eigenvalues --   -0.43716  -0.43624  -0.43567  -0.43396  -0.43203
 Alpha  occ. eigenvalues --   -0.43040  -0.43024  -0.42676  -0.42509  -0.42448
 Alpha  occ. eigenvalues --   -0.42083  -0.42006  -0.41703  -0.41417  -0.41029
 Alpha  occ. eigenvalues --   -0.41019  -0.40196  -0.39736  -0.39478  -0.39422
 Alpha  occ. eigenvalues --   -0.38904  -0.38668  -0.38491  -0.38453  -0.38051
 Alpha  occ. eigenvalues --   -0.38026  -0.37476  -0.37076  -0.36426  -0.35928
 Alpha  occ. eigenvalues --   -0.35570  -0.35329  -0.35151  -0.33698  -0.33557
 Alpha  occ. eigenvalues --   -0.33501  -0.33209  -0.32599  -0.32566  -0.32534
 Alpha  occ. eigenvalues --   -0.31953  -0.31928  -0.31675  -0.26087  -0.25757
 Alpha  occ. eigenvalues --   -0.23084  -0.22568
 Alpha virt. eigenvalues --   -0.06904  -0.06756   0.00112   0.00604   0.01985
 Alpha virt. eigenvalues --    0.02181   0.04296   0.04415   0.04894   0.05127
 Alpha virt. eigenvalues --    0.05675   0.07010   0.07210   0.08024   0.08096

 Mulliken charges:
               1
     1  Mg   0.949299
     2  C    0.012558
     3  C   -0.090576
     4  C   -0.048130
     5  C   -0.087871
     6  N   -0.314698
     7  C   -0.012970
     8  C   -0.056129
     9  C   -0.105068
    10  C    0.077843
    11  C    0.018395
    12  C    0.000144
    13  C   -0.139576
    14  H    0.031577
    15  N   -0.486346
    16  C    0.140125
    17  C   -0.180298
    18  C   -0.072201
    19  C    0.161077
    20  C    0.072817
    21  C    0.036380
    22  O   -0.261882
    23  C    0.006746
    24  N   -0.272017
    25  C    0.015750
    26  C   -0.110003
    27  C    0.029162
    28  C   -0.040008
    29  C   -0.003661
    30  C   -0.032795
    31  C   -0.036103
    32  N   -0.476787
    33  C    0.148534
    34  C   -0.176038
    35  C    0.006801
    36  C    0.138780
    37  C    0.087144
    38  C    0.031604
    39  O   -0.201446
    40  C   -0.063277
    41  C    0.267108
    42  O   -0.263295
    43  O   -0.379042
    44  C    0.150049
    45  H    0.007835
    46  H    0.029049
    47  H   -0.009077
    48  H    0.057251
    49  H    0.044928
    50  H    0.035061
    51  H    0.051780
    52  H    0.033480
    53  H    0.031625
    54  H    0.036295
    55  H    0.048464
    56  H    0.062244
    57  H    0.047857
    58  H    0.064207
    59  H    0.046343
    60  H    0.050877
    61  H    0.050306
    62  H    0.058528
    63  H    0.052409
    64  H    0.036468
    65  H    0.045552
    66  H    0.037072
    67  H    0.064080
    68  H    0.030918
    69  H    0.025082
    70  H    0.049788
    71  H    0.041236
    72  H    0.038634
    73  H    0.043752
    74  H    0.031545
    75  H    0.051127
    76  H    0.073556
    77  H    0.064631
    78  H    0.041682
    79  H    0.053740
    80  Mg   0.976108
    81  C   -0.099882
    82  C   -0.080782
    83  C   -0.088199
    84  C   -0.101346
    85  N   -0.370331
    86  C   -0.011464
    87  C   -0.072381
    88  C   -0.107088
    89  C    0.104525
    90  C    0.024228
    91  C    0.006754
    92  C   -0.109061
    93  H    0.027784
    94  N   -0.454597
    95  C    0.114206
    96  C   -0.149576
    97  C   -0.076270
    98  C    0.118071
    99  C    0.069398
   100  C    0.031577
   101  O   -0.238342
   102  C    0.011690
   103  N   -0.401102
   104  C    0.093404
   105  C   -0.058123
   106  C   -0.103807
   107  C    0.063878
   108  C    0.035211
   109  C   -0.016668
   110  C   -0.026200
   111  N   -0.388606
   112  C    0.149053
   113  C   -0.228824
   114  C    0.015720
   115  C    0.154309
   116  C    0.098530
   117  C    0.146746
   118  O   -0.221218
   119  C   -0.037065
   120  C    0.292771
   121  O   -0.256308
   122  O   -0.367189
   123  C    0.121096
   124  H   -0.014028
   125  H    0.016140
   126  H   -0.003785
   127  H    0.041616
   128  H    0.034209
   129  H    0.028889
   130  H    0.041567
   131  H    0.043000
   132  H    0.032014
   133  H    0.037970
   134  H    0.064394
   135  H    0.054553
   136  H    0.046786
   137  H    0.028305
   138  H    0.042615
   139  H    0.049499
   140  H    0.052055
   141  H    0.067729
   142  H    0.030989
   143  H    0.029173
   144  H    0.038571
   145  H    0.045318
   146  H    0.035498
   147  H    0.029368
   148  H    0.034960
   149  H    0.028937
   150  H    0.041835
   151  H    0.043823
   152  H    0.023003
   153  H    0.059006
   154  H    0.067090
   155  H    0.058143
   156  H    0.063442
   157  H    0.072059
   158  H    0.044628
 Sum of Mulliken charges =  -0.00000

 Dipole moment (field-independent basis, Debye):
    X=              5.7589    Y=             -0.7629    Z=             -3.8267  Tot=              6.9563
 Quadrupole moment (field-independent basis, Debye-Ang):
   XX=           -567.6921   YY=           -514.8111   ZZ=           -469.5871
   XY=            -45.5851   XZ=            -68.2984   YZ=            -52.8884

 Normal termination of Gaussian 16 at Sun Sep 19 05:27:27 2021.
