 Gaussian 16, Revision A.03,
 Gaussian 16:  ES64L-G16RevA.03 25-Dec-2016

 --------------------------------
 #p wB97XD/Def2SVP td=(nstates=5)
 --------------------------------

 --------------------------------
 TDDFT excited states in gaussian
 --------------------------------
 Symbolic Z-matrix:
 Charge =  0 Multiplicity = 1

                         Standard orientation:
 ---------------------------------------------------------------------
 Center     Atomic      Atomic             Coordinates (Angstroms)
 Number     Number       Type             X           Y           Z
 ---------------------------------------------------------------------
      1         12           0      -22.023773   -0.803270   -0.235770
      2          6           0      -23.657371    1.897884    1.370199
      3          6           0      -20.244320    1.635210   -1.998144
      4          6           0      -20.333350   -3.182028   -1.740267
      5          6           0      -24.439594   -2.971164    1.010811
      6          7           0      -21.970017    1.481027   -0.246913
      7          6           0      -22.603755    2.356943    0.581506
      8          6           0      -22.296881    3.846317    0.349137
      9          6           0      -21.252804    3.668514   -0.866205
     10          6           0      -21.184307    2.179374   -1.033413
     11          6           0      -21.711319    4.338592   -2.221536
     12          6           0      -21.664923    4.542907    1.598143
     13          6           0      -22.353819    5.618873    2.428508
     14          1           0      -21.565768    6.766903    3.045354
     15          7           0      -20.437615   -0.809629   -1.622532
     16          6           0      -19.886341    0.294612   -2.288354
     17          6           0      -18.950905   -0.214432   -3.266309
     18          6           0      -18.836295   -1.592907   -3.104145
     19          6           0      -19.852072   -1.913277   -2.082430
     20          6           0      -18.146277    0.761758   -4.054722
     21          6           0      -17.996114   -2.632959   -3.844464
     22          8           0      -18.018531   -3.846073   -3.615297
     23          6           0      -16.989697   -2.125430   -4.800498
     24          7           0      -22.370168   -2.790698   -0.455884
     25          6           0      -21.421932   -3.644836   -0.946850
     26          6           0      -21.715757   -5.121569   -0.515183
     27          6           0      -23.033813   -5.001459    0.238713
     28          6           0      -23.363282   -3.482961    0.215414
     29          6           0      -21.696745   -6.136511   -1.704604
     30          6           0      -22.872816   -5.574363    1.655048
     31          6           0      -23.946908   -6.450451    2.189297
     32          7           0      -23.773882   -0.627821    0.862324
     33          6           0      -24.640205   -1.587108    1.322276
     34          6           0      -25.680019   -1.012084    2.122167
     35          6           0      -25.318713    0.413216    2.294285
     36          6           0      -24.122659    0.563230    1.487605
     37          6           0      -26.879100   -1.768128    2.719616
     38          6           0      -25.661309    1.722176    2.905411
     39          8           0      -26.517520    2.009233    3.759148
     40          6           0      -24.578476    2.718894    2.319270
     41          6           0      -25.476785    3.706957    1.643150
     42          8           0      -25.941250    3.665113    0.510325
     43          8           0      -25.642959    4.766507    2.386524
     44          6           0      -26.626223    5.801148    1.983652
     45          1           0      -19.665115    2.489414   -2.354032
     46          1           0      -19.886212   -4.064643   -2.201636
     47          1           0      -25.146578   -3.677178    1.450634
     48          1           0      -23.213436    4.320486   -0.004078
     49          1           0      -20.219285    3.978658   -0.709017
     50          1           0      -22.760939    4.618412   -2.307283
     51          1           0      -21.523159    3.658817   -3.051823
     52          1           0      -21.111911    5.235395   -2.379295
     53          1           0      -20.746689    5.016603    1.250545
     54          1           0      -21.410216    3.801240    2.354144
     55          1           0      -22.660206    5.029944    3.293149
     56          1           0      -23.146481    5.941530    1.753392
     57          1           0      -17.079484    0.661121   -3.859723
     58          1           0      -18.429460    1.787368   -3.816666
     59          1           0      -18.259415    0.642951   -5.131878
     60          1           0      -16.396075   -1.345689   -4.323128
     61          1           0      -17.439630   -1.570425   -5.623805
     62          1           0      -16.276909   -2.874419   -5.144056
     63          1           0      -20.864853   -5.330505    0.133001
     64          1           0      -23.806859   -5.618318   -0.219227
     65          1           0      -21.326212   -5.721422   -2.641776
     66          1           0      -22.674725   -6.552828   -1.943276
     67          1           0      -21.166431   -7.041050   -1.407178
     68          1           0      -22.803497   -4.673436    2.263324
     69          1           0      -21.986721   -6.192254    1.798353
     70          1           0      -24.240328   -5.980195    3.127548
     71          1           0      -23.596613   -7.480604    2.253189
     72          1           0      -24.871376   -6.448657    1.611437
     73          1           0      -27.706092   -1.736193    2.011233
     74          1           0      -27.136019   -1.301689    3.670561
     75          1           0      -26.662773   -2.825027    2.876926
     76          1           0      -24.076208    3.170815    3.174410
     77          1           0      -26.411697    6.266470    1.022217
     78          1           0      -26.765152    6.594240    2.718103
     79          1           0      -27.663412    5.481897    1.886268
     80         12           0       22.270879   -0.723882    0.336900
     81          6           0       21.569923    2.456876   -1.040195
     82          6           0       23.053526    0.832543    3.285473
     83          6           0       23.536777   -3.591857    1.404627
     84          6           0       21.902250   -2.083533   -2.867304
     85          7           0       22.461383    1.427331    0.988160
     86          6           0       22.004659    2.531345    0.263386
     87          6           0       21.898179    3.765111    1.193292
     88          6           0       22.402111    3.216826    2.578166
     89          6           0       22.634222    1.701165    2.326414
     90          6           0       23.491824    4.007006    3.281477
     91          6           0       20.521274    4.441696    1.280548
     92          6           0       20.543857    5.960654    0.955983
     93          1           0       19.980334    6.863793    2.030579
     94          7           0       23.094332   -1.295483    2.153329
     95          6           0       23.376706   -0.530226    3.246521
     96          6           0       23.794640   -1.416926    4.306180
     97          6           0       24.086389   -2.720990    3.717159
     98          6           0       23.580083   -2.531350    2.366484
     99          6           0       24.161117   -0.886822    5.787805
    100          6           0       24.928203   -3.834379    4.172065
    101          8           0       25.109375   -4.883402    3.622538
    102          6           0       25.664494   -3.617009    5.490643
    103          7           0       22.854435   -2.532934   -0.691853
    104          6           0       23.300460   -3.593528    0.009147
    105          6           0       23.286542   -4.857412   -0.853826
    106          6           0       22.439158   -4.433050   -2.064027
    107          6           0       22.341581   -2.935679   -1.875011
    108          6           0       24.764890   -5.294557   -1.272180
    109          6           0       20.980948   -5.109043   -1.929164
    110          6           0       20.058393   -4.508388   -0.833567
    111          7           0       21.713796   -0.066745   -1.596455
    112          6           0       21.602932   -0.729696   -2.758956
    113          6           0       21.187498    0.204657   -3.770355
    114          6           0       21.116604    1.430797   -3.136176
    115          6           0       21.509295    1.254888   -1.806499
    116          6           0       20.904731   -0.038727   -5.240590
    117          6           0       20.842924    2.839353   -3.433442
    118          8           0       20.616940    3.528183   -4.388119
    119          6           0       21.047183    3.555123   -2.072065
    120          6           0       22.098493    4.574564   -2.312594
    121          8           0       23.170223    4.275431   -2.776131
    122          8           0       21.686546    5.868920   -2.038974
    123          6           0       22.577400    6.970715   -2.535131
    124          1           0       23.096546    1.309880    4.266797
    125          1           0       23.832616   -4.589252    1.737670
    126          1           0       21.560519   -2.448132   -3.838283
    127          1           0       22.643766    4.498354    0.885092
    128          1           0       21.591968    3.334042    3.298174
    129          1           0       23.983866    4.695519    2.596088
    130          1           0       24.241070    3.383499    3.769952
    131          1           0       22.978279    4.639106    4.005484
    132          1           0       20.004452    4.428944    2.240163
    133          1           0       19.813370    3.963411    0.604011
    134          1           0       20.116521    6.165807   -0.025490
    135          1           0       21.587726    6.263110    0.882905
    136          1           0       23.653092   -1.530486    6.505847
    137          1           0       23.827948    0.120210    6.035917
    138          1           0       25.210730   -0.802854    6.069421
    139          1           0       24.855204   -3.491596    6.210345
    140          1           0       26.234658   -2.700770    5.340570
    141          1           0       26.260099   -4.466667    5.825898
    142          1           0       22.765141   -5.695837   -0.390776
    143          1           0       22.814887   -4.576464   -3.077365
    144          1           0       24.747992   -6.376917   -1.402583
    145          1           0       25.584387   -5.092368   -0.581680
    146          1           0       24.918378   -4.811043   -2.236813
    147          1           0       21.027836   -6.187667   -1.780541
    148          1           0       20.388355   -4.873302   -2.813217
    149          1           0       19.148395   -5.070928   -0.627577
    150          1           0       19.752808   -3.517960   -1.171245
    151          1           0       20.654224   -4.401019    0.073419
    152          1           0       20.071858   -0.714858   -5.432302
    153          1           0       21.820537   -0.505953   -5.601725
    154          1           0       20.798711    0.886035   -5.807727
    155          1           0       20.090873    4.051227   -1.907347
    156          1           0       22.564707    7.603599   -1.647778
    157          1           0       22.154654    7.514285   -3.379864
    158          1           0       23.599424    6.754209   -2.845084
 ---------------------------------------------------------------------

 SCF Done:  E(RwB97XD) =  -4070.61431084     A.U. after   19 cycles

 Excitation energies and oscillator strengths:

 Excited State   1:      Singlet-A      1.6442 eV  754.09 nm  f=0.3996  <S**2>=0.000
     309 -> 316       -0.18144
     311 -> 313        0.68504
     309 <- 316       -0.11694
 This state for optimization and/or second-order correction.
 Total Energy, E(TD-HF/TD-DFT) =  -4070.55388886
 Copying the excited state density for this state as the 1-particle RhoCI density.

 Excited State   2:      Singlet-A      1.7236 eV  719.32 nm  f=0.3819  <S**2>=0.000
     310 -> 315        0.18635
     312 -> 314        0.68176
     310 <- 315        0.11196

 Excited State   3:      Singlet-A      2.1359 eV  580.49 nm  f=0.1339  <S**2>=0.000
     309 -> 313        0.65465
     311 -> 316        0.25215

 Excited State   4:      Singlet-A      2.1685 eV  571.76 nm  f=0.1033  <S**2>=0.000
     310 -> 314        0.63396
     312 -> 315       -0.29504

 Excited State   5:      Singlet-A      3.3973 eV  364.95 nm  f=0.0013  <S**2>=0.000
     304 -> 313        0.14160
     306 -> 313        0.57600
     307 -> 313       -0.34338

 The electronic state is 1-A.
 Alpha  occ. eigenvalues --  -46.95913 -46.94888 -19.30476 -19.30402 -19.24696
 Alpha  occ. eigenvalues --  -19.24688 -19.24242 -19.23892 -19.23436 -19.23119
 Alpha  occ. eigenvalues --  -14.47188 -14.46755 -14.46548 -14.46503 -14.44478
 Alpha  occ. eigenvalues --  -14.44390 -14.43852 -14.43561 -10.42671 -10.42464
 Alpha  occ. eigenvalues --  -10.40023 -10.39448 -10.39214 -10.38337 -10.35767
 Alpha  occ. eigenvalues --  -10.35689 -10.35610 -10.35596 -10.35484 -10.35298
 Alpha  occ. eigenvalues --  -10.34909 -10.34884 -10.34826 -10.34802 -10.34791
 Alpha  occ. eigenvalues --  -10.34508 -10.34290 -10.34009 -10.33844 -10.33680
 Alpha  occ. eigenvalues --  -10.33398 -10.33224 -10.33129 -10.32854 -10.32829
 Alpha  occ. eigenvalues --  -10.32791 -10.32727 -10.32665 -10.32379 -10.32295
 Alpha  occ. eigenvalues --  -10.32234 -10.32158 -10.32126 -10.32087 -10.32060
 Alpha  occ. eigenvalues --  -10.32038 -10.32024 -10.31970 -10.31943 -10.31766
 Alpha  occ. eigenvalues --  -10.31574 -10.31544 -10.31390 -10.31108 -10.31077
 Alpha  occ. eigenvalues --  -10.31026 -10.31012 -10.30708 -10.30602 -10.30506
 Alpha  occ. eigenvalues --  -10.30441 -10.30440 -10.30385 -10.30334 -10.30108
 Alpha  occ. eigenvalues --  -10.29916 -10.29853 -10.29837 -10.29745 -10.29716
 Alpha  occ. eigenvalues --  -10.29493 -10.29463 -10.29134 -10.29132 -10.28951
 Alpha  occ. eigenvalues --  -10.28660  -3.21776  -3.20916  -1.95344  -1.94910
 Alpha  occ. eigenvalues --   -1.94737  -1.94508  -1.94041  -1.93893  -1.19962
 Alpha  occ. eigenvalues --   -1.17878  -1.13956  -1.13303  -1.12377  -1.10587
 Alpha  occ. eigenvalues --   -1.09857  -1.08647  -1.07506  -1.07238  -1.06363
 Alpha  occ. eigenvalues --   -1.06130  -1.05899  -1.04793  -1.04037  -1.03345
 Alpha  occ. eigenvalues --   -0.94378  -0.93785  -0.91499  -0.90973  -0.90804
 Alpha  occ. eigenvalues --   -0.90706  -0.90704  -0.90183  -0.89719  -0.89705
 Alpha  occ. eigenvalues --   -0.88693  -0.88542  -0.88302  -0.87056  -0.86370
 Alpha  occ. eigenvalues --   -0.86221  -0.85424  -0.85370  -0.84784  -0.84682
 Alpha  occ. eigenvalues --   -0.84425  -0.83179  -0.82851  -0.82773  -0.82509
 Alpha  occ. eigenvalues --   -0.82142  -0.80805  -0.80355  -0.79421  -0.79384
 Alpha  occ. eigenvalues --   -0.78785  -0.78736  -0.78109  -0.78098  -0.77186
 Alpha  occ. eigenvalues --   -0.77138  -0.75132  -0.74204  -0.73816  -0.73777
 Alpha  occ. eigenvalues --   -0.71316  -0.71239  -0.71234  -0.70126  -0.70091
 Alpha  occ. eigenvalues --   -0.69604  -0.69270  -0.68981  -0.67783  -0.67452
 Alpha  occ. eigenvalues --   -0.67318  -0.67206  -0.67173  -0.66886  -0.66484
 Alpha  occ. eigenvalues --   -0.66206  -0.64377  -0.64317  -0.63028  -0.62447
 Alpha  occ. eigenvalues --   -0.61724  -0.61497  -0.61317  -0.60951  -0.60763
 Alpha  occ. eigenvalues --   -0.60475  -0.60131  -0.59786  -0.59654  -0.59569
 Alpha  occ. eigenvalues --   -0.58758  -0.58013  -0.57554  -0.57371  -0.57194
 Alpha  occ. eigenvalues --   -0.56942  -0.56621  -0.56226  -0.56143  -0.56134
 Alpha  occ. eigenvalues --   -0.55777  -0.55563  -0.55393  -0.54960  -0.54917
 Alpha  occ. eigenvalues --   -0.54632  -0.54598  -0.54502  -0.54363  -0.54095
 Alpha  occ. eigenvalues --   -0.54064  -0.53861  -0.53501  -0.53363  -0.53246
 Alpha  occ. eigenvalues --   -0.52713  -0.52566  -0.52423  -0.52029  -0.51985
 Alpha  occ. eigenvalues --   -0.51873  -0.51773  -0.51681  -0.51467  -0.51402
 Alpha  occ. eigenvalues --   -0.51326  -0.51264  -0.51056  -0.51004  -0.50608
 Alpha  occ. eigenvalues --   -0.50469  -0.50371  -0.50224  -0.50133  -0.50024
 Alpha  occ. eigenvalues --   -0.49901  -0.49743  -0.49561  -0.49437  -0.49343
 Alpha  occ. eigenvalues --   -0.48989  -0.48576  -0.48398  -0.48274  -0.48096
 Alpha  occ. eigenvalues --   -0.48075  -0.48020  -0.47851  -0.47778  -0.47539
 Alpha  occ. eigenvalues --   -0.47520  -0.47406  -0.47266  -0.47074  -0.47074
 Alpha  occ. eigenvalues --   -0.46982  -0.46564  -0.46507  -0.46312  -0.46214
 Alpha  occ. eigenvalues --   -0.46024  -0.45944  -0.45627  -0.45388  -0.45314
 Alpha  occ. eigenvalues --   -0.45183  -0.45023  -0.45016  -0.44872  -0.44760
 Alpha  occ. eigenvalues --   -0.44421  -0.44327  -0.44292  -0.44059  -0.43983
 Alpha  occ. eigenvalues --   -0.43972  -0.43639  -0.43399  -0.43329  -0.43313
 Alpha  occ. eigenvalues --   -0.43160  -0.42826  -0.42711  -0.42333  -0.42259
 Alpha  occ. eigenvalues --   -0.41984  -0.41742  -0.41674  -0.41419  -0.41013
 Alpha  occ. eigenvalues --   -0.40363  -0.40260  -0.40045  -0.39885  -0.39837
 Alpha  occ. eigenvalues --   -0.39290  -0.39179  -0.38716  -0.38384  -0.38377
 Alpha  occ. eigenvalues --   -0.38244  -0.37787  -0.36433  -0.36429  -0.36069
 Alpha  occ. eigenvalues --   -0.35677  -0.35535  -0.35158  -0.34142  -0.33859
 Alpha  occ. eigenvalues --   -0.33835  -0.33277  -0.32620  -0.32588  -0.32500
 Alpha  occ. eigenvalues --   -0.32404  -0.32245  -0.30838  -0.26134  -0.25875
 Alpha  occ. eigenvalues --   -0.23423  -0.23024
 Alpha virt. eigenvalues --   -0.07563  -0.06874   0.00044   0.00453   0.01841
 Alpha virt. eigenvalues --    0.02565   0.04155   0.04550   0.04770   0.05764
 Alpha virt. eigenvalues --    0.07526   0.07686   0.07883   0.08325   0.08526

 Mulliken charges:
               1
     1  Mg   0.972655
     2  C    0.039371
     3  C   -0.094841
     4  C   -0.084750
     5  C   -0.089035
     6  N   -0.280121
     7  C   -0.033702
     8  C   -0.039243
     9  C   -0.125408
    10  C    0.009587
    11  C    0.001835
    12  C   -0.006572
    13  C   -0.125557
    14  H    0.045854
    15  N   -0.445445
    16  C    0.189154
    17  C   -0.135262
    18  C   -0.078225
    19  C    0.174097
    20  C    0.050593
    21  C    0.084327
    22  O   -0.232501
    23  C   -0.006926
    24  N   -0.424742
    25  C    0.030628
    26  C   -0.065450
    27  C   -0.064762
    28  C    0.113812
    29  C    0.012692
    30  C   -0.040733
    31  C   -0.047840
    32  N   -0.454644
    33  C    0.145666
    34  C   -0.198903
    35  C   -0.045538
    36  C    0.123292
    37  C    0.077700
    38  C    0.112848
    39  O   -0.226546
    40  C   -0.112699
    41  C    0.232905
    42  O   -0.268602
    43  O   -0.310186
    44  C    0.148257
    45  H    0.001873
    46  H    0.016035
    47  H   -0.006143
    48  H    0.060616
    49  H    0.045614
    50  H    0.052702
    51  H    0.037792
    52  H    0.037507
    53  H    0.038514
    54  H    0.032735
    55  H    0.062049
    56  H    0.051831
    57  H    0.054636
    58  H    0.035475
    59  H    0.048395
    60  H    0.039658
    61  H    0.049856
    62  H    0.061286
    63  H    0.053965
    64  H    0.031683
    65  H    0.057278
    66  H    0.025276
    67  H    0.035155
    68  H    0.036530
    69  H    0.031242
    70  H    0.037264
    71  H    0.043609
    72  H    0.025484
    73  H    0.056367
    74  H    0.061403
    75  H    0.025346
    76  H    0.075591
    77  H    0.050770
    78  H    0.052456
    79  H    0.053108
    80  Mg   0.945942
    81  C   -0.040802
    82  C   -0.093323
    83  C   -0.065219
    84  C   -0.068569
    85  N   -0.371948
    86  C    0.009094
    87  C   -0.037938
    88  C   -0.103047
    89  C    0.075363
    90  C    0.021432
    91  C    0.015522
    92  C   -0.142056
    93  H    0.025715
    94  N   -0.445184
    95  C    0.174427
    96  C   -0.128345
    97  C   -0.081769
    98  C    0.149855
    99  C    0.017984
   100  C    0.023438
   101  O   -0.210386
   102  C   -0.006061
   103  N   -0.331148
   104  C    0.048492
   105  C   -0.089104
   106  C   -0.066860
   107  C    0.055953
   108  C    0.021705
   109  C   -0.041363
   110  C   -0.066586
   111  N   -0.411944
   112  C    0.080688
   113  C   -0.175920
   114  C   -0.085145
   115  C    0.178205
   116  C    0.073474
   117  C    0.147713
   118  O   -0.174283
   119  C   -0.066766
   120  C    0.252364
   121  O   -0.231212
   122  O   -0.382108
   123  C    0.126242
   124  H   -0.009979
   125  H    0.025894
   126  H   -0.003897
   127  H    0.041002
   128  H    0.033955
   129  H    0.030256
   130  H    0.043362
   131  H    0.031386
   132  H    0.042732
   133  H    0.032959
   134  H    0.067824
   135  H    0.036405
   136  H    0.049004
   137  H    0.027033
   138  H    0.053875
   139  H    0.041792
   140  H    0.056572
   141  H    0.049697
   142  H    0.042166
   143  H    0.039951
   144  H    0.039835
   145  H    0.057680
   146  H    0.036733
   147  H    0.045256
   148  H    0.027628
   149  H    0.048323
   150  H    0.041030
   151  H    0.039478
   152  H    0.051848
   153  H    0.041802
   154  H    0.060826
   155  H    0.062929
   156  H    0.052991
   157  H    0.061565
   158  H    0.073560
 Sum of Mulliken charges =  -0.00000

 Dipole moment (field-independent basis, Debye):
    X=              2.8862    Y=              1.2596    Z=              0.5735  Tot=              3.2009
 Quadrupole moment (field-independent basis, Debye-Ang):
   XX=           -796.8771   YY=           -473.8388   ZZ=           -507.3956
   XY=              5.3312   XZ=            115.3810   YZ=             12.1020

 Normal termination of Gaussian 16 at Mon Sep 20 14:29:18 2021.
