 Gaussian 16, Revision A.03,
 Gaussian 16:  ES64L-G16RevA.03 25-Dec-2016

 --------------------------------
 #p wB97XD/Def2SVP td=(nstates=5)
 --------------------------------

 --------------------------------
 TDDFT excited states in gaussian
 --------------------------------
 Symbolic Z-matrix:
 Charge =  0 Multiplicity = 1

                         Standard orientation:
 ---------------------------------------------------------------------
 Center     Atomic      Atomic             Coordinates (Angstroms)
 Number     Number       Type             X           Y           Z
 ---------------------------------------------------------------------
      1         12           0       16.607544    0.478692   -0.058003
      2          6           0       15.215053   -2.340663    1.419386
      3          6           0       14.083316    2.324717    1.353948
      4          6           0       17.821352    3.245267   -1.727623
      5          6           0       18.792461   -1.511406   -1.906308
      6          7           0       14.919903    0.032271    1.312322
      7          6           0       14.598026   -1.143972    1.877192
      8          6           0       13.487525   -1.066782    2.950718
      9          6           0       12.967359    0.419394    2.739587
     10          6           0       14.030587    0.997495    1.687624
     11          6           0       11.481110    0.374923    2.234557
     12          6           0       14.190685   -1.336702    4.378639
     13          6           0       13.573920   -2.466036    5.255455
     14          1           0       12.090159   -2.826861    4.883970
     15          7           0       16.032040    2.489888   -0.259334
     16          6           0       14.989812    3.068506    0.494099
     17          6           0       15.044323    4.505966    0.333909
     18          6           0       16.067925    4.789781   -0.579004
     19          6           0       16.766799    3.479497   -0.851587
     20          6           0       13.909429    5.406793    0.841554
     21          6           0       16.464734    6.167428   -1.172741
     22          8           0       17.392990    6.359361   -1.980274
     23          6           0       15.711464    7.414510   -0.678772
     24          7           0       18.051270    0.756192   -1.656012
     25          6           0       18.394610    2.064655   -2.113905
     26          6           0       19.362796    1.976675   -3.312110
     27          6           0       19.875286    0.468769   -3.161945
     28          6           0       18.872032   -0.131727   -2.142487
     29          6           0       18.627088    2.354001   -4.587293
     30          6           0       21.353820    0.411291   -2.588636
     31          6           0       21.846489    1.124414   -1.283522
     32          7           0       16.914098   -1.490277   -0.299400
     33          6           0       17.825911   -2.189402   -1.096238
     34          6           0       17.670849   -3.588556   -0.862869
     35          6           0       16.711202   -3.701433    0.126879
     36          6           0       16.188215   -2.409408    0.380841
     37          6           0       18.364258   -4.725103   -1.585927
     38          6           0       16.020048   -4.627645    0.933147
     39          8           0       16.079507   -5.814626    0.878135
     40          6           0       14.935929   -3.780685    1.719781
     41          6           0       13.599848   -4.225051    1.191944
     42          8           0       12.914021   -3.565270    0.439333
     43          8           0       13.366219   -5.451273    1.674453
     44          6           0       12.370509   -6.171803    0.919453
     45          1           0       13.333580    2.933789    1.862771
     46          1           0       18.026732    4.070126   -2.412131
     47          1           0       19.462653   -2.149931   -2.486505
     48          1           0       12.690823   -1.803140    2.846909
     49          1           0       13.024049    1.054740    3.623754
     50          1           0       11.247413    1.064803    1.423314
     51          1           0       10.984747    0.649534    3.164886
     52          1           0       11.248195   -0.671666    2.039783
     53          1           0       14.264870   -0.374741    4.885381
     54          1           0       15.225615   -1.607312    4.167945
     55          1           0       13.647878   -2.019150    6.246287
     56          1           0       14.131843   -3.401942    5.260539
     57          1           0       13.538332    5.965825   -0.017813
     58          1           0       14.318094    6.147913    1.529771
     59          1           0       13.138856    4.800303    1.316450
     60          1           0       14.716296    7.376943   -1.123792
     61          1           0       16.209794    8.261533   -1.149984
     62          1           0       15.861452    7.529540    0.394435
     63          1           0       20.193075    2.629768   -3.041818
     64          1           0       19.949474    0.004454   -4.144648
     65          1           0       17.807017    3.052013   -4.418084
     66          1           0       18.219431    1.466875   -5.071443
     67          1           0       19.288975    2.882193   -5.273295
     68          1           0       22.030658    0.688396   -3.396908
     69          1           0       21.462721   -0.641820   -2.329286
     70          1           0       22.169211    2.131743   -1.547040
     71          1           0       22.691654    0.530603   -0.933441
     72          1           0       21.160502    1.103876   -0.436102
     73          1           0       19.448304   -4.682046   -1.479089
     74          1           0       18.097884   -4.566751   -2.630751
     75          1           0       18.178137   -5.723115   -1.186677
     76          1           0       14.882060   -3.903244    2.801679
     77          1           0       12.519119   -7.251318    0.908931
     78          1           0       12.059475   -5.847906   -0.073648
     79          1           0       11.369500   -6.102457    1.345764
     80         12           0      -16.226638    0.575906    0.382610
     81          6           0      -15.883564   -2.680932   -0.920615
     82          6           0      -13.056606    0.322640    1.446281
     83          6           0      -16.496428    3.755116    1.090034
     84          6           0      -19.269252    0.759743   -1.482644
     85          7           0      -14.650473   -1.001741    0.221406
     86          6           0      -14.716611   -2.264887   -0.262154
     87          6           0      -13.445449   -3.063159   -0.055015
     88          6           0      -12.687556   -2.115195    0.958834
     89          6           0      -13.473607   -0.821980    0.896018
     90          6           0      -12.581583   -2.669706    2.439249
     91          6           0      -12.515652   -3.491146   -1.272880
     92          6           0      -12.657637   -2.835018   -2.671968
     93          1           0      -11.355340   -2.656468   -3.538520
     94          7           0      -14.932124    1.816089    1.305439
     95          6           0      -13.653313    1.585757    1.571155
     96          6           0      -13.032280    2.840411    2.076454
     97          6           0      -14.141860    3.834343    2.122142
     98          6           0      -15.253706    3.139901    1.472160
     99          6           0      -11.629913    2.929201    2.615318
    100          6           0      -14.030462    5.256741    2.605274
    101          8           0      -12.962216    5.636310    3.078653
    102          6           0      -15.160036    6.346922    2.501827
    103          7           0      -17.675144    2.147707   -0.230894
    104          6           0      -17.552009    3.273199    0.383294
    105          6           0      -18.838045    4.148064    0.037090
    106          6           0      -19.541763    3.234695   -0.968750
    107          6           0      -18.767690    1.931457   -0.920700
    108          6           0      -19.748958    4.625941    1.180172
    109          6           0      -19.422897    3.741658   -2.498315
    110          6           0      -20.730141    4.192831   -3.175227
    111          7           0      -17.350415   -0.610833   -0.974984
    112          6           0      -18.590266   -0.469874   -1.540161
    113          6           0      -19.063381   -1.764722   -2.094765
    114          6           0      -17.965305   -2.664817   -1.991040
    115          6           0      -17.005996   -1.903008   -1.193354
    116          6           0      -20.384249   -2.028976   -2.851465
    117          6           0      -17.439662   -3.957997   -2.276713
    118          8           0      -17.813634   -4.910401   -2.982397
    119          6           0      -16.086917   -4.060423   -1.527169
    120          6           0      -16.205530   -5.241205   -0.559181
    121          8           0      -15.744723   -6.351713   -0.566600
    122          8           0      -16.845908   -4.779535    0.595936
    123          6           0      -16.975285   -5.729617    1.744176
    124          1           0      -12.020368    0.215147    1.774138
    125          1           0      -16.554021    4.806061    1.383637
    126          1           0      -20.308101    0.756706   -1.818079
    127          1           0      -13.764836   -3.946048    0.498405
    128          1           0      -11.660375   -1.976968    0.621036
    129          1           0      -13.109933   -3.617285    2.538837
    130          1           0      -13.194220   -1.950643    2.981951
    131          1           0      -11.534778   -2.714021    2.740369
    132          1           0      -12.628645   -4.569284   -1.387427
    133          1           0      -11.472951   -3.370487   -0.977133
    134          1           0      -13.084429   -1.848717   -2.489728
    135          1           0      -13.220637   -3.436318   -3.385147
    136          1           0      -11.442695    3.842428    3.179789
    137          1           0      -10.966038    2.741517    1.770599
    138          1           0      -11.530766    2.026721    3.219377
    139          1           0      -16.164162    6.155942    2.882328
    140          1           0      -15.345622    6.537954    1.444861
    141          1           0      -14.878580    7.276204    2.996288
    142          1           0      -18.561488    5.100177   -0.414529
    143          1           0      -20.609969    3.047920   -0.853143
    144          1           0      -19.374885    4.313090    2.155133
    145          1           0      -20.781486    4.307410    1.033032
    146          1           0      -19.798228    5.711005    1.271378
    147          1           0      -19.033227    2.962631   -3.152153
    148          1           0      -18.706429    4.563085   -2.475941
    149          1           0      -20.794357    4.002609   -4.246865
    150          1           0      -20.749411    5.276565   -3.060457
    151          1           0      -21.495284    3.636089   -2.634077
    152          1           0      -20.922836   -1.135681   -3.166073
    153          1           0      -20.994945   -2.571841   -2.130461
    154          1           0      -20.174624   -2.719952   -3.667614
    155          1           0      -15.291036   -4.255896   -2.245064
    156          1           0      -17.057187   -6.795453    1.532263
    157          1           0      -17.931882   -5.452038    2.186463
    158          1           0      -16.266766   -5.648789    2.568787
 ---------------------------------------------------------------------

 SCF Done:  E(RwB97XD) =  -4070.59620633     A.U. after   19 cycles

 Excitation energies and oscillator strengths:

 Excited State   1:      Singlet-A      1.6513 eV  750.82 nm  f=0.3802  <S**2>=0.000
     310 -> 316        0.18081
     312 -> 314        0.68417
     310 <- 316        0.11556
 This state for optimization and/or second-order correction.
 Total Energy, E(TD-HF/TD-DFT) =  -4070.53552153
 Copying the excited state density for this state as the 1-particle RhoCI density.

 Excited State   2:      Singlet-A      1.7164 eV  722.36 nm  f=0.4133  <S**2>=0.000
     309 -> 315        0.19061
     311 -> 313        0.68120
     309 <- 315        0.11529

 Excited State   3:      Singlet-A      2.1706 eV  571.19 nm  f=0.1249  <S**2>=0.000
     310 -> 314        0.64460
     312 -> 316       -0.27786

 Excited State   4:      Singlet-A      2.2310 eV  555.73 nm  f=0.0956  <S**2>=0.000
     309 -> 313        0.63454
     311 -> 315       -0.29971

 Excited State   5:      Singlet-A      3.7699 eV  328.88 nm  f=0.0000  <S**2>=0.000
     312 -> 313        0.70707

 The electronic state is 1-A.
 Alpha  occ. eigenvalues --  -46.96431 -46.94392 -19.31374 -19.29891 -19.25412
 Alpha  occ. eigenvalues --  -19.24997 -19.24625 -19.24424 -19.23600 -19.23556
 Alpha  occ. eigenvalues --  -14.46933 -14.46813 -14.46393 -14.45999 -14.45088
 Alpha  occ. eigenvalues --  -14.44736 -14.44092 -14.43681 -10.43801 -10.43146
 Alpha  occ. eigenvalues --  -10.39796 -10.39574 -10.39024 -10.38843 -10.35667
 Alpha  occ. eigenvalues --  -10.35646 -10.35596 -10.35163 -10.35145 -10.35085
 Alpha  occ. eigenvalues --  -10.34780 -10.34710 -10.34670 -10.34445 -10.34306
 Alpha  occ. eigenvalues --  -10.34255 -10.34196 -10.34089 -10.33866 -10.33841
 Alpha  occ. eigenvalues --  -10.33798 -10.33589 -10.33579 -10.33392 -10.33084
 Alpha  occ. eigenvalues --  -10.32940 -10.32896 -10.32882 -10.32593 -10.32419
 Alpha  occ. eigenvalues --  -10.32324 -10.32181 -10.32085 -10.31981 -10.31959
 Alpha  occ. eigenvalues --  -10.31888 -10.31732 -10.31701 -10.31684 -10.31609
 Alpha  occ. eigenvalues --  -10.31544 -10.31443 -10.31337 -10.31142 -10.31139
 Alpha  occ. eigenvalues --  -10.31053 -10.31014 -10.30992 -10.30756 -10.30724
 Alpha  occ. eigenvalues --  -10.30546 -10.30471 -10.30462 -10.30441 -10.30361
 Alpha  occ. eigenvalues --  -10.30340 -10.30174 -10.30035 -10.29632 -10.29622
 Alpha  occ. eigenvalues --  -10.29592 -10.29403 -10.29278 -10.29155 -10.29058
 Alpha  occ. eigenvalues --  -10.28757  -3.22360  -3.20426  -1.95937  -1.95480
 Alpha  occ. eigenvalues --   -1.95328  -1.94018  -1.93528  -1.93418  -1.20343
 Alpha  occ. eigenvalues --   -1.18274  -1.14282  -1.11762  -1.11653  -1.11260
 Alpha  occ. eigenvalues --   -1.10458  -1.09548  -1.08757  -1.06863  -1.06162
 Alpha  occ. eigenvalues --   -1.06080  -1.05348  -1.05306  -1.04720  -1.03113
 Alpha  occ. eigenvalues --   -0.95637  -0.94800  -0.91748  -0.90747  -0.90499
 Alpha  occ. eigenvalues --   -0.90408  -0.90225  -0.89964  -0.89603  -0.89000
 Alpha  occ. eigenvalues --   -0.88922  -0.88405  -0.87897  -0.87342  -0.86854
 Alpha  occ. eigenvalues --   -0.85860  -0.85852  -0.85238  -0.84804  -0.84130
 Alpha  occ. eigenvalues --   -0.83730  -0.83136  -0.82797  -0.82779  -0.82495
 Alpha  occ. eigenvalues --   -0.81846  -0.80495  -0.79662  -0.79616  -0.78994
 Alpha  occ. eigenvalues --   -0.78968  -0.78640  -0.78634  -0.77761  -0.77330
 Alpha  occ. eigenvalues --   -0.76861  -0.75357  -0.74940  -0.74401  -0.73117
 Alpha  occ. eigenvalues --   -0.71624  -0.71220  -0.70799  -0.70617  -0.70610
 Alpha  occ. eigenvalues --   -0.69911  -0.69526  -0.68800  -0.68302  -0.67788
 Alpha  occ. eigenvalues --   -0.67666  -0.67528  -0.66900  -0.66520  -0.66433
 Alpha  occ. eigenvalues --   -0.65844  -0.65207  -0.64346  -0.62613  -0.62232
 Alpha  occ. eigenvalues --   -0.61961  -0.61470  -0.61391  -0.60881  -0.60555
 Alpha  occ. eigenvalues --   -0.60363  -0.60113  -0.59973  -0.59278  -0.59216
 Alpha  occ. eigenvalues --   -0.58371  -0.58186  -0.57886  -0.57674  -0.57637
 Alpha  occ. eigenvalues --   -0.57054  -0.56882  -0.56532  -0.56342  -0.55934
 Alpha  occ. eigenvalues --   -0.55870  -0.55611  -0.55291  -0.55037  -0.54919
 Alpha  occ. eigenvalues --   -0.54738  -0.54413  -0.54077  -0.53987  -0.53874
 Alpha  occ. eigenvalues --   -0.53803  -0.53687  -0.53657  -0.53552  -0.53240
 Alpha  occ. eigenvalues --   -0.53047  -0.52842  -0.52557  -0.52547  -0.51978
 Alpha  occ. eigenvalues --   -0.51824  -0.51771  -0.51738  -0.51481  -0.51431
 Alpha  occ. eigenvalues --   -0.51036  -0.51013  -0.50821  -0.50715  -0.50495
 Alpha  occ. eigenvalues --   -0.50473  -0.50458  -0.50258  -0.50199  -0.49827
 Alpha  occ. eigenvalues --   -0.49818  -0.49637  -0.49551  -0.49395  -0.49370
 Alpha  occ. eigenvalues --   -0.49228  -0.49067  -0.48897  -0.48600  -0.48557
 Alpha  occ. eigenvalues --   -0.48255  -0.48159  -0.48069  -0.48066  -0.47819
 Alpha  occ. eigenvalues --   -0.47726  -0.47511  -0.47462  -0.47316  -0.47118
 Alpha  occ. eigenvalues --   -0.46872  -0.46806  -0.46498  -0.46415  -0.46226
 Alpha  occ. eigenvalues --   -0.46142  -0.45931  -0.45649  -0.45550  -0.45541
 Alpha  occ. eigenvalues --   -0.45346  -0.45277  -0.45107  -0.44971  -0.44887
 Alpha  occ. eigenvalues --   -0.44601  -0.44548  -0.44276  -0.44263  -0.44067
 Alpha  occ. eigenvalues --   -0.44021  -0.43774  -0.43681  -0.43384  -0.43241
 Alpha  occ. eigenvalues --   -0.43131  -0.42872  -0.42670  -0.42616  -0.42577
 Alpha  occ. eigenvalues --   -0.42160  -0.41900  -0.41427  -0.41165  -0.41019
 Alpha  occ. eigenvalues --   -0.40783  -0.40155  -0.39743  -0.39640  -0.39369
 Alpha  occ. eigenvalues --   -0.39074  -0.38957  -0.38912  -0.38739  -0.38418
 Alpha  occ. eigenvalues --   -0.38295  -0.38129  -0.37084  -0.36731  -0.36280
 Alpha  occ. eigenvalues --   -0.36060  -0.35884  -0.34907  -0.34114  -0.33784
 Alpha  occ. eigenvalues --   -0.33509  -0.33292  -0.33029  -0.32892  -0.32459
 Alpha  occ. eigenvalues --   -0.32284  -0.31668  -0.31444  -0.26442  -0.25661
 Alpha  occ. eigenvalues --   -0.23366  -0.22755
 Alpha virt. eigenvalues --   -0.07284  -0.06875  -0.00149   0.00632   0.01393
 Alpha virt. eigenvalues --    0.02639   0.03829   0.04498   0.04626   0.05643
 Alpha virt. eigenvalues --    0.06793   0.07132   0.07171   0.07949   0.08348

 Mulliken charges:
               1
     1  Mg   0.964242
     2  C   -0.022386
     3  C   -0.067053
     4  C   -0.064466
     5  C   -0.108233
     6  N   -0.333503
     7  C    0.014115
     8  C   -0.076057
     9  C   -0.120570
    10  C    0.066947
    11  C    0.027391
    12  C   -0.000272
    13  C   -0.127175
    14  H    0.035006
    15  N   -0.460777
    16  C    0.133478
    17  C   -0.174280
    18  C   -0.090014
    19  C    0.138097
    20  C    0.086596
    21  C    0.051219
    22  O   -0.252410
    23  C   -0.016357
    24  N   -0.338768
    25  C    0.022163
    26  C   -0.061241
    27  C   -0.072468
    28  C    0.096894
    29  C    0.041965
    30  C   -0.059399
    31  C   -0.054434
    32  N   -0.488714
    33  C    0.148381
    34  C   -0.184037
    35  C   -0.008201
    36  C    0.148232
    37  C    0.079506
    38  C    0.095145
    39  O   -0.162834
    40  C   -0.097321
    41  C    0.245516
    42  O   -0.236962
    43  O   -0.309767
    44  C    0.140937
    45  H   -0.012913
    46  H    0.030849
    47  H    0.003254
    48  H    0.039792
    49  H    0.038827
    50  H    0.052195
    51  H    0.032883
    52  H    0.049478
    53  H    0.033241
    54  H    0.042331
    55  H    0.057020
    56  H    0.070047
    57  H    0.044578
    58  H    0.039315
    59  H    0.041545
    60  H    0.061865
    61  H    0.044456
    62  H    0.063985
    63  H    0.035080
    64  H    0.030276
    65  H    0.046274
    66  H    0.035074
    67  H    0.037249
    68  H    0.038890
    69  H    0.021480
    70  H    0.047713
    71  H    0.037232
    72  H    0.043657
    73  H    0.037550
    74  H    0.056852
    75  H    0.057379
    76  H    0.056515
    77  H    0.058010
    78  H    0.054735
    79  H    0.025158
    80  Mg   0.957850
    81  C   -0.036589
    82  C   -0.091608
    83  C   -0.036405
    84  C   -0.103748
    85  N   -0.341052
    86  C   -0.037897
    87  C    0.005291
    88  C   -0.158231
    89  C    0.057885
    90  C    0.033617
    91  C    0.002310
    92  C   -0.150034
    93  H    0.026922
    94  N   -0.476186
    95  C    0.164557
    96  C   -0.173399
    97  C   -0.081317
    98  C    0.167437
    99  C    0.085865
   100  C    0.055508
   101  O   -0.240400
   102  C   -0.027097
   103  N   -0.273821
   104  C    0.045828
   105  C   -0.055789
   106  C   -0.125978
   107  C    0.077372
   108  C    0.014298
   109  C   -0.041910
   110  C   -0.039884
   111  N   -0.402183
   112  C    0.127096
   113  C   -0.186154
   114  C   -0.008821
   115  C    0.160965
   116  C    0.075226
   117  C    0.093755
   118  O   -0.218058
   119  C   -0.083344
   120  C    0.279651
   121  O   -0.209525
   122  O   -0.398025
   123  C    0.134858
   124  H   -0.010955
   125  H   -0.053804
   126  H    0.002667
   127  H    0.040922
   128  H    0.037027
   129  H    0.035430
   130  H    0.038110
   131  H    0.054809
   132  H    0.045358
   133  H    0.044645
   134  H    0.072943
   135  H    0.074402
   136  H    0.077659
   137  H    0.041045
   138  H    0.036906
   139  H    0.056544
   140  H    0.057183
   141  H    0.052387
   142  H    0.035519
   143  H    0.023180
   144  H    0.033226
   145  H    0.036014
   146  H    0.027117
   147  H    0.043339
   148  H    0.025259
   149  H    0.043784
   150  H    0.037817
   151  H    0.028136
   152  H    0.042848
   153  H    0.054966
   154  H    0.069778
   155  H    0.068910
   156  H    0.065940
   157  H    0.044856
   158  H    0.047196
 Sum of Mulliken charges =  -0.00000

 Dipole moment (field-independent basis, Debye):
    X=             -3.5844    Y=              2.3697    Z=              4.3388  Tot=              6.1064
 Quadrupole moment (field-independent basis, Debye-Ang):
   XX=           -397.5877   YY=           -556.2359   ZZ=           -504.1175
   XY=            -73.5790   XZ=            -13.2125   YZ=            -19.4886

 Normal termination of Gaussian 16 at Sun Sep 19 15:42:47 2021.
