 Gaussian 16, Revision A.03,
 Gaussian 16:  ES64L-G16RevA.03 25-Dec-2016

 --------------------------------
 #p wB97XD/Def2SVP td=(nstates=5)
 --------------------------------

 --------------------------------
 TDDFT excited states in gaussian
 --------------------------------
 Symbolic Z-matrix:
 Charge =  0 Multiplicity = 1

                         Standard orientation:
 ---------------------------------------------------------------------
 Center     Atomic      Atomic             Coordinates (Angstroms)
 Number     Number       Type             X           Y           Z
 ---------------------------------------------------------------------
      1         12           0      -21.509944    0.011885   -0.443831
      2          6           0      -18.184603   -0.185888    0.484906
      3          6           0      -21.956107   -3.299369    0.751726
      4          6           0      -24.905008    0.319843   -0.791485
      5          6           0      -21.173407    3.374714   -1.155962
      6          7           0      -20.158538   -1.566394    0.380222
      7          6           0      -18.849304   -1.365462    0.764019
      8          6           0      -18.239972   -2.551892    1.601121
      9          6           0      -19.326362   -3.696319    1.328712
     10          6           0      -20.592705   -2.862154    0.734383
     11          6           0      -18.944978   -4.918254    0.409026
     12          6           0      -18.058315   -2.277916    3.052619
     13          6           0      -16.680224   -2.321868    3.684377
     14          1           0      -16.632211   -2.705135    5.172180
     15          7           0      -23.201444   -1.354513   -0.155939
     16          6           0      -23.103828   -2.683961    0.296189
     17          6           0      -24.392924   -3.298124    0.260446
     18          6           0      -25.325427   -2.182470   -0.048545
     19          6           0      -24.502135   -0.969381   -0.344825
     20          6           0      -24.680538   -4.722270    0.747080
     21          6           0      -26.849534   -2.393441   -0.056818
     22          8           0      -27.458319   -3.427952    0.200657
     23          6           0      -27.699693   -1.172595   -0.065254
     24          7           0      -22.938911    1.730057   -0.753285
     25          6           0      -24.231725    1.510374   -1.028990
     26          6           0      -24.907279    2.880507   -1.062236
     27          6           0      -23.724394    3.936239   -1.275838
     28          6           0      -22.481370    2.958679   -1.077931
     29          6           0      -25.877747    2.959917   -2.293599
     30          6           0      -23.629975    5.213285   -0.343757
     31          6           0      -23.821914    6.607832   -0.920830
     32          7           0      -19.949932    1.362452   -0.437747
     33          6           0      -19.941414    2.715571   -0.790550
     34          6           0      -18.637899    3.266520   -0.578356
     35          6           0      -17.874880    2.172851   -0.064297
     36          6           0      -18.760300    1.025391   -0.059420
     37          6           0      -18.169559    4.669061   -0.806974
     38          6           0      -16.613814    1.727204    0.365024
     39          8           0      -15.584939    2.366837    0.453836
     40          6           0      -16.767623    0.222467    0.814038
     41          6           0      -15.640100   -0.547782    0.266252
     42          8           0      -14.690408   -0.924646    0.943515
     43          8           0      -15.812103   -0.744033   -1.095879
     44          6           0      -14.688233   -1.476360   -1.721682
     45          1           0      -22.205942   -4.320048    1.047338
     46          1           0      -25.984168    0.304439   -0.960121
     47          1           0      -21.096974    4.447371   -1.345091
     48          1           0      -17.285190   -2.847113    1.167384
     49          1           0      -19.658319   -4.044063    2.307624
     50          1           0      -17.863034   -4.894130    0.279348
     51          1           0      -19.439519   -4.927663   -0.562374
     52          1           0      -19.282351   -5.817621    0.922863
     53          1           0      -18.610844   -3.055704    3.581893
     54          1           0      -18.427706   -1.281200    3.291483
     55          1           0      -16.271865   -1.312082    3.655629
     56          1           0      -16.010522   -3.039181    3.210518
     57          1           0      -23.902712   -5.334106    1.203419
     58          1           0      -25.115708   -5.178860   -0.141540
     59          1           0      -25.570152   -4.596325    1.363364
     60          1           0      -28.010661   -0.738356   -1.014462
     61          1           0      -27.308456   -0.393182    0.588793
     62          1           0      -28.654957   -1.472809    0.366982
     63          1           0      -25.461342    3.101993   -0.149778
     64          1           0      -23.665228    4.226186   -2.324316
     65          1           0      -26.833430    3.323369   -1.915905
     66          1           0      -26.023447    2.026325   -2.838459
     67          1           0      -25.530229    3.639893   -3.071734
     68          1           0      -22.639306    5.135272    0.103571
     69          1           0      -24.441282    5.096376    0.376063
     70          1           0      -23.299915    7.271940   -0.231473
     71          1           0      -24.881554    6.861602   -0.884123
     72          1           0      -23.435378    6.846783   -1.911022
     73          1           0      -17.115022    4.679335   -0.530151
     74          1           0      -18.799304    5.321291   -0.202656
     75          1           0      -18.223119    5.014582   -1.839530
     76          1           0      -16.636004    0.265602    1.895730
     77          1           0      -13.929921   -0.773955   -2.067486
     78          1           0      -15.135825   -2.106304   -2.490372
     79          1           0      -14.229729   -2.182908   -1.030410
     80         12           0       20.949815    0.756660   -0.360859
     81          6           0       20.553351   -2.712669   -0.756807
     82          6           0       17.598349    0.982173    0.373285
     83          6           0       21.560068    3.823750    0.719002
     84          6           0       24.439887    0.345335   -0.878594
     85          7           0       19.355720   -0.720992    0.032975
     86          6           0       19.402423   -2.120438   -0.196103
     87          6           0       18.064983   -2.734638   -0.259645
     88          6           0       17.111520   -1.492181    0.012408
     89          6           0       18.067556   -0.314177    0.114294
     90          6           0       15.967961   -1.382271   -1.024999
     91          6           0       17.790674   -3.750043    0.807423
     92          6           0       18.372895   -3.464275    2.199729
     93          1           0       17.596733   -3.865842    3.514075
     94          7           0       19.747455    2.261746    0.417899
     95          6           0       18.406719    2.176252    0.511586
     96          6           0       17.894579    3.465952    0.901903
     97          6           0       19.008769    4.340091    0.940780
     98          6           0       20.189579    3.508373    0.657967
     99          6           0       16.460726    3.784227    1.230587
    100          6           0       18.955607    5.839449    1.232505
    101          8           0       17.901025    6.394829    1.470991
    102          6           0       20.113957    6.780675    1.382342
    103          7           0       22.749006    1.836920    0.130056
    104          6           0       22.735295    3.148290    0.524362
    105          6           0       24.153781    3.796675    0.406088
    106          6           0       25.063938    2.549758    0.190575
    107          6           0       24.038820    1.518806   -0.228323
    108          6           0       24.328286    4.809692   -0.751089
    109          6           0       25.738343    1.935077    1.506536
    110          6           0       27.184373    1.603000    1.426736
    111          7           0       22.224297   -0.743432   -0.825684
    112          6           0       23.517504   -0.706859   -1.174246
    113          6           0       23.888424   -1.965767   -1.924210
    114          6           0       22.693097   -2.743890   -1.805206
    115          6           0       21.767644   -2.015467   -1.005450
    116          6           0       25.192113   -2.368041   -2.598627
    117          6           0       22.170757   -4.058301   -2.044357
    118          8           0       22.686175   -5.036678   -2.561724
    119          6           0       20.731019   -4.070081   -1.388842
    120          6           0       20.782714   -5.043635   -0.229688
    121          8           0       21.377619   -4.926343    0.790273
    122          8           0       19.911718   -6.076216   -0.505126
    123          6           0       19.641269   -6.942200    0.646938
    124          1           0       16.511143    1.075879    0.409042
    125          1           0       21.760347    4.880875    0.901366
    126          1           0       25.496297    0.332606   -1.154757
    127          1           0       17.963988   -3.203499   -1.238449
    128          1           0       16.668868   -1.437368    1.006918
    129          1           0       15.114576   -1.242055   -0.361304
    130          1           0       15.951789   -2.320411   -1.579852
    131          1           0       16.050847   -0.499871   -1.659820
    132          1           0       17.965202   -4.779534    0.493586
    133          1           0       16.736126   -3.883432    1.049749
    134          1           0       18.572351   -2.392146    2.202170
    135          1           0       19.343773   -3.956794    2.142877
    136          1           0       16.389801    4.367971    2.148962
    137          1           0       15.875874    2.865040    1.262146
    138          1           0       16.128276    4.394947    0.390841
    139          1           0       20.759610    6.596548    2.240419
    140          1           0       19.597374    7.703880    1.645329
    141          1           0       20.598924    7.019311    0.435187
    142          1           0       24.356126    4.321327    1.339754
    143          1           0       25.811277    2.688510   -0.591092
    144          1           0       25.009425    4.381140   -1.486051
    145          1           0       24.511409    5.818657   -0.381915
    146          1           0       23.373165    4.914008   -1.264588
    147          1           0       25.188328    1.061945    1.856811
    148          1           0       25.595778    2.713502    2.256284
    149          1           0       27.778236    2.096482    2.195809
    150          1           0       27.626645    1.813831    0.452786
    151          1           0       27.365302    0.542047    1.597072
    152          1           0       25.514335   -3.291253   -2.116983
    153          1           0       25.853149   -1.500567   -2.586738
    154          1           0       24.916050   -2.656213   -3.612867
    155          1           0       19.952627   -4.334331   -2.104299
    156          1           0       19.709660   -6.417741    1.599921
    157          1           0       20.416755   -7.704953    0.576025
    158          1           0       18.710854   -7.459471    0.414292
 ---------------------------------------------------------------------

 SCF Done:  E(RwB97XD) =  -4070.58581830     A.U. after   20 cycles

 Excitation energies and oscillator strengths:

 Excited State   1:      Singlet-A      1.6067 eV  771.69 nm  f=0.3725  <S**2>=0.000
     310 -> 316        0.17857
     312 -> 314        0.68540
     310 <- 316        0.11727
 This state for optimization and/or second-order correction.
 Total Energy, E(TD-HF/TD-DFT) =  -4070.52677456
 Copying the excited state density for this state as the 1-particle RhoCI density.

 Excited State   2:      Singlet-A      1.6653 eV  744.51 nm  f=0.3814  <S**2>=0.000
     309 -> 315        0.17865
     311 -> 313        0.68426
     309 <- 315        0.11349

 Excited State   3:      Singlet-A      2.1184 eV  585.28 nm  f=0.1560  <S**2>=0.000
     309 -> 313        0.64907
     311 -> 315       -0.25656

 Excited State   4:      Singlet-A      2.2111 eV  560.73 nm  f=0.0983  <S**2>=0.000
     310 -> 314        0.62751
     312 -> 316       -0.31204

 Excited State   5:      Singlet-A      3.0631 eV  404.77 nm  f=0.0077  <S**2>=0.000
     307 -> 313        0.68067

 The electronic state is 1-A.
 Alpha  occ. eigenvalues --  -46.96840 -46.94909 -19.30356 -19.29816 -19.25307
 Alpha  occ. eigenvalues --  -19.24785 -19.24213 -19.24155 -19.23309 -19.23219
 Alpha  occ. eigenvalues --  -14.48172 -14.46965 -14.46574 -14.46458 -14.44723
 Alpha  occ. eigenvalues --  -14.44435 -14.44150 -14.44082 -10.43054 -10.42990
 Alpha  occ. eigenvalues --  -10.39321 -10.38980 -10.38532 -10.38165 -10.37293
 Alpha  occ. eigenvalues --  -10.36244 -10.35772 -10.35702 -10.35252 -10.35214
 Alpha  occ. eigenvalues --  -10.35175 -10.34944 -10.34806 -10.34804 -10.34626
 Alpha  occ. eigenvalues --  -10.34571 -10.34571 -10.34480 -10.34117 -10.34104
 Alpha  occ. eigenvalues --  -10.33966 -10.33546 -10.33295 -10.33044 -10.32834
 Alpha  occ. eigenvalues --  -10.32792 -10.32763 -10.32749 -10.32592 -10.32534
 Alpha  occ. eigenvalues --  -10.32525 -10.32428 -10.32358 -10.32342 -10.32323
 Alpha  occ. eigenvalues --  -10.32261 -10.32238 -10.32148 -10.32078 -10.31933
 Alpha  occ. eigenvalues --  -10.31852 -10.31846 -10.31557 -10.31492 -10.31342
 Alpha  occ. eigenvalues --  -10.31040 -10.30975 -10.30886 -10.30860 -10.30827
 Alpha  occ. eigenvalues --  -10.30511 -10.30466 -10.30395 -10.30332 -10.30276
 Alpha  occ. eigenvalues --  -10.30183 -10.30082 -10.29926 -10.29899 -10.29721
 Alpha  occ. eigenvalues --  -10.29401 -10.29351 -10.29334 -10.29153 -10.29132
 Alpha  occ. eigenvalues --  -10.28913  -3.22535  -3.20979  -1.96145  -1.95626
 Alpha  occ. eigenvalues --   -1.95496  -1.94532  -1.94109  -1.93968  -1.19380
 Alpha  occ. eigenvalues --   -1.17706  -1.12578  -1.12352  -1.12165  -1.11970
 Alpha  occ. eigenvalues --   -1.11131  -1.09694  -1.06817  -1.06562  -1.06078
 Alpha  occ. eigenvalues --   -1.06004  -1.05300  -1.04657  -1.04621  -1.03829
 Alpha  occ. eigenvalues --   -0.95130  -0.94559  -0.91713  -0.91490  -0.91283
 Alpha  occ. eigenvalues --   -0.91273  -0.90269  -0.90062  -0.89670  -0.89420
 Alpha  occ. eigenvalues --   -0.89100  -0.88254  -0.87856  -0.87726  -0.86617
 Alpha  occ. eigenvalues --   -0.86462  -0.86025  -0.85742  -0.84842  -0.84601
 Alpha  occ. eigenvalues --   -0.84197  -0.83570  -0.82849  -0.82788  -0.82746
 Alpha  occ. eigenvalues --   -0.82437  -0.79856  -0.79804  -0.79412  -0.79158
 Alpha  occ. eigenvalues --   -0.78959  -0.78748  -0.78166  -0.77951  -0.77479
 Alpha  occ. eigenvalues --   -0.77063  -0.75516  -0.74662  -0.74306  -0.73624
 Alpha  occ. eigenvalues --   -0.71527  -0.71358  -0.70989  -0.70782  -0.70545
 Alpha  occ. eigenvalues --   -0.70009  -0.69117  -0.69060  -0.67762  -0.67560
 Alpha  occ. eigenvalues --   -0.67474  -0.67304  -0.67044  -0.66801  -0.66491
 Alpha  occ. eigenvalues --   -0.66338  -0.65000  -0.64070  -0.62321  -0.61947
 Alpha  occ. eigenvalues --   -0.61748  -0.61473  -0.61396  -0.61089  -0.60978
 Alpha  occ. eigenvalues --   -0.60895  -0.60075  -0.59815  -0.59367  -0.58922
 Alpha  occ. eigenvalues --   -0.58572  -0.58505  -0.57987  -0.57948  -0.57425
 Alpha  occ. eigenvalues --   -0.57332  -0.57025  -0.56711  -0.56531  -0.55996
 Alpha  occ. eigenvalues --   -0.55788  -0.55513  -0.55194  -0.54963  -0.54821
 Alpha  occ. eigenvalues --   -0.54775  -0.54711  -0.54416  -0.54268  -0.54179
 Alpha  occ. eigenvalues --   -0.54062  -0.53991  -0.53861  -0.53503  -0.53312
 Alpha  occ. eigenvalues --   -0.53281  -0.53048  -0.52855  -0.52842  -0.52369
 Alpha  occ. eigenvalues --   -0.52172  -0.52068  -0.51727  -0.51523  -0.51464
 Alpha  occ. eigenvalues --   -0.51309  -0.51195  -0.51183  -0.50859  -0.50814
 Alpha  occ. eigenvalues --   -0.50659  -0.50572  -0.50520  -0.50254  -0.50239
 Alpha  occ. eigenvalues --   -0.49851  -0.49805  -0.49432  -0.49161  -0.49100
 Alpha  occ. eigenvalues --   -0.49013  -0.48979  -0.48794  -0.48706  -0.48628
 Alpha  occ. eigenvalues --   -0.48533  -0.48281  -0.48105  -0.47941  -0.47916
 Alpha  occ. eigenvalues --   -0.47812  -0.47794  -0.47667  -0.47395  -0.47225
 Alpha  occ. eigenvalues --   -0.47139  -0.47112  -0.46668  -0.46573  -0.46514
 Alpha  occ. eigenvalues --   -0.46267  -0.46085  -0.45995  -0.45806  -0.45676
 Alpha  occ. eigenvalues --   -0.45584  -0.45506  -0.45119  -0.44990  -0.44761
 Alpha  occ. eigenvalues --   -0.44667  -0.44490  -0.44356  -0.44351  -0.44174
 Alpha  occ. eigenvalues --   -0.44081  -0.44051  -0.43760  -0.43605  -0.43448
 Alpha  occ. eigenvalues --   -0.43256  -0.43027  -0.42644  -0.42354  -0.42265
 Alpha  occ. eigenvalues --   -0.41905  -0.41735  -0.41642  -0.41390  -0.41003
 Alpha  occ. eigenvalues --   -0.40377  -0.40276  -0.39955  -0.39780  -0.39426
 Alpha  occ. eigenvalues --   -0.39284  -0.39217  -0.39045  -0.38807  -0.38445
 Alpha  occ. eigenvalues --   -0.37854  -0.37680  -0.37019  -0.36536  -0.36346
 Alpha  occ. eigenvalues --   -0.36185  -0.35490  -0.35267  -0.34017  -0.33548
 Alpha  occ. eigenvalues --   -0.33225  -0.33090  -0.32490  -0.32433  -0.32313
 Alpha  occ. eigenvalues --   -0.32040  -0.31858  -0.31795  -0.26561  -0.26197
 Alpha  occ. eigenvalues --   -0.23992  -0.22821
 Alpha virt. eigenvalues --   -0.08107  -0.07089  -0.00436   0.00158   0.02045
 Alpha virt. eigenvalues --    0.02329   0.04310   0.04523   0.04684   0.05454
 Alpha virt. eigenvalues --    0.07041   0.07411   0.07610   0.07804   0.08186

 Mulliken charges:
               1
     1  Mg   0.930298
     2  C    0.060727
     3  C   -0.053505
     4  C   -0.067761
     5  C   -0.064483
     6  N   -0.367775
     7  C   -0.017569
     8  C   -0.066876
     9  C   -0.122644
    10  C    0.087751
    11  C    0.030118
    12  C    0.037069
    13  C   -0.149376
    14  H    0.025292
    15  N   -0.454811
    16  C    0.135269
    17  C   -0.149635
    18  C   -0.136713
    19  C    0.177511
    20  C    0.084211
    21  C    0.092277
    22  O   -0.239807
    23  C   -0.062587
    24  N   -0.335540
    25  C    0.120491
    26  C   -0.138899
    27  C   -0.048724
    28  C    0.022518
    29  C    0.006363
    30  C   -0.011654
    31  C   -0.052432
    32  N   -0.425334
    33  C    0.118170
    34  C   -0.169434
    35  C   -0.018312
    36  C    0.076986
    37  C    0.078429
    38  C    0.069299
    39  O   -0.202374
    40  C   -0.060304
    41  C    0.246599
    42  O   -0.245807
    43  O   -0.384151
    44  C    0.134989
    45  H   -0.012758
    46  H   -0.019729
    47  H   -0.002601
    48  H    0.034884
    49  H    0.040595
    50  H    0.043276
    51  H    0.048394
    52  H    0.043011
    53  H    0.039678
    54  H    0.043345
    55  H    0.068910
    56  H    0.058992
    57  H    0.056931
    58  H    0.057831
    59  H    0.063781
    60  H    0.068463
    61  H    0.055833
    62  H    0.048641
    63  H    0.055230
    64  H    0.030155
    65  H    0.036221
    66  H    0.039793
    67  H    0.031084
    68  H    0.041423
    69  H    0.028832
    70  H    0.037007
    71  H    0.037564
    72  H    0.038390
    73  H    0.063016
    74  H    0.045538
    75  H    0.046937
    76  H    0.066575
    77  H    0.069704
    78  H    0.052466
    79  H    0.054724
    80  Mg   0.971363
    81  C   -0.073544
    82  C   -0.088748
    83  C   -0.070200
    84  C   -0.087674
    85  N   -0.366568
    86  C    0.021241
    87  C   -0.041227
    88  C   -0.131848
    89  C    0.060178
    90  C    0.036705
    91  C   -0.026213
    92  C   -0.106243
    93  H    0.042121
    94  N   -0.438615
    95  C    0.155158
    96  C   -0.199174
    97  C   -0.050417
    98  C    0.165388
    99  C    0.110914
   100  C    0.017495
   101  O   -0.237281
   102  C   -0.009421
   103  N   -0.357053
   104  C    0.045807
   105  C   -0.080033
   106  C   -0.111586
   107  C    0.037477
   108  C    0.042910
   109  C    0.014733
   110  C   -0.045842
   111  N   -0.434597
   112  C    0.147892
   113  C   -0.205209
   114  C   -0.044309
   115  C    0.163046
   116  C    0.102121
   117  C    0.124228
   118  O   -0.206637
   119  C   -0.072928
   120  C    0.257940
   121  O   -0.210161
   122  O   -0.374948
   123  C    0.128955
   124  H   -0.001742
   125  H   -0.030318
   126  H    0.001536
   127  H    0.040528
   128  H    0.052569
   129  H    0.037993
   130  H    0.045541
   131  H    0.046144
   132  H    0.018091
   133  H    0.023501
   134  H    0.051750
   135  H    0.057199
   136  H    0.065767
   137  H    0.021498
   138  H    0.056282
   139  H    0.066071
   140  H    0.044696
   141  H    0.054417
   142  H    0.033921
   143  H    0.029490
   144  H    0.040538
   145  H    0.046095
   146  H    0.027750
   147  H    0.057248
   148  H    0.024502
   149  H    0.038640
   150  H    0.024882
   151  H    0.035837
   152  H    0.069345
   153  H    0.037710
   154  H    0.057357
   155  H    0.064942
   156  H    0.073199
   157  H    0.055890
   158  H    0.055933
 Sum of Mulliken charges =  -0.00000

 Dipole moment (field-independent basis, Debye):
    X=             -3.0877    Y=              1.8003    Z=             -3.4616  Tot=              4.9757
 Quadrupole moment (field-independent basis, Debye-Ang):
   XX=           -360.8956   YY=           -507.5978   ZZ=           -513.9503
   XY=             36.4287   XZ=             21.6330   YZ=            -18.8531

 Normal termination of Gaussian 16 at Mon Sep 20 05:06:30 2021.
