 Gaussian 16, Revision A.03,
 Gaussian 16:  ES64L-G16RevA.03 25-Dec-2016

 --------------------------------
 #p wB97XD/Def2SVP td=(nstates=5)
 --------------------------------

 --------------------------------
 TDDFT excited states in gaussian
 --------------------------------
 Symbolic Z-matrix:
 Charge =  0 Multiplicity = 1

                         Standard orientation:
 ---------------------------------------------------------------------
 Center     Atomic      Atomic             Coordinates (Angstroms)
 Number     Number       Type             X           Y           Z
 ---------------------------------------------------------------------
      1         12           0      -26.588797    0.157739    0.008472
      2          6           0      -23.293761    1.009954    0.088851
      3          6           0      -26.394249    0.287464   -3.451957
      4          6           0      -29.720427   -1.050090   -0.073031
      5          6           0      -26.495710   -0.591678    3.445838
      6          7           0      -24.930499    0.351208   -1.509616
      7          6           0      -23.682058    0.741715   -1.183619
      8          6           0      -22.781640    0.813012   -2.362407
      9          6           0      -23.925390    0.948211   -3.548179
     10          6           0      -25.203554    0.498837   -2.809338
     11          6           0      -23.988255    2.375515   -4.167733
     12          6           0      -21.978414   -0.473173   -2.473394
     13          6           0      -22.748638   -1.872857   -2.531488
     14          1           0      -22.269699   -2.978410   -3.464103
     15          7           0      -27.878341   -0.317203   -1.528734
     16          6           0      -27.667617   -0.063375   -2.907662
     17          6           0      -28.911269   -0.283788   -3.567129
     18          6           0      -29.875760   -0.713614   -2.664160
     19          6           0      -29.228392   -0.682728   -1.341837
     20          6           0      -28.975082   -0.048818   -5.062625
     21          6           0      -31.275508   -1.190804   -2.969484
     22          8           0      -31.599983   -1.182195   -4.183098
     23          6           0      -32.162266   -1.829474   -2.055812
     24          7           0      -27.830762   -0.902434    1.463398
     25          6           0      -29.122326   -1.234933    1.177720
     26          6           0      -29.827412   -1.854576    2.408004
     27          6           0      -28.751009   -1.691236    3.533465
     28          6           0      -27.585569   -1.092289    2.764434
     29          6           0      -31.161338   -1.213647    2.726444
     30          6           0      -28.417149   -3.113128    4.236531
     31          6           0      -28.272770   -3.038000    5.760831
     32          7           0      -25.189451    0.183785    1.573931
     33          6           0      -25.317715    0.060776    2.920430
     34          6           0      -24.108232    0.573955    3.504100
     35          6           0      -23.236897    1.023603    2.452393
     36          6           0      -23.947419    0.731449    1.299894
     37          6           0      -23.702937    0.408894    4.928796
     38          6           0      -21.961557    1.537311    2.068136
     39          8           0      -21.081343    1.892394    2.862175
     40          6           0      -21.971226    1.578665    0.551209
     41          6           0      -21.742938    2.977953    0.115697
     42          8           0      -20.738597    3.556421    0.481268
     43          8           0      -22.674573    3.461757   -0.751233
     44          6           0      -22.447225    4.834692   -1.206511
     45          1           0      -26.412155    0.592404   -4.500247
     46          1           0      -30.800305   -1.210511   -0.088570
     47          1           0      -26.445314   -0.627299    4.536381
     48          1           0      -22.047826    1.618085   -2.402118
     49          1           0      -23.643221    0.368159   -4.427791
     50          1           0      -23.805339    2.323919   -5.240415
     51          1           0      -23.176111    2.948817   -3.719903
     52          1           0      -24.917183    2.914636   -3.977392
     53          1           0      -21.231547   -0.450422   -1.679545
     54          1           0      -21.341170   -0.268716   -3.333671
     55          1           0      -23.804480   -1.821179   -2.797575
     56          1           0      -22.585956   -2.251968   -1.522993
     57          1           0      -28.628719   -0.978009   -5.515495
     58          1           0      -28.270857    0.739434   -5.325810
     59          1           0      -29.949111    0.224660   -5.469415
     60          1           0      -32.828709   -2.529779   -2.560315
     61          1           0      -32.678098   -1.135948   -1.390454
     62          1           0      -31.525193   -2.496292   -1.476369
     63          1           0      -29.938246   -2.901872    2.124792
     64          1           0      -29.071992   -0.918070    4.231257
     65          1           0      -31.488900   -0.481101    1.989240
     66          1           0      -31.374138   -0.811740    3.716676
     67          1           0      -31.863808   -2.020128    2.514122
     68          1           0      -27.502447   -3.581401    3.872868
     69          1           0      -29.157743   -3.874401    3.992056
     70          1           0      -29.151244   -3.504835    6.205479
     71          1           0      -28.316434   -1.989079    6.054791
     72          1           0      -27.372242   -3.530396    6.128167
     73          1           0      -24.259566    0.969050    5.679155
     74          1           0      -22.647650    0.682954    4.956802
     75          1           0      -23.800086   -0.623103    5.266081
     76          1           0      -21.133608    0.960401    0.227018
     77          1           0      -21.463126    4.870520   -1.674689
     78          1           0      -22.562734    5.578275   -0.417778
     79          1           0      -23.249055    5.156599   -1.870837
     80         12           0       25.723284   -0.780976   -0.303964
     81          6           0       26.497360    2.608303   -0.152979
     82          6           0       23.397193   -0.373933    2.099167
     83          6           0       25.368805   -4.141166   -0.209365
     84          6           0       28.438047   -1.195292   -2.389196
     85          7           0       25.050005    0.980222    0.860610
     86          6           0       25.365613    2.288693    0.596321
     87          6           0       24.549439    3.196137    1.436032
     88          6           0       23.578212    2.306823    2.221019
     89          6           0       23.975556    0.851805    1.720037
     90          6           0       23.509516    2.447226    3.733791
     91          6           0       23.820056    4.347065    0.536330
     92          6           0       24.187813    5.822194    0.820949
     93          1           0       23.132805    6.900805    0.799574
     94          7           0       24.469810   -2.066199    0.697656
     95          6           0       23.564582   -1.710319    1.686167
     96          6           0       22.934724   -2.873980    2.195100
     97          6           0       23.496879   -4.002125    1.538387
     98          6           0       24.477111   -3.424085    0.613376
     99          6           0       21.741049   -2.695013    3.212721
    100          6           0       23.161991   -5.460210    1.847751
    101          8           0       23.707246   -6.447324    1.331304
    102          6           0       22.061501   -5.771734    2.763939
    103          7           0       26.883275   -2.505970   -0.966215
    104          6           0       26.483197   -3.759524   -0.911580
    105          6           0       27.534996   -4.704205   -1.535618
    106          6           0       28.140659   -3.681865   -2.576206
    107          6           0       27.780017   -2.336066   -1.955226
    108          6           0       28.674282   -5.334633   -0.651956
    109          6           0       27.626100   -3.794120   -4.090820
    110          6           0       26.185181   -3.625448   -4.350382
    111          7           0       27.291943    0.421488   -1.145926
    112          6           0       28.352290    0.103158   -2.016975
    113          6           0       29.098530    1.286188   -2.305660
    114          6           0       28.477795    2.274774   -1.568357
    115          6           0       27.309245    1.711110   -0.958948
    116          6           0       30.385575    1.352314   -2.970365
    117          6           0       28.420971    3.648040   -1.383078
    118          8           0       29.141555    4.563546   -1.793741
    119          6           0       27.212527    3.956361   -0.386299
    120          6           0       27.853122    4.395517    0.888784
    121          8           0       28.633449    3.841450    1.634329
    122          8           0       27.409996    5.638384    1.086237
    123          6           0       27.885008    6.314835    2.337504
    124          1           0       22.534232   -0.082563    2.701501
    125          1           0       25.113240   -5.200909   -0.261150
    126          1           0       29.253597   -1.332261   -3.102044
    127          1           0       25.264801    3.669691    2.107274
    128          1           0       22.568120    2.472976    1.847228
    129          1           0       24.212508    1.645760    3.957771
    130          1           0       22.516049    2.356870    4.173422
    131          1           0       23.888365    3.350691    4.210851
    132          1           0       22.740893    4.220841    0.618192
    133          1           0       24.077074    4.302784   -0.522308
    134          1           0       24.854960    6.124238    0.013098
    135          1           0       24.794794    5.926663    1.719278
    136          1           0       21.942347   -3.309627    4.089916
    137          1           0       20.979928   -3.182140    2.603090
    138          1           0       21.560858   -1.705164    3.632160
    139          1           0       22.222150   -5.313740    3.738933
    140          1           0       22.192476   -6.820636    3.028873
    141          1           0       21.060795   -5.612189    2.361578
    142          1           0       27.013990   -5.416377   -2.175665
    143          1           0       29.204406   -3.918440   -2.573612
    144          1           0       29.109863   -4.676580    0.098972
    145          1           0       29.401125   -5.647255   -1.402530
    146          1           0       28.305356   -6.207327   -0.112419
    147          1           0       27.848387   -4.757016   -4.551386
    148          1           0       27.961932   -2.943975   -4.684526
    149          1           0       26.063002   -2.543267   -4.360128
    150          1           0       25.464061   -4.013088   -3.630140
    151          1           0       25.785323   -3.967771   -5.304295
    152          1           0       31.094460    1.115218   -2.176141
    153          1           0       30.643318    2.320413   -3.398877
    154          1           0       30.456751    0.702965   -3.843623
    155          1           0       26.483337    4.656850   -0.793501
    156          1           0       27.014820    6.305130    2.994225
    157          1           0       28.240512    7.317340    2.100462
    158          1           0       28.676267    5.823227    2.904183
 ---------------------------------------------------------------------

 SCF Done:  E(RwB97XD) =  -4070.58747805     A.U. after   20 cycles

 Excitation energies and oscillator strengths:

 Excited State   1:      Singlet-A      1.6464 eV  753.07 nm  f=0.3743  <S**2>=0.000
     310 -> 316        0.18130
     312 -> 314        0.68363
     310 <- 316        0.11553
 This state for optimization and/or second-order correction.
 Total Energy, E(TD-HF/TD-DFT) =  -4070.52697420
 Copying the excited state density for this state as the 1-particle RhoCI density.

 Excited State   2:      Singlet-A      1.6886 eV  734.26 nm  f=0.3906  <S**2>=0.000
     309 -> 315       -0.18195
     311 -> 313        0.68309
     309 <- 315       -0.11275

 Excited State   3:      Singlet-A      2.1205 eV  584.70 nm  f=0.1347  <S**2>=0.000
     310 -> 314        0.64937
     312 -> 316       -0.26639

 Excited State   4:      Singlet-A      2.1633 eV  573.14 nm  f=0.1260  <S**2>=0.000
     309 -> 313        0.64779
     311 -> 315        0.25635

 Excited State   5:      Singlet-A      3.2087 eV  386.40 nm  f=0.0008  <S**2>=0.000
     306 -> 313       -0.33738
     308 -> 313        0.59903

 The electronic state is 1-A.
 Alpha  occ. eigenvalues --  -46.95668 -46.95491 -19.31610 -19.30268 -19.24438
 Alpha  occ. eigenvalues --  -19.24025 -19.23691 -19.23330 -19.23307 -19.23255
 Alpha  occ. eigenvalues --  -14.46690 -14.46674 -14.46577 -14.46418 -14.44465
 Alpha  occ. eigenvalues --  -14.44307 -14.43570 -14.43193 -10.43315 -10.42448
 Alpha  occ. eigenvalues --  -10.39031 -10.38836 -10.38457 -10.38192 -10.36504
 Alpha  occ. eigenvalues --  -10.35761 -10.35465 -10.35463 -10.35357 -10.35254
 Alpha  occ. eigenvalues --  -10.35229 -10.34625 -10.34521 -10.34498 -10.34295
 Alpha  occ. eigenvalues --  -10.34203 -10.34097 -10.33811 -10.33185 -10.33117
 Alpha  occ. eigenvalues --  -10.33054 -10.32994 -10.32801 -10.32615 -10.32602
 Alpha  occ. eigenvalues --  -10.32567 -10.32526 -10.32476 -10.32456 -10.32440
 Alpha  occ. eigenvalues --  -10.32286 -10.32279 -10.32185 -10.32114 -10.32000
 Alpha  occ. eigenvalues --  -10.31948 -10.31842 -10.31830 -10.31596 -10.31546
 Alpha  occ. eigenvalues --  -10.31539 -10.31467 -10.31460 -10.31456 -10.31390
 Alpha  occ. eigenvalues --  -10.31286 -10.31211 -10.31187 -10.30950 -10.30800
 Alpha  occ. eigenvalues --  -10.30525 -10.30444 -10.30361 -10.30319 -10.30312
 Alpha  occ. eigenvalues --  -10.30236 -10.30106 -10.29924 -10.29846 -10.29540
 Alpha  occ. eigenvalues --  -10.29442 -10.29442 -10.28834 -10.28698 -10.28574
 Alpha  occ. eigenvalues --  -10.28540  -3.21533  -3.21396  -1.95123  -1.94957
 Alpha  occ. eigenvalues --   -1.94630  -1.94535  -1.94517  -1.94346  -1.19597
 Alpha  occ. eigenvalues --   -1.19186  -1.11328  -1.11256  -1.10818  -1.10653
 Alpha  occ. eigenvalues --   -1.10222  -1.09555  -1.07427  -1.07002  -1.06563
 Alpha  occ. eigenvalues --   -1.06300  -1.05396  -1.04761  -1.04652  -1.03620
 Alpha  occ. eigenvalues --   -0.96069  -0.94193  -0.91259  -0.91119  -0.90930
 Alpha  occ. eigenvalues --   -0.90654  -0.90612  -0.90311  -0.89881  -0.89731
 Alpha  occ. eigenvalues --   -0.89522  -0.88802  -0.88361  -0.87801  -0.87039
 Alpha  occ. eigenvalues --   -0.86562  -0.86148  -0.86029  -0.85309  -0.84984
 Alpha  occ. eigenvalues --   -0.84723  -0.83930  -0.83509  -0.83413  -0.82875
 Alpha  occ. eigenvalues --   -0.82695  -0.80709  -0.80590  -0.79992  -0.79593
 Alpha  occ. eigenvalues --   -0.79304  -0.78992  -0.78080  -0.77889  -0.77291
 Alpha  occ. eigenvalues --   -0.76951  -0.75476  -0.74499  -0.74137  -0.73658
 Alpha  occ. eigenvalues --   -0.72101  -0.71336  -0.71096  -0.71037  -0.70809
 Alpha  occ. eigenvalues --   -0.69726  -0.69187  -0.69163  -0.68500  -0.67725
 Alpha  occ. eigenvalues --   -0.67374  -0.67366  -0.67227  -0.66773  -0.66382
 Alpha  occ. eigenvalues --   -0.65952  -0.65825  -0.64045  -0.62422  -0.62243
 Alpha  occ. eigenvalues --   -0.61909  -0.61728  -0.61353  -0.61304  -0.60753
 Alpha  occ. eigenvalues --   -0.60593  -0.60397  -0.60246  -0.60049  -0.59888
 Alpha  occ. eigenvalues --   -0.58765  -0.58598  -0.58416  -0.57794  -0.57690
 Alpha  occ. eigenvalues --   -0.57473  -0.57113  -0.56988  -0.56766  -0.56640
 Alpha  occ. eigenvalues --   -0.56488  -0.56235  -0.55720  -0.55462  -0.55290
 Alpha  occ. eigenvalues --   -0.55161  -0.55045  -0.54941  -0.54640  -0.54479
 Alpha  occ. eigenvalues --   -0.54134  -0.53842  -0.53831  -0.53735  -0.53362
 Alpha  occ. eigenvalues --   -0.53118  -0.53038  -0.53013  -0.52834  -0.52343
 Alpha  occ. eigenvalues --   -0.52323  -0.51723  -0.51656  -0.51596  -0.51452
 Alpha  occ. eigenvalues --   -0.51381  -0.51127  -0.51068  -0.50955  -0.50719
 Alpha  occ. eigenvalues --   -0.50606  -0.50437  -0.50436  -0.50273  -0.50088
 Alpha  occ. eigenvalues --   -0.50022  -0.49568  -0.49306  -0.49095  -0.49053
 Alpha  occ. eigenvalues --   -0.48758  -0.48678  -0.48606  -0.48435  -0.48399
 Alpha  occ. eigenvalues --   -0.48172  -0.48026  -0.47910  -0.47752  -0.47693
 Alpha  occ. eigenvalues --   -0.47578  -0.47171  -0.47162  -0.46842  -0.46606
 Alpha  occ. eigenvalues --   -0.46557  -0.46539  -0.46497  -0.46387  -0.46076
 Alpha  occ. eigenvalues --   -0.46027  -0.45714  -0.45617  -0.45530  -0.45289
 Alpha  occ. eigenvalues --   -0.45141  -0.44923  -0.44768  -0.44461  -0.44347
 Alpha  occ. eigenvalues --   -0.44251  -0.44208  -0.44139  -0.44056  -0.43854
 Alpha  occ. eigenvalues --   -0.43759  -0.43740  -0.43610  -0.43323  -0.43097
 Alpha  occ. eigenvalues --   -0.43005  -0.42956  -0.42833  -0.42638  -0.42368
 Alpha  occ. eigenvalues --   -0.42080  -0.41447  -0.41399  -0.41116  -0.40845
 Alpha  occ. eigenvalues --   -0.40680  -0.40031  -0.39971  -0.39817  -0.39725
 Alpha  occ. eigenvalues --   -0.39632  -0.39490  -0.39077  -0.39012  -0.38424
 Alpha  occ. eigenvalues --   -0.38044  -0.37911  -0.36738  -0.36468  -0.36248
 Alpha  occ. eigenvalues --   -0.35997  -0.35740  -0.35316  -0.34013  -0.33681
 Alpha  occ. eigenvalues --   -0.32965  -0.32837  -0.32703  -0.32504  -0.32415
 Alpha  occ. eigenvalues --   -0.32329  -0.32145  -0.31155  -0.26242  -0.25926
 Alpha  occ. eigenvalues --   -0.23495  -0.23252
 Alpha virt. eigenvalues --   -0.07515  -0.07337   0.00032   0.00293   0.02197
 Alpha virt. eigenvalues --    0.02338   0.04104   0.04356   0.04445   0.05304
 Alpha virt. eigenvalues --    0.07339   0.07751   0.08004   0.08558   0.08626

 Mulliken charges:
               1
     1  Mg   0.931675
     2  C   -0.001169
     3  C   -0.065801
     4  C   -0.091505
     5  C   -0.077507
     6  N   -0.307372
     7  C    0.004171
     8  C   -0.074371
     9  C   -0.126477
    10  C    0.080549
    11  C    0.020503
    12  C    0.008008
    13  C   -0.131199
    14  H    0.036924
    15  N   -0.514540
    16  C    0.149088
    17  C   -0.151854
    18  C   -0.055461
    19  C    0.177946
    20  C    0.087306
    21  C    0.034418
    22  O   -0.271002
    23  C    0.017118
    24  N   -0.324879
    25  C    0.043672
    26  C   -0.057462
    27  C   -0.088566
    28  C    0.105926
    29  C    0.017433
    30  C   -0.009883
    31  C   -0.055799
    32  N   -0.439761
    33  C    0.094713
    34  C   -0.179730
    35  C    0.011863
    36  C    0.117532
    37  C    0.048051
    38  C    0.071001
    39  O   -0.201945
    40  C   -0.081040
    41  C    0.257038
    42  O   -0.227882
    43  O   -0.352618
    44  C    0.138889
    45  H   -0.003843
    46  H   -0.037232
    47  H   -0.005200
    48  H    0.022114
    49  H    0.037570
    50  H    0.038111
    51  H    0.026462
    52  H    0.039084
    53  H    0.025036
    54  H    0.032719
    55  H    0.078066
    56  H    0.066413
    57  H    0.053652
    58  H    0.029919
    59  H    0.063952
    60  H    0.061113
    61  H    0.077280
    62  H    0.047612
    63  H    0.049748
    64  H    0.040778
    65  H    0.036130
    66  H    0.051927
    67  H    0.027131
    68  H    0.036482
    69  H    0.028000
    70  H    0.034964
    71  H    0.031364
    72  H    0.047281
    73  H    0.038325
    74  H    0.058156
    75  H    0.037793
    76  H    0.089601
    77  H    0.063413
    78  H    0.059061
    79  H    0.051016
    80  Mg   0.938982
    81  C   -0.014669
    82  C   -0.073827
    83  C   -0.062245
    84  C   -0.108208
    85  N   -0.378629
    86  C    0.014495
    87  C   -0.066615
    88  C   -0.052576
    89  C   -0.019137
    90  C    0.003408
    91  C    0.003788
    92  C   -0.135904
    93  H    0.038493
    94  N   -0.463652
    95  C    0.198432
    96  C   -0.182567
    97  C   -0.073583
    98  C    0.131185
    99  C    0.083047
   100  C    0.052735
   101  O   -0.248067
   102  C   -0.010009
   103  N   -0.296446
   104  C    0.020357
   105  C   -0.042644
   106  C   -0.112735
   107  C    0.095965
   108  C    0.041896
   109  C    0.013827
   110  C   -0.088574
   111  N   -0.408866
   112  C    0.114892
   113  C   -0.133377
   114  C    0.022693
   115  C    0.108353
   116  C    0.062403
   117  C    0.079783
   118  O   -0.226699
   119  C   -0.091663
   120  C    0.269328
   121  O   -0.244576
   122  O   -0.346865
   123  C    0.120676
   124  H   -0.007285
   125  H    0.014655
   126  H   -0.002441
   127  H    0.047166
   128  H    0.033969
   129  H    0.048085
   130  H    0.042040
   131  H    0.040868
   132  H    0.041784
   133  H    0.042568
   134  H    0.057992
   135  H    0.038119
   136  H    0.037964
   137  H    0.060550
   138  H    0.052918
   139  H    0.039059
   140  H    0.045920
   141  H    0.075444
   142  H    0.019747
   143  H    0.022998
   144  H    0.050111
   145  H    0.040552
   146  H    0.051589
   147  H    0.036062
   148  H    0.028679
   149  H    0.022197
   150  H    0.034929
   151  H    0.039561
   152  H    0.074323
   153  H    0.055795
   154  H    0.035973
   155  H    0.056682
   156  H    0.046833
   157  H    0.068336
   158  H    0.073655
 Sum of Mulliken charges =  -0.00000

 Dipole moment (field-independent basis, Debye):
    X=             -8.3680    Y=             -0.7764    Z=              0.3915  Tot=              8.4131
 Quadrupole moment (field-independent basis, Debye-Ang):
   XX=           -479.8516   YY=           -519.2836   ZZ=           -492.6715
   XY=            -27.1138   XZ=            -27.9696   YZ=             -4.8717

 Normal termination of Gaussian 16 at Sun Sep 19 18:10:36 2021.
