 Gaussian 16, Revision A.03,
 Gaussian 16:  ES64L-G16RevA.03 25-Dec-2016

 --------------------------------
 #p wB97XD/Def2SVP td=(nstates=5)
 --------------------------------

 --------------------------------
 TDDFT excited states in gaussian
 --------------------------------
 Symbolic Z-matrix:
 Charge =  0 Multiplicity = 1

                         Standard orientation:
 ---------------------------------------------------------------------
 Center     Atomic      Atomic             Coordinates (Angstroms)
 Number     Number       Type             X           Y           Z
 ---------------------------------------------------------------------
      1         12           0       -4.660657   -0.598414    1.118771
      2          6           0       -5.448110    2.415986   -0.543617
      3          6           0       -2.961554    1.168733    3.499611
      4          6           0       -3.424716   -3.458192    2.197757
      5          6           0       -6.025381   -2.335638   -1.657096
      6          7           0       -4.366090    1.574853    1.475226
      7          6           0       -4.777449    2.554595    0.694803
      8          6           0       -4.667511    3.856495    1.467698
      9          6           0       -3.520249    3.560924    2.508947
     10          6           0       -3.589238    1.988221    2.513936
     11          6           0       -2.161310    4.229122    2.072432
     12          6           0       -5.970621    4.206068    2.231352
     13          6           0       -6.144616    5.735829    2.635656
     14          1           0       -5.073800    6.783833    2.320698
     15          7           0       -3.562503   -1.085519    2.727953
     16          6           0       -2.974972   -0.224770    3.690269
     17          6           0       -2.335829   -1.062567    4.731760
     18          6           0       -2.405727   -2.433523    4.293102
     19          6           0       -3.153754   -2.422694    3.017197
     20          6           0       -1.743249   -0.519228    5.983856
     21          6           0       -1.895329   -3.788430    4.921308
     22          8           0       -2.127577   -4.906825    4.442478
     23          6           0       -0.957197   -3.720347    6.091355
     24          7           0       -4.618196   -2.630569    0.308086
     25          6           0       -4.094866   -3.629533    0.967898
     26          6           0       -4.267555   -4.980009    0.331105
     27          6           0       -5.113654   -4.634313   -0.944402
     28          6           0       -5.361707   -3.107737   -0.727170
     29          6           0       -2.928458   -5.702040    0.155041
     30          6           0       -6.428623   -5.394594   -1.062617
     31          6           0       -6.832225   -5.886442   -2.498723
     32          7           0       -5.652149   -0.134952   -0.754944
     33          6           0       -6.187124   -0.968712   -1.756444
     34          6           0       -6.905015   -0.163929   -2.684080
     35          6           0       -6.516887    1.179759   -2.379683
     36          6           0       -5.816847    1.146417   -1.200316
     37          6           0       -7.881239   -0.666566   -3.708670
     38          6           0       -6.659047    2.630738   -2.649670
     39          8           0       -7.238715    3.203857   -3.548546
     40          6           0       -5.743077    3.416198   -1.595233
     41          6           0       -6.321225    4.759409   -1.290891
     42          8           0       -7.387634    4.983621   -0.798785
     43          8           0       -5.484464    5.792949   -1.751842
     44          6           0       -6.149656    7.044416   -2.172315
     45          1           0       -2.246699    1.641927    4.176648
     46          1           0       -3.187710   -4.466414    2.542078
     47          1           0       -6.502047   -2.905217   -2.457703
     48          1           0       -4.542839    4.596519    0.677247
     49          1           0       -3.772824    3.936003    3.501295
     50          1           0       -2.284809    4.750359    1.123727
     51          1           0       -1.528048    3.375786    1.829649
     52          1           0       -1.762333    4.956875    2.779150
     53          1           0       -5.912796    3.609883    3.142939
     54          1           0       -6.802476    3.859200    1.618431
     55          1           0       -6.319574    5.712558    3.712349
     56          1           0       -7.090691    6.033664    2.182964
     57          1           0       -1.920575    0.522901    6.247155
     58          1           0       -0.654889   -0.572047    5.983448
     59          1           0       -2.196707   -1.127327    6.766999
     60          1           0       -1.456302   -3.666248    7.058744
     61          1           0       -0.407111   -2.818450    5.820057
     62          1           0       -0.309326   -4.592239    6.005245
     63          1           0       -4.880305   -5.495766    1.070338
     64          1           0       -4.582661   -4.788897   -1.882879
     65          1           0       -2.070828   -5.032108    0.086400
     66          1           0       -3.005576   -6.212184   -0.804307
     67          1           0       -2.726302   -6.415285    0.954416
     68          1           0       -7.264103   -4.791798   -0.707056
     69          1           0       -6.358996   -6.157327   -0.287204
     70          1           0       -6.162761   -5.486976   -3.260336
     71          1           0       -7.826722   -5.469445   -2.656056
     72          1           0       -6.911024   -6.957978   -2.685225
     73          1           0       -7.360853   -1.481623   -4.211874
     74          1           0       -8.172994    0.069724   -4.457797
     75          1           0       -8.750051   -1.099854   -3.212141
     76          1           0       -4.816843    3.704408   -2.091322
     77          1           0       -5.828395    7.835429   -1.494517
     78          1           0       -7.236323    6.953018   -2.183069
     79          1           0       -5.783844    7.235392   -3.181149
     80         12           0        4.331486   -0.540202   -1.290163
     81          6           0        6.794069    1.771525   -0.255039
     82          6           0        2.007033    1.785927   -1.044221
     83          6           0        2.005581   -3.040080   -1.406811
     84          6           0        6.810312   -3.165562   -0.491350
     85          7           0        4.434550    1.537972   -0.649107
     86          6           0        5.532781    2.309742   -0.516648
     87          6           0        5.112306    3.792522   -0.528313
     88          6           0        3.641564    3.793984   -0.797121
     89          6           0        3.290377    2.275326   -0.798864
     90          6           0        2.838199    4.757136    0.169431
     91          6           0        5.913216    4.788628   -1.432015
     92          6           0        5.221636    6.011427   -2.173964
     93          1           0        5.917606    7.379830   -2.135029
     94          7           0        2.290732   -0.565139   -1.479255
     95          6           0        1.489868    0.547158   -1.350917
     96          6           0        0.135258    0.138377   -1.591799
     97          6           0        0.058883   -1.306774   -1.670459
     98          6           0        1.471209   -1.697148   -1.465370
     99          6           0       -0.917887    1.170499   -1.554978
    100          6           0       -1.139229   -2.242581   -1.965809
    101          8           0       -0.996924   -3.420594   -1.942662
    102          6           0       -2.409976   -1.689593   -2.523984
    103          7           0        4.426737   -2.793161   -0.927115
    104          6           0        3.313021   -3.513820   -1.188079
    105          6           0        3.568382   -5.050806   -1.074301
    106          6           0        5.105706   -5.116101   -0.821559
    107          6           0        5.508456   -3.624142   -0.718336
    108          6           0        2.784174   -5.764380   -0.005347
    109          6           0        5.997485   -5.864407   -1.873111
    110          6           0        6.334754   -5.184938   -3.157109
    111          7           0        6.376221   -0.789051   -0.552478
    112          6           0        7.193977   -1.864725   -0.355801
    113          6           0        8.521588   -1.402172   -0.032452
    114          6           0        8.452884    0.014502    0.030908
    115          6           0        7.108114    0.330990   -0.249535
    116          6           0        9.700854   -2.219288    0.362296
    117          6           0        9.172078    1.225831    0.304486
    118          8           0       10.342076    1.466670    0.579023
    119          6           0        8.145389    2.425730    0.084228
    120          6           0        8.132204    3.414957    1.237386
    121          8           0        7.766175    3.142452    2.351525
    122          8           0        8.557011    4.652587    0.781013
    123          6           0        8.612479    5.668368    1.832902
    124          1           0        1.211450    2.520743   -1.186776
    125          1           0        1.208782   -3.780112   -1.503670
    126          1           0        7.573628   -3.934847   -0.357885
    127          1           0        5.382088    4.037065    0.499081
    128          1           0        3.490386    4.239621   -1.780692
    129          1           0        3.540896    5.343664    0.761070
    130          1           0        2.112626    4.149511    0.710132
    131          1           0        2.320186    5.536318   -0.390018
    132          1           0        6.377109    4.189855   -2.216221
    133          1           0        6.758554    5.227928   -0.901724
    134          1           0        4.236650    6.082349   -1.712150
    135          1           0        5.063744    5.746907   -3.219595
    136          1           0       -1.783603    0.686935   -1.102988
    137          1           0       -1.170832    1.403680   -2.588586
    138          1           0       -0.771884    2.127427   -1.053631
    139          1           0       -2.991199   -1.496051   -1.623364
    140          1           0       -2.814060   -2.393110   -3.252554
    141          1           0       -2.320514   -0.711502   -2.997188
    142          1           0        3.438462   -5.555850   -2.031670
    143          1           0        5.479511   -5.481565    0.134382
    144          1           0        2.000059   -5.127642    0.406379
    145          1           0        3.406120   -6.044047    0.845400
    146          1           0        2.350472   -6.635700   -0.495439
    147          1           0        5.531188   -6.813146   -2.138966
    148          1           0        6.886172   -6.223504   -1.353594
    149          1           0        5.592925   -4.415522   -3.371963
    150          1           0        6.350572   -5.734527   -4.098544
    151          1           0        7.353848   -4.821554   -3.021062
    152          1           0        9.556330   -2.832811    1.251099
    153          1           0       10.413853   -1.508592    0.780947
    154          1           0       10.091579   -2.798380   -0.474874
    155          1           0        8.463907    2.919235   -0.834198
    156          1           0        7.782647    6.199749    1.367977
    157          1           0        9.582526    6.138698    1.673715
    158          1           0        8.437337    5.264711    2.830375
 ---------------------------------------------------------------------

 SCF Done:  E(RwB97XD) =  -4070.59940649     A.U. after   19 cycles

 Excitation energies and oscillator strengths:

 Excited State   1:      Singlet-A      1.6359 eV  757.90 nm  f=0.3860  <S**2>=0.000
     310 -> 316       -0.19047
     312 -> 314        0.68100
     310 <- 316       -0.11924
 This state for optimization and/or second-order correction.
 Total Energy, E(TD-HF/TD-DFT) =  -4070.53928827
 Copying the excited state density for this state as the 1-particle RhoCI density.

 Excited State   2:      Singlet-A      1.7747 eV  698.62 nm  f=0.3679  <S**2>=0.000
     309 -> 315        0.18704
     311 -> 313        0.67843
     309 <- 315        0.10881

 Excited State   3:      Singlet-A      2.1232 eV  583.95 nm  f=0.0022  <S**2>=0.000
     309 -> 313        0.46501
     310 -> 314       -0.44532
     311 -> 315       -0.19216
     312 -> 316       -0.19307

 Excited State   4:      Singlet-A      2.1424 eV  578.72 nm  f=0.1669  <S**2>=0.000
     309 -> 313        0.43957
     310 -> 314        0.45951
     311 -> 315       -0.19695
     312 -> 316        0.21036

 Excited State   5:      Singlet-A      2.7621 eV  448.87 nm  f=0.0000  <S**2>=0.000
     312 -> 313        0.70507

 The electronic state is 1-A.
 Alpha  occ. eigenvalues --  -46.96365 -46.95224 -19.30066 -19.28835 -19.25494
 Alpha  occ. eigenvalues --  -19.25047 -19.24790 -19.24688 -19.23715 -19.23637
 Alpha  occ. eigenvalues --  -14.46871 -14.46847 -14.46581 -14.46414 -14.44725
 Alpha  occ. eigenvalues --  -14.44132 -14.43428 -14.42986 -10.43051 -10.42714
 Alpha  occ. eigenvalues --  -10.40925 -10.39642 -10.39089 -10.38853 -10.36711
 Alpha  occ. eigenvalues --  -10.36040 -10.35732 -10.35207 -10.35169 -10.35113
 Alpha  occ. eigenvalues --  -10.35085 -10.35008 -10.34924 -10.34883 -10.34811
 Alpha  occ. eigenvalues --  -10.34395 -10.34377 -10.33834 -10.33634 -10.33624
 Alpha  occ. eigenvalues --  -10.33511 -10.33047 -10.32826 -10.32650 -10.32569
 Alpha  occ. eigenvalues --  -10.32454 -10.32363 -10.32286 -10.32267 -10.32144
 Alpha  occ. eigenvalues --  -10.32133 -10.32053 -10.32040 -10.32002 -10.31929
 Alpha  occ. eigenvalues --  -10.31920 -10.31745 -10.31676 -10.31636 -10.31532
 Alpha  occ. eigenvalues --  -10.31521 -10.31464 -10.31396 -10.31110 -10.30807
 Alpha  occ. eigenvalues --  -10.30790 -10.30781 -10.30721 -10.30500 -10.30492
 Alpha  occ. eigenvalues --  -10.30323 -10.30283 -10.30234 -10.30220 -10.30107
 Alpha  occ. eigenvalues --  -10.30079 -10.29838 -10.29721 -10.29655 -10.29649
 Alpha  occ. eigenvalues --  -10.29307 -10.29160 -10.29056 -10.28936 -10.28818
 Alpha  occ. eigenvalues --  -10.28677  -3.22159  -3.21155  -1.95712  -1.95282
 Alpha  occ. eigenvalues --   -1.95108  -1.94763  -1.94272  -1.94114  -1.18543
 Alpha  occ. eigenvalues --   -1.17657  -1.15174  -1.12839  -1.12023  -1.11483
 Alpha  occ. eigenvalues --   -1.10829  -1.09523  -1.07308  -1.06865  -1.06260
 Alpha  occ. eigenvalues --   -1.05173  -1.04541  -1.04003  -1.03904  -1.03344
 Alpha  occ. eigenvalues --   -0.94070  -0.93612  -0.91249  -0.91206  -0.90808
 Alpha  occ. eigenvalues --   -0.90781  -0.90205  -0.89954  -0.89767  -0.89421
 Alpha  occ. eigenvalues --   -0.89328  -0.89060  -0.88052  -0.87602  -0.86097
 Alpha  occ. eigenvalues --   -0.85917  -0.85705  -0.85610  -0.84857  -0.84203
 Alpha  occ. eigenvalues --   -0.83857  -0.83822  -0.82852  -0.82816  -0.82377
 Alpha  occ. eigenvalues --   -0.82088  -0.80805  -0.80183  -0.79092  -0.79054
 Alpha  occ. eigenvalues --   -0.79042  -0.78585  -0.77845  -0.77580  -0.77144
 Alpha  occ. eigenvalues --   -0.76635  -0.74673  -0.74333  -0.73911  -0.73480
 Alpha  occ. eigenvalues --   -0.71760  -0.71700  -0.71233  -0.70861  -0.70232
 Alpha  occ. eigenvalues --   -0.69480  -0.68878  -0.68844  -0.67938  -0.67417
 Alpha  occ. eigenvalues --   -0.66959  -0.66822  -0.66283  -0.66134  -0.66042
 Alpha  occ. eigenvalues --   -0.65709  -0.63758  -0.63307  -0.62385  -0.61957
 Alpha  occ. eigenvalues --   -0.61550  -0.61341  -0.60825  -0.60810  -0.60362
 Alpha  occ. eigenvalues --   -0.60183  -0.60025  -0.59812  -0.59373  -0.59029
 Alpha  occ. eigenvalues --   -0.58678  -0.58088  -0.57835  -0.57685  -0.57331
 Alpha  occ. eigenvalues --   -0.57261  -0.57052  -0.56575  -0.56326  -0.56048
 Alpha  occ. eigenvalues --   -0.55726  -0.55557  -0.55322  -0.55299  -0.55087
 Alpha  occ. eigenvalues --   -0.54940  -0.54739  -0.54402  -0.54331  -0.54192
 Alpha  occ. eigenvalues --   -0.53725  -0.53690  -0.53487  -0.53267  -0.53155
 Alpha  occ. eigenvalues --   -0.52915  -0.52832  -0.52738  -0.52558  -0.52532
 Alpha  occ. eigenvalues --   -0.52389  -0.52194  -0.51993  -0.51931  -0.51497
 Alpha  occ. eigenvalues --   -0.51407  -0.51147  -0.51119  -0.50949  -0.50747
 Alpha  occ. eigenvalues --   -0.50704  -0.50568  -0.50395  -0.50242  -0.50170
 Alpha  occ. eigenvalues --   -0.49952  -0.49628  -0.49550  -0.49384  -0.49184
 Alpha  occ. eigenvalues --   -0.49179  -0.49102  -0.48746  -0.48672  -0.48367
 Alpha  occ. eigenvalues --   -0.48279  -0.48007  -0.47819  -0.47665  -0.47540
 Alpha  occ. eigenvalues --   -0.47431  -0.47355  -0.47137  -0.46991  -0.46608
 Alpha  occ. eigenvalues --   -0.46474  -0.46299  -0.46216  -0.46074  -0.46049
 Alpha  occ. eigenvalues --   -0.45687  -0.45635  -0.45554  -0.45520  -0.45261
 Alpha  occ. eigenvalues --   -0.45221  -0.45001  -0.44968  -0.44782  -0.44614
 Alpha  occ. eigenvalues --   -0.44519  -0.44416  -0.44357  -0.44039  -0.44000
 Alpha  occ. eigenvalues --   -0.43912  -0.43820  -0.43596  -0.43454  -0.43360
 Alpha  occ. eigenvalues --   -0.43239  -0.42987  -0.42847  -0.42516  -0.42165
 Alpha  occ. eigenvalues --   -0.42075  -0.41789  -0.41142  -0.41087  -0.40994
 Alpha  occ. eigenvalues --   -0.40898  -0.40086  -0.39992  -0.39879  -0.39831
 Alpha  occ. eigenvalues --   -0.39356  -0.39041  -0.38655  -0.38001  -0.37881
 Alpha  occ. eigenvalues --   -0.37714  -0.37676  -0.36679  -0.36534  -0.36062
 Alpha  occ. eigenvalues --   -0.35600  -0.35505  -0.35408  -0.33996  -0.33727
 Alpha  occ. eigenvalues --   -0.33615  -0.33063  -0.32800  -0.32669  -0.32323
 Alpha  occ. eigenvalues --   -0.32003  -0.31536  -0.30752  -0.25993  -0.25781
 Alpha  occ. eigenvalues --   -0.23423  -0.22879
 Alpha virt. eigenvalues --   -0.07046  -0.07022  -0.00344   0.00250   0.01707
 Alpha virt. eigenvalues --    0.02431   0.04234   0.04551   0.04633   0.05804
 Alpha virt. eigenvalues --    0.06635   0.06981   0.07662   0.07720   0.08116

 Mulliken charges:
               1
     1  Mg   0.930007
     2  C    0.048207
     3  C   -0.093396
     4  C   -0.061092
     5  C   -0.087014
     6  N   -0.316078
     7  C   -0.005536
     8  C   -0.119306
     9  C   -0.102469
    10  C    0.088038
    11  C    0.031147
    12  C   -0.006768
    13  C   -0.095014
    14  H    0.040904
    15  N   -0.555517
    16  C    0.177892
    17  C   -0.149489
    18  C   -0.080194
    19  C    0.210071
    20  C    0.034297
    21  C    0.083410
    22  O   -0.235561
    23  C   -0.014001
    24  N   -0.314867
    25  C   -0.025253
    26  C   -0.050595
    27  C   -0.095456
    28  C    0.052318
    29  C    0.032031
    30  C   -0.003385
    31  C   -0.056453
    32  N   -0.439312
    33  C    0.129401
    34  C   -0.193230
    35  C   -0.037368
    36  C    0.071727
    37  C    0.081376
    38  C    0.135160
    39  O   -0.202481
    40  C   -0.094462
    41  C    0.221364
    42  O   -0.207141
    43  O   -0.411395
    44  C    0.136459
    45  H    0.003217
    46  H    0.015661
    47  H   -0.022025
    48  H    0.030695
    49  H    0.037844
    50  H    0.035433
    51  H    0.033947
    52  H    0.050684
    53  H    0.024554
    54  H    0.055294
    55  H    0.042745
    56  H    0.065867
    57  H    0.043206
    58  H    0.068820
    59  H    0.061265
    60  H    0.080074
    61  H    0.043594
    62  H    0.066371
    63  H    0.040494
    64  H    0.043415
    65  H    0.059008
    66  H    0.034292
    67  H    0.049373
    68  H    0.029274
    69  H    0.022881
    70  H    0.035449
    71  H    0.037310
    72  H    0.045949
    73  H    0.035357
    74  H    0.058101
    75  H    0.051849
    76  H    0.075931
    77  H    0.052279
    78  H    0.070168
    79  H    0.055416
    80  Mg   0.947236
    81  C   -0.025534
    82  C   -0.066552
    83  C   -0.064774
    84  C   -0.102760
    85  N   -0.370701
    86  C   -0.016516
    87  C   -0.028253
    88  C   -0.134313
    89  C    0.097936
    90  C    0.020147
    91  C   -0.030248
    92  C   -0.123635
    93  H    0.053512
    94  N   -0.508735
    95  C    0.144290
    96  C   -0.141684
    97  C   -0.081752
    98  C    0.114467
    99  C    0.027682
   100  C    0.056926
   101  O   -0.207009
   102  C   -0.009502
   103  N   -0.306660
   104  C    0.066069
   105  C   -0.068921
   106  C   -0.047820
   107  C    0.006693
   108  C    0.036301
   109  C   -0.047403
   110  C   -0.031046
   111  N   -0.393211
   112  C    0.165854
   113  C   -0.185516
   114  C   -0.031382
   115  C    0.105171
   116  C    0.062100
   117  C    0.130448
   118  O   -0.210599
   119  C   -0.060448
   120  C    0.252737
   121  O   -0.229633
   122  O   -0.379138
   123  C    0.117921
   124  H   -0.015893
   125  H    0.024827
   126  H   -0.005554
   127  H    0.047828
   128  H    0.043372
   129  H    0.041947
   130  H    0.049033
   131  H    0.033169
   132  H    0.030522
   133  H    0.046149
   134  H    0.034821
   135  H    0.056497
   136  H    0.051781
   137  H    0.058039
   138  H    0.057803
   139  H    0.077859
   140  H    0.068785
   141  H    0.040244
   142  H    0.039782
   143  H    0.034653
   144  H    0.044222
   145  H    0.034640
   146  H    0.040808
   147  H    0.023433
   148  H    0.022312
   149  H    0.035923
   150  H    0.033389
   151  H    0.037314
   152  H    0.044682
   153  H    0.051099
   154  H    0.052636
   155  H    0.071128
   156  H    0.051579
   157  H    0.068996
   158  H    0.085655
 Sum of Mulliken charges =  -0.00000

 Dipole moment (field-independent basis, Debye):
    X=             -0.5528    Y=             -1.1122    Z=              1.4101  Tot=              1.8791
 Quadrupole moment (field-independent basis, Debye-Ang):
   XX=           -598.4087   YY=           -469.3852   ZZ=           -488.9304
   XY=             13.0201   XZ=            -31.9878   YZ=             14.2628

 Normal termination of Gaussian 16 at Sat Sep 18 23:29:10 2021.
