 Gaussian 16, Revision A.03,
 Gaussian 16:  ES64L-G16RevA.03 25-Dec-2016

 --------------------------------
 #p wB97XD/Def2SVP td=(nstates=5)
 --------------------------------

 --------------------------------
 TDDFT excited states in gaussian
 --------------------------------
 Symbolic Z-matrix:
 Charge =  0 Multiplicity = 1

                         Standard orientation:
 ---------------------------------------------------------------------
 Center     Atomic      Atomic             Coordinates (Angstroms)
 Number     Number       Type             X           Y           Z
 ---------------------------------------------------------------------
      1         12           0        4.898852    0.733732    0.130055
      2          6           0        3.050264   -2.210860    0.994303
      3          6           0        7.650861   -1.415397   -0.371205
      4          6           0        6.897730    3.321214    0.013494
      5          6           0        2.215098    2.623869    1.017364
      6          7           0        5.251063   -1.549747    0.252911
      7          6           0        4.295250   -2.472010    0.519647
      8          6           0        4.873624   -3.855561    0.272447
      9          6           0        6.345542   -3.683819   -0.197789
     10          6           0        6.434516   -2.146601   -0.140989
     11          6           0        7.426667   -4.479466    0.729657
     12          6           0        4.056680   -4.678522   -0.813447
     13          6           0        3.691951   -6.118020   -0.449082
     14          1           0        4.649882   -6.999082    0.449217
     15          7           0        7.016495    0.923625   -0.091874
     16          6           0        7.895690   -0.033124   -0.301667
     17          6           0        9.185423    0.587401   -0.415623
     18          6           0        9.040917    1.997176   -0.463300
     19          6           0        7.643957    2.130010   -0.142376
     20          6           0       10.449180   -0.194313   -0.770589
     21          6           0        9.963848    3.148788   -0.829871
     22          8           0        9.636323    4.317240   -0.732579
     23          6           0       11.307331    2.767319   -1.387971
     24          7           0        4.658654    2.648862    0.816688
     25          6           0        5.604924    3.608518    0.452368
     26          6           0        5.057925    5.060232    0.521809
     27          6           0        3.523931    4.741956    0.685881
     28          6           0        3.440515    3.224486    0.850359
     29          6           0        5.710565    5.836397    1.674886
     30          6           0        2.648295    5.130795   -0.597607
     31          6           0        1.775988    6.338975   -0.524211
     32          7           0        3.014670    0.336878    0.734785
     33          6           0        2.030066    1.231608    1.094446
     34          6           0        0.838237    0.577866    1.628691
     35          6           0        1.190500   -0.818777    1.606854
     36          6           0        2.538423   -0.892145    1.183060
     37          6           0       -0.452484    1.269546    1.880799
     38          6           0        0.697856   -2.173839    1.800884
     39          8           0       -0.447703   -2.513657    2.148796
     40          6           0        1.931274   -3.178119    1.430068
     41          6           0        2.210474   -3.895309    2.664099
     42          8           0        2.481555   -3.351440    3.712272
     43          8           0        2.141191   -5.220153    2.488153
     44          6           0        2.329660   -6.186806    3.615013
     45          1           0        8.515421   -2.037610   -0.611344
     46          1           0        7.358483    4.218196   -0.407091
     47          1           0        1.354427    3.267422    1.209716
     48          1           0        4.876528   -4.375136    1.230653
     49          1           0        6.516376   -4.133238   -1.176169
     50          1           0        6.949502   -5.301438    1.263388
     51          1           0        7.826318   -3.720204    1.402393
     52          1           0        8.238168   -4.855072    0.106584
     53          1           0        4.496878   -4.693607   -1.809553
     54          1           0        3.091393   -4.198268   -0.973238
     55          1           0        3.489261   -6.717872   -1.336574
     56          1           0        2.719820   -6.002394    0.030194
     57          1           0       10.704983   -0.172449   -1.830053
     58          1           0       10.425686   -1.204453   -0.360618
     59          1           0       11.259229    0.278293   -0.215564
     60          1           0       11.299240    1.932906   -2.089898
     61          1           0       12.055413    2.506097   -0.640786
     62          1           0       11.640867    3.551143   -2.068077
     63          1           0        5.300588    5.542233   -0.424841
     64          1           0        3.160130    5.294131    1.552498
     65          1           0        6.561906    5.333517    2.133405
     66          1           0        5.011228    6.003973    2.493246
     67          1           0        6.032167    6.813185    1.312077
     68          1           0        1.955293    4.357907   -0.929965
     69          1           0        3.251355    5.241074   -1.498108
     70          1           0        2.108361    7.087401   -1.242442
     71          1           0        1.919512    6.680747    0.500991
     72          1           0        0.742487    6.078143   -0.751921
     73          1           0       -1.299924    0.620291    1.663405
     74          1           0       -0.409304    2.205785    1.324605
     75          1           0       -0.472165    1.511378    2.944331
     76          1           0        1.651787   -3.893198    0.657515
     77          1           0        1.693563   -5.895297    4.450985
     78          1           0        3.358537   -6.216730    3.974487
     79          1           0        2.194305   -7.228662    3.325955
     80         12           0       -5.131047    0.577226   -0.229272
     81          6           0       -2.744864   -1.860458   -1.172863
     82          6           0       -7.411344   -1.896486    0.035792
     83          6           0       -7.328073    2.891150    0.503625
     84          6           0       -2.770326    3.060567   -1.291278
     85          7           0       -5.134673   -1.667745   -0.634229
     86          6           0       -3.973776   -2.413050   -0.755112
     87          6           0       -4.349449   -3.837386   -0.527188
     88          6           0       -5.867158   -3.874218   -0.708904
     89          6           0       -6.215054   -2.396968   -0.397776
     90          6           0       -6.247495   -4.232624   -2.194364
     91          6           0       -3.901201   -4.493877    0.887266
     92          6           0       -3.321647   -5.940694    0.939181
     93          1           0       -4.126844   -7.045033    0.195170
     94          7           0       -7.131254    0.467337    0.199851
     95          6           0       -7.846134   -0.616638    0.270718
     96          6           0       -9.234638   -0.234191    0.580687
     97          6           0       -9.222152    1.147078    0.942193
     98          6           0       -7.857376    1.579511    0.527418
     99          6           0      -10.523719   -1.133990    0.586871
    100          6           0      -10.288956    2.043926    1.569453
    101          8           0      -10.169973    3.274877    1.720321
    102          6           0      -11.604740    1.477712    1.823568
    103          7           0       -5.076777    2.732706   -0.555756
    104          6           0       -6.126126    3.484667   -0.034027
    105          6           0       -5.712921    5.007003   -0.035457
    106          6           0       -4.228398    4.971990   -0.476522
    107          6           0       -3.977603    3.489314   -0.760558
    108          6           0       -6.666053    5.884199   -0.847640
    109          6           0       -3.215271    5.654389    0.476750
    110          6           0       -2.062355    6.466148   -0.158536
    111          7           0       -3.176611    0.648718   -1.073900
    112          6           0       -2.372770    1.703064   -1.495670
    113          6           0       -1.076156    1.179850   -1.843520
    114          6           0       -1.198787   -0.209252   -1.786066
    115          6           0       -2.497368   -0.520382   -1.296668
    116          6           0        0.077891    1.915489   -2.155427
    117          6           0       -0.493021   -1.490302   -1.937072
    118          8           0        0.654978   -1.773932   -2.240442
    119          6           0       -1.485605   -2.621397   -1.511887
    120          6           0       -1.602516   -3.582027   -2.681829
    121          8           0       -2.271867   -3.587954   -3.690065
    122          8           0       -0.788979   -4.603557   -2.284597
    123          6           0       -0.899201   -5.893675   -3.006355
    124          1           0       -8.136922   -2.693949    0.211321
    125          1           0       -8.022099    3.606277    0.949995
    126          1           0       -1.971704    3.796318   -1.402662
    127          1           0       -3.929316   -4.560599   -1.226597
    128          1           0       -6.369939   -4.453053    0.065479
    129          1           0       -7.175057   -4.796188   -2.289171
    130          1           0       -5.538284   -4.911786   -2.668137
    131          1           0       -6.388077   -3.270542   -2.685858
    132          1           0       -4.707226   -4.374073    1.610444
    133          1           0       -3.134827   -3.871120    1.350219
    134          1           0       -3.412226   -6.184120    1.998405
    135          1           0       -2.313310   -5.785646    0.555285
    136          1           0      -10.957724   -1.321428    1.568754
    137          1           0      -10.247117   -2.084574    0.129957
    138          1           0      -11.392705   -0.704187    0.088570
    139          1           0      -11.530607    0.579440    2.437089
    140          1           0      -12.111260    1.239728    0.888121
    141          1           0      -12.124778    2.174559    2.480157
    142          1           0       -5.679406    5.307304    1.011931
    143          1           0       -4.118948    5.372318   -1.484234
    144          1           0       -6.320341    5.923186   -1.881154
    145          1           0       -6.689340    6.930351   -0.544149
    146          1           0       -7.615953    5.362973   -0.961771
    147          1           0       -2.792874    4.986797    1.227591
    148          1           0       -3.720760    6.349098    1.148886
    149          1           0       -1.218805    5.775709   -0.152925
    150          1           0       -1.854156    7.258696    0.560945
    151          1           0       -2.337872    6.788855   -1.162179
    152          1           0        0.874475    1.458333   -2.741988
    153          1           0        0.464505    2.303212   -1.212404
    154          1           0       -0.268158    2.739660   -2.778151
    155          1           0       -1.114818   -3.127530   -0.620759
    156          1           0       -0.883733   -6.648596   -2.220778
    157          1           0       -0.091861   -6.128732   -3.699468
    158          1           0       -1.856363   -5.949528   -3.524170
 ---------------------------------------------------------------------

 SCF Done:  E(RwB97XD) =  -4070.62164046     A.U. after   20 cycles

 Excitation energies and oscillator strengths:

 Excited State   1:      Singlet-A      1.5811 eV  784.16 nm  f=0.8532  <S**2>=0.000
     310 -> 316       -0.12869
     311 -> 313        0.59869
     312 -> 314        0.33146
 This state for optimization and/or second-order correction.
 Total Energy, E(TD-HF/TD-DFT) =  -4070.56353594
 Copying the excited state density for this state as the 1-particle RhoCI density.

 Excited State   2:      Singlet-A      1.6796 eV  738.20 nm  f=0.0786  <S**2>=0.000
     309 -> 315        0.15606
     311 -> 313       -0.30202
     311 -> 314       -0.13309
     312 -> 313       -0.14791
     312 -> 314        0.57459

 Excited State   3:      Singlet-A      2.1192 eV  585.05 nm  f=0.0789  <S**2>=0.000
     309 -> 313       -0.27516
     309 -> 314       -0.13181
     310 -> 313        0.57516
     311 -> 316        0.24772

 Excited State   4:      Singlet-A      2.2017 eV  563.12 nm  f=0.0830  <S**2>=0.000
     309 -> 313       -0.13270
     309 -> 314        0.52810
     310 -> 314        0.29674
     312 -> 315       -0.31035

 Excited State   5:      Singlet-A      2.6300 eV  471.42 nm  f=0.0003  <S**2>=0.000
     311 -> 313       -0.11438
     312 -> 313        0.68101
     312 -> 314        0.10695

 The electronic state is 1-A.
 Alpha  occ. eigenvalues --  -46.95411 -46.94710 -19.30463 -19.29611 -19.24851
 Alpha  occ. eigenvalues --  -19.24447 -19.24418 -19.24079 -19.23730 -19.23428
 Alpha  occ. eigenvalues --  -14.46239 -14.46127 -14.46107 -14.45677 -14.44153
 Alpha  occ. eigenvalues --  -14.43743 -14.43460 -14.43324 -10.42939 -10.42263
 Alpha  occ. eigenvalues --  -10.39743 -10.39617 -10.39272 -10.38721 -10.36338
 Alpha  occ. eigenvalues --  -10.35561 -10.35253 -10.35156 -10.34658 -10.34572
 Alpha  occ. eigenvalues --  -10.34456 -10.34359 -10.34160 -10.33955 -10.33715
 Alpha  occ. eigenvalues --  -10.33705 -10.33536 -10.33427 -10.33402 -10.33358
 Alpha  occ. eigenvalues --  -10.33000 -10.32947 -10.32860 -10.32454 -10.32369
 Alpha  occ. eigenvalues --  -10.32192 -10.32035 -10.31945 -10.31927 -10.31923
 Alpha  occ. eigenvalues --  -10.31803 -10.31747 -10.31599 -10.31578 -10.31537
 Alpha  occ. eigenvalues --  -10.31407 -10.31281 -10.31279 -10.31240 -10.31161
 Alpha  occ. eigenvalues --  -10.31056 -10.30973 -10.30968 -10.30511 -10.30511
 Alpha  occ. eigenvalues --  -10.30467 -10.30404 -10.30357 -10.30279 -10.30211
 Alpha  occ. eigenvalues --  -10.30121 -10.30067 -10.29938 -10.29918 -10.29815
 Alpha  occ. eigenvalues --  -10.29799 -10.29719 -10.29716 -10.29491 -10.29436
 Alpha  occ. eigenvalues --  -10.29363 -10.29245 -10.29220 -10.29021 -10.28801
 Alpha  occ. eigenvalues --  -10.28631  -3.21263  -3.20771  -1.94846  -1.94384
 Alpha  occ. eigenvalues --   -1.94325  -1.94222  -1.93903  -1.93750  -1.18717
 Alpha  occ. eigenvalues --   -1.18219  -1.12926  -1.11763  -1.11360  -1.10998
 Alpha  occ. eigenvalues --   -1.09887  -1.09565  -1.06902  -1.06509  -1.05595
 Alpha  occ. eigenvalues --   -1.05320  -1.04892  -1.04829  -1.03857  -1.03686
 Alpha  occ. eigenvalues --   -0.94423  -0.93936  -0.90639  -0.90417  -0.90063
 Alpha  occ. eigenvalues --   -0.90024  -0.89563  -0.89537  -0.89216  -0.88874
 Alpha  occ. eigenvalues --   -0.88800  -0.88787  -0.88561  -0.88201  -0.85972
 Alpha  occ. eigenvalues --   -0.85926  -0.85808  -0.85396  -0.84385  -0.84228
 Alpha  occ. eigenvalues --   -0.84082  -0.83574  -0.83189  -0.83022  -0.82502
 Alpha  occ. eigenvalues --   -0.82300  -0.80130  -0.80075  -0.79527  -0.79262
 Alpha  occ. eigenvalues --   -0.78639  -0.78596  -0.77983  -0.77599  -0.76763
 Alpha  occ. eigenvalues --   -0.76620  -0.74318  -0.74249  -0.73543  -0.73221
 Alpha  occ. eigenvalues --   -0.70781  -0.70593  -0.70500  -0.69666  -0.69485
 Alpha  occ. eigenvalues --   -0.69455  -0.68698  -0.68547  -0.67385  -0.67295
 Alpha  occ. eigenvalues --   -0.67054  -0.66813  -0.66490  -0.66456  -0.66265
 Alpha  occ. eigenvalues --   -0.66021  -0.64340  -0.63800  -0.62359  -0.62256
 Alpha  occ. eigenvalues --   -0.61225  -0.60993  -0.60918  -0.60677  -0.60267
 Alpha  occ. eigenvalues --   -0.60092  -0.59927  -0.59669  -0.59336  -0.59198
 Alpha  occ. eigenvalues --   -0.57992  -0.57918  -0.57632  -0.57572  -0.56974
 Alpha  occ. eigenvalues --   -0.56959  -0.56342  -0.56222  -0.55582  -0.55376
 Alpha  occ. eigenvalues --   -0.55249  -0.55048  -0.54975  -0.54808  -0.54743
 Alpha  occ. eigenvalues --   -0.54695  -0.54592  -0.54429  -0.54408  -0.54029
 Alpha  occ. eigenvalues --   -0.53810  -0.53688  -0.53518  -0.53409  -0.53097
 Alpha  occ. eigenvalues --   -0.53046  -0.52925  -0.52705  -0.52375  -0.52278
 Alpha  occ. eigenvalues --   -0.52112  -0.51917  -0.51812  -0.51662  -0.51332
 Alpha  occ. eigenvalues --   -0.51196  -0.51093  -0.50885  -0.50719  -0.50545
 Alpha  occ. eigenvalues --   -0.50350  -0.50258  -0.50108  -0.49983  -0.49721
 Alpha  occ. eigenvalues --   -0.49583  -0.49464  -0.49188  -0.49021  -0.48853
 Alpha  occ. eigenvalues --   -0.48628  -0.48587  -0.48400  -0.48218  -0.48054
 Alpha  occ. eigenvalues --   -0.47966  -0.47797  -0.47685  -0.47583  -0.47238
 Alpha  occ. eigenvalues --   -0.47149  -0.46894  -0.46759  -0.46605  -0.46448
 Alpha  occ. eigenvalues --   -0.46391  -0.46204  -0.45964  -0.45676  -0.45662
 Alpha  occ. eigenvalues --   -0.45556  -0.45357  -0.45332  -0.45154  -0.44855
 Alpha  occ. eigenvalues --   -0.44758  -0.44690  -0.44576  -0.44513  -0.44364
 Alpha  occ. eigenvalues --   -0.44306  -0.43985  -0.43773  -0.43691  -0.43681
 Alpha  occ. eigenvalues --   -0.43372  -0.43225  -0.43118  -0.42990  -0.42765
 Alpha  occ. eigenvalues --   -0.42740  -0.42626  -0.42277  -0.42071  -0.41997
 Alpha  occ. eigenvalues --   -0.41916  -0.41529  -0.41394  -0.41124  -0.40855
 Alpha  occ. eigenvalues --   -0.40600  -0.40019  -0.39647  -0.39267  -0.38980
 Alpha  occ. eigenvalues --   -0.38859  -0.38470  -0.38438  -0.38056  -0.37945
 Alpha  occ. eigenvalues --   -0.37692  -0.37536  -0.36489  -0.36219  -0.35668
 Alpha  occ. eigenvalues --   -0.35623  -0.35095  -0.35027  -0.33556  -0.33450
 Alpha  occ. eigenvalues --   -0.33296  -0.33061  -0.32914  -0.32470  -0.32344
 Alpha  occ. eigenvalues --   -0.32117  -0.31464  -0.31133  -0.25648  -0.25488
 Alpha  occ. eigenvalues --   -0.22572  -0.22492
 Alpha virt. eigenvalues --   -0.06952  -0.06369   0.00120   0.01002   0.02114
 Alpha virt. eigenvalues --    0.02332   0.04100   0.04555   0.05390   0.05516
 Alpha virt. eigenvalues --    0.07661   0.08001   0.08180   0.08215   0.08390

 Mulliken charges:
               1
     1  Mg   0.970656
     2  C   -0.032506
     3  C   -0.088886
     4  C   -0.060940
     5  C   -0.105857
     6  N   -0.318258
     7  C    0.015183
     8  C   -0.045122
     9  C   -0.104145
    10  C    0.052609
    11  C   -0.005508
    12  C   -0.015320
    13  C   -0.107661
    14  H    0.011130
    15  N   -0.388052
    16  C    0.164454
    17  C   -0.187966
    18  C   -0.059453
    19  C    0.116086
    20  C    0.051947
    21  C    0.080788
    22  O   -0.219691
    23  C   -0.036842
    24  N   -0.404068
    25  C    0.020364
    26  C   -0.074930
    27  C   -0.054806
    28  C    0.102377
    29  C    0.033112
    30  C   -0.047998
    31  C   -0.026976
    32  N   -0.480418
    33  C    0.157562
    34  C   -0.190857
    35  C   -0.013326
    36  C    0.166079
    37  C    0.100069
    38  C    0.119546
    39  O   -0.241213
    40  C   -0.057289
    41  C    0.255724
    42  O   -0.246223
    43  O   -0.356895
    44  C    0.146409
    45  H   -0.009158
    46  H    0.024104
    47  H   -0.005802
    48  H    0.041584
    49  H    0.047683
    50  H    0.047443
    51  H    0.044070
    52  H    0.037300
    53  H    0.031499
    54  H    0.049769
    55  H    0.041790
    56  H    0.050480
    57  H    0.066919
    58  H    0.038076
    59  H    0.030756
    60  H    0.036339
    61  H    0.074278
    62  H    0.049121
    63  H    0.043635
    64  H    0.034129
    65  H    0.053091
    66  H    0.025447
    67  H    0.041445
    68  H    0.019720
    69  H    0.020980
    70  H    0.035151
    71  H    0.023968
    72  H    0.030298
    73  H    0.071066
    74  H    0.031493
    75  H    0.050607
    76  H    0.060842
    77  H    0.068346
    78  H    0.047828
    79  H    0.059740
    80  Mg   0.941072
    81  C   -0.035966
    82  C   -0.100332
    83  C   -0.068300
    84  C   -0.091333
    85  N   -0.321879
    86  C    0.058125
    87  C   -0.099081
    88  C   -0.079451
    89  C   -0.004513
    90  C    0.042169
    91  C   -0.030017
    92  C   -0.110732
    93  H    0.018546
    94  N   -0.427976
    95  C    0.195274
    96  C   -0.167173
    97  C   -0.071353
    98  C    0.114113
    99  C    0.058836
   100  C    0.067133
   101  O   -0.251379
   102  C   -0.004399
   103  N   -0.356859
   104  C    0.033853
   105  C   -0.062041
   106  C   -0.054767
   107  C    0.067682
   108  C    0.048591
   109  C   -0.032028
   110  C   -0.053520
   111  N   -0.438893
   112  C    0.135931
   113  C   -0.206562
   114  C   -0.004897
   115  C    0.158583
   116  C    0.072470
   117  C    0.112401
   118  O   -0.206626
   119  C   -0.085305
   120  C    0.278774
   121  O   -0.226640
   122  O   -0.375339
   123  C    0.130403
   124  H   -0.012240
   125  H    0.025502
   126  H   -0.021182
   127  H    0.021921
   128  H    0.020291
   129  H    0.028127
   130  H    0.044851
   131  H    0.055983
   132  H    0.018753
   133  H    0.051222
   134  H    0.065616
   135  H    0.072572
   136  H    0.043713
   137  H    0.040942
   138  H    0.040815
   139  H    0.038018
   140  H    0.074775
   141  H    0.054184
   142  H    0.039314
   143  H    0.032782
   144  H    0.015338
   145  H    0.046046
   146  H    0.048301
   147  H    0.023650
   148  H    0.021694
   149  H    0.048656
   150  H    0.041477
   151  H    0.046411
   152  H    0.055652
   153  H    0.048212
   154  H    0.034095
   155  H    0.092677
   156  H    0.048818
   157  H    0.059709
   158  H    0.059787
 Sum of Mulliken charges =  -0.00000

 Dipole moment (field-independent basis, Debye):
    X=              0.6299    Y=             -2.9795    Z=             -0.4467  Tot=              3.0779
 Quadrupole moment (field-independent basis, Debye-Ang):
   XX=           -470.1185   YY=           -461.7796   ZZ=           -527.9477
   XY=             -3.2877   XZ=            -20.1072   YZ=             -7.4100

 Normal termination of Gaussian 16 at Sun Sep 19 06:26:38 2021.
