 Gaussian 16, Revision A.03,
 Gaussian 16:  ES64L-G16RevA.03 25-Dec-2016

 --------------------------------
 #p wB97XD/Def2SVP td=(nstates=5)
 --------------------------------

 --------------------------------
 TDDFT excited states in gaussian
 --------------------------------
 Symbolic Z-matrix:
 Charge =  0 Multiplicity = 1

                         Standard orientation:
 ---------------------------------------------------------------------
 Center     Atomic      Atomic             Coordinates (Angstroms)
 Number     Number       Type             X           Y           Z
 ---------------------------------------------------------------------
      1         12           0      -29.764479    0.575977    0.443918
      2          6           0      -28.410211   -2.350664   -0.763150
      3          6           0      -26.670394    2.008123    0.244203
      4          6           0      -31.286464    3.506707    0.359654
      5          6           0      -32.878720   -1.042318    0.544456
      6          7           0      -27.890020   -0.029478   -0.644606
      7          6           0      -27.505661   -1.319051   -0.827042
      8          6           0      -26.046189   -1.449759   -1.148404
      9          6           0      -25.496519   -0.184892   -0.412862
     10          6           0      -26.762394    0.627239   -0.182434
     11          6           0      -24.684076   -0.529544    0.868216
     12          6           0      -25.762440   -1.380915   -2.732288
     13          6           0      -24.563216   -2.300189   -3.255060
     14          1           0      -23.530061   -1.400551   -3.886947
     15          7           0      -29.045098    2.491757    0.518241
     16          6           0      -27.779279    2.930882    0.343800
     17          6           0      -27.729962    4.387111    0.377766
     18          6           0      -29.065749    4.833681    0.444658
     19          6           0      -29.867247    3.577724    0.437591
     20          6           0      -26.385211    5.146212    0.269676
     21          6           0      -29.451652    6.278848    0.294793
     22          8           0      -28.591825    7.114700    0.193343
     23          6           0      -30.901035    6.794039    0.208403
     24          7           0      -31.820638    1.206714    0.582316
     25          6           0      -32.155012    2.417809    0.509815
     26          6           0      -33.622584    2.622284    0.427803
     27          6           0      -34.175832    1.144981    0.501561
     28          6           0      -32.923753    0.381918    0.543717
     29          6           0      -34.130246    3.626021    1.517578
     30          6           0      -35.077873    0.777092   -0.765977
     31          6           0      -36.045620   -0.452259   -0.633766
     32          7           0      -30.534773   -1.303978    0.080882
     33          6           0      -31.799763   -1.830458    0.269374
     34          6           0      -31.790335   -3.253055    0.069155
     35          6           0      -30.426922   -3.525279   -0.301429
     36          6           0      -29.761195   -2.317170   -0.378158
     37          6           0      -32.930879   -4.207943    0.216455
     38          6           0      -29.522586   -4.573342   -0.627619
     39          8           0      -29.612915   -5.801748   -0.749735
     40          6           0      -28.232909   -3.842247   -1.127873
     41          6           0      -27.074527   -4.547638   -0.505171
     42          8           0      -26.431859   -5.461764   -1.040484
     43          8           0      -26.869749   -4.072433    0.760751
     44          6           0      -25.741878   -4.821632    1.382420
     45          1           0      -25.713565    2.524231    0.350606
     46          1           0      -31.760732    4.485778    0.271169
     47          1           0      -33.861552   -1.509598    0.446157
     48          1           0      -25.745657   -2.360882   -0.632612
     49          1           0      -24.784772    0.322737   -1.064093
     50          1           0      -23.649369   -0.215928    0.732963
     51          1           0      -24.660605   -1.616812    0.948652
     52          1           0      -25.202150   -0.079783    1.714642
     53          1           0      -25.650187   -0.384479   -3.159357
     54          1           0      -26.638664   -1.714730   -3.287143
     55          1           0      -25.013851   -2.894531   -4.050051
     56          1           0      -24.108880   -3.030507   -2.585399
     57          1           0      -26.313011    5.835384   -0.571628
     58          1           0      -25.508207    4.498048    0.260705
     59          1           0      -26.261487    5.696879    1.201582
     60          1           0      -31.474001    6.622131    1.119002
     61          1           0      -31.454180    6.405624   -0.647107
     62          1           0      -30.799920    7.843276   -0.070713
     63          1           0      -33.761653    3.019726   -0.577495
     64          1           0      -34.698515    0.831053    1.404765
     65          1           0      -34.611848    4.447833    0.988140
     66          1           0      -33.317967    3.987354    2.148504
     67          1           0      -34.984741    3.267124    2.091067
     68          1           0      -34.443936    0.583816   -1.631607
     69          1           0      -35.655557    1.676491   -0.974122
     70          1           0      -37.122874   -0.335878   -0.749217
     71          1           0      -35.975250   -0.887781    0.362026
     72          1           0      -35.765849   -1.229149   -1.345312
     73          1           0      -33.844908   -3.813479    0.659926
     74          1           0      -32.446683   -4.960425    0.837586
     75          1           0      -32.994495   -4.578794   -0.806623
     76          1           0      -28.123749   -3.816650   -2.212617
     77          1           0      -26.054958   -5.846468    1.579340
     78          1           0      -25.518517   -4.483844    2.394427
     79          1           0      -24.880418   -4.727136    0.720986
     80         12           0       30.161042    0.151132   -0.272599
     81          6           0       28.122247   -1.805378    1.785926
     82          6           0       29.812514    2.716950    2.008155
     83          6           0       31.532505    2.304197   -2.538534
     84          6           0       29.865643   -2.265737   -2.735213
     85          7           0       29.168968    0.334783    1.668763
     86          6           0       28.598094   -0.642599    2.384404
     87          6           0       28.334603   -0.290437    3.855779
     88          6           0       28.709462    1.240996    3.880261
     89          6           0       29.386592    1.479331    2.417450
     90          6           0       27.569284    2.243365    4.161234
     91          6           0       29.107253   -1.141848    4.863468
     92          6           0       28.409335   -1.248286    6.231554
     93          1           0       27.083744   -0.507766    6.458130
     94          7           0       30.718313    2.182655   -0.250941
     95          6           0       30.548208    3.079196    0.829174
     96          6           0       31.127866    4.354291    0.457483
     97          6           0       31.584699    4.275138   -0.910858
     98          6           0       31.326469    2.885719   -1.285660
     99          6           0       31.258579    5.467670    1.460067
    100          6           0       32.367079    5.339158   -1.804218
    101          8           0       32.819935    5.095538   -2.896309
    102          6           0       32.513827    6.726933   -1.218895
    103          7           0       30.540653    0.070497   -2.343265
    104          6           0       31.147114    1.057717   -3.063469
    105          6           0       31.412609    0.631363   -4.554250
    106          6           0       30.936736   -0.820334   -4.537160
    107          6           0       30.414646   -1.006213   -3.124898
    108          6           0       30.884808    1.497058   -5.768419
    109          6           0       32.092828   -1.792899   -4.868645
    110          6           0       33.068671   -2.203548   -3.743700
    111          7           0       29.334037   -1.763290   -0.469789
    112          6           0       29.288357   -2.634978   -1.526786
    113          6           0       28.598621   -3.832119   -1.179731
    114          6           0       28.087498   -3.557908    0.167772
    115          6           0       28.534098   -2.337694    0.497175
    116          6           0       28.359584   -5.069539   -1.925719
    117          6           0       27.215713   -4.030272    1.234470
    118          8           0       26.654276   -5.121788    1.376580
    119          6           0       27.188866   -2.938549    2.344438
    120          6           0       25.829020   -2.483642    2.615549
    121          8           0       25.179633   -1.700171    1.930924
    122          8           0       25.296549   -3.238247    3.630616
    123          6           0       23.833781   -3.278530    3.822354
    124          1           0       29.627589    3.475448    2.771931
    125          1           0       32.134061    2.922355   -3.208165
    126          1           0       29.853041   -3.069266   -3.474509
    127          1           0       27.269439   -0.299664    4.085844
    128          1           0       29.556811    1.468714    4.525993
    129          1           0       28.006104    2.806455    4.985797
    130          1           0       26.666985    1.721534    4.479166
    131          1           0       27.353882    2.836296    3.272255
    132          1           0       30.125345   -0.782323    5.007946
    133          1           0       29.226158   -2.157048    4.483930
    134          1           0       29.192605   -0.861406    6.883737
    135          1           0       28.301923   -2.284915    6.554058
    136          1           0       30.676945    5.148585    2.325006
    137          1           0       30.867949    6.386866    1.022984
    138          1           0       32.292744    5.666103    1.745514
    139          1           0       31.629227    7.364600   -1.223857
    140          1           0       33.348698    7.212037   -1.724616
    141          1           0       32.811790    6.504468   -0.194343
    142          1           0       32.498518    0.712941   -4.595838
    143          1           0       30.144875   -0.891175   -5.281966
    144          1           0       30.367573    0.929679   -6.541244
    145          1           0       31.747299    1.938219   -6.266996
    146          1           0       30.283138    2.308387   -5.357656
    147          1           0       32.636506   -1.322155   -5.686844
    148          1           0       31.599978   -2.674968   -5.278545
    149          1           0       34.049927   -2.187759   -4.217344
    150          1           0       32.908771   -3.219210   -3.382541
    151          1           0       33.004664   -1.589140   -2.846335
    152          1           0       28.498752   -5.901498   -1.236257
    153          1           0       28.988988   -5.220422   -2.802804
    154          1           0       27.300185   -5.158258   -2.167031
    155          1           0       27.647681   -3.427341    3.203768
    156          1           0       23.309230   -2.619345    3.129800
    157          1           0       23.623313   -2.925623    4.832238
    158          1           0       23.633870   -4.334434    3.643565
 ---------------------------------------------------------------------

 SCF Done:  E(RwB97XD) =  -4070.61313975     A.U. after   19 cycles

 Excitation energies and oscillator strengths:

 Excited State   1:      Singlet-A      1.6570 eV  748.26 nm  f=0.2894  <S**2>=0.000
     310 -> 316        0.18506
     311 -> 313        0.67323
     312 -> 314        0.10822
     310 <- 316        0.11490
 This state for optimization and/or second-order correction.
 Total Energy, E(TD-HF/TD-DFT) =  -4070.55224731
 Copying the excited state density for this state as the 1-particle RhoCI density.

 Excited State   2:      Singlet-A      1.6577 eV  747.93 nm  f=0.4802  <S**2>=0.000
     309 -> 315        0.16558
     311 -> 313       -0.10759
     312 -> 314        0.67704
     309 <- 315        0.10745

 Excited State   3:      Singlet-A      2.0777 eV  596.73 nm  f=0.1517  <S**2>=0.000
     310 -> 313        0.65641
     311 -> 316       -0.23991

 Excited State   4:      Singlet-A      2.1685 eV  571.76 nm  f=0.1043  <S**2>=0.000
     309 -> 314        0.63811
     312 -> 315       -0.28225

 Excited State   5:      Singlet-A      3.1037 eV  399.47 nm  f=0.0053  <S**2>=0.000
     306 -> 313       -0.12861
     308 -> 313        0.67537

 The electronic state is 1-A.
 Alpha  occ. eigenvalues --  -46.95564 -46.94586 -19.30730 -19.29109 -19.24956
 Alpha  occ. eigenvalues --  -19.24598 -19.23973 -19.23920 -19.23760 -19.22878
 Alpha  occ. eigenvalues --  -14.46875 -14.46675 -14.46495 -14.46461 -14.44958
 Alpha  occ. eigenvalues --  -14.44055 -14.43132 -14.42772 -10.42503 -10.42486
 Alpha  occ. eigenvalues --  -10.40158 -10.39787 -10.39103 -10.38012 -10.36445
 Alpha  occ. eigenvalues --  -10.35873 -10.35434 -10.35154 -10.34916 -10.34906
 Alpha  occ. eigenvalues --  -10.34883 -10.34709 -10.34685 -10.34654 -10.34376
 Alpha  occ. eigenvalues --  -10.34162 -10.33922 -10.33894 -10.33643 -10.32840
 Alpha  occ. eigenvalues --  -10.32823 -10.32723 -10.32711 -10.32435 -10.32290
 Alpha  occ. eigenvalues --  -10.32263 -10.32260 -10.32245 -10.32169 -10.32145
 Alpha  occ. eigenvalues --  -10.32107 -10.31849 -10.31844 -10.31804 -10.31736
 Alpha  occ. eigenvalues --  -10.31705 -10.31691 -10.31687 -10.31681 -10.31504
 Alpha  occ. eigenvalues --  -10.31454 -10.31380 -10.31295 -10.31241 -10.31152
 Alpha  occ. eigenvalues --  -10.30927 -10.30920 -10.30885 -10.30875 -10.30663
 Alpha  occ. eigenvalues --  -10.30651 -10.30637 -10.30592 -10.30587 -10.30273
 Alpha  occ. eigenvalues --  -10.30186 -10.30100 -10.30084 -10.30007 -10.29967
 Alpha  occ. eigenvalues --  -10.29830 -10.29693 -10.29657 -10.29289 -10.28793
 Alpha  occ. eigenvalues --  -10.28372  -3.21575  -3.20549  -1.95151  -1.94713
 Alpha  occ. eigenvalues --   -1.94537  -1.94139  -1.93670  -1.93525  -1.18075
 Alpha  occ. eigenvalues --   -1.17249  -1.14239  -1.13798  -1.11098  -1.10256
 Alpha  occ. eigenvalues --   -1.09050  -1.08828  -1.08593  -1.06682  -1.06440
 Alpha  occ. eigenvalues --   -1.05970  -1.05322  -1.04805  -1.04471  -1.03053
 Alpha  occ. eigenvalues --   -0.94416  -0.94048  -0.91602  -0.91027  -0.90641
 Alpha  occ. eigenvalues --   -0.90607  -0.90128  -0.90069  -0.89237  -0.89013
 Alpha  occ. eigenvalues --   -0.88930  -0.88518  -0.88386  -0.88023  -0.86207
 Alpha  occ. eigenvalues --   -0.86118  -0.85670  -0.85321  -0.84217  -0.84172
 Alpha  occ. eigenvalues --   -0.83868  -0.83740  -0.82945  -0.82822  -0.82275
 Alpha  occ. eigenvalues --   -0.82127  -0.80342  -0.80088  -0.79814  -0.79038
 Alpha  occ. eigenvalues --   -0.78744  -0.78711  -0.77865  -0.77819  -0.77440
 Alpha  occ. eigenvalues --   -0.76957  -0.74638  -0.74415  -0.74212  -0.73064
 Alpha  occ. eigenvalues --   -0.72379  -0.71724  -0.71323  -0.70408  -0.70131
 Alpha  occ. eigenvalues --   -0.69672  -0.69646  -0.68742  -0.68061  -0.67299
 Alpha  occ. eigenvalues --   -0.66856  -0.66706  -0.66620  -0.66456  -0.66437
 Alpha  occ. eigenvalues --   -0.65725  -0.64377  -0.63388  -0.62571  -0.61772
 Alpha  occ. eigenvalues --   -0.61562  -0.61180  -0.61070  -0.61028  -0.60765
 Alpha  occ. eigenvalues --   -0.60273  -0.59987  -0.59652  -0.59394  -0.58963
 Alpha  occ. eigenvalues --   -0.58578  -0.58102  -0.57812  -0.57641  -0.57375
 Alpha  occ. eigenvalues --   -0.57110  -0.56924  -0.56604  -0.56065  -0.55614
 Alpha  occ. eigenvalues --   -0.55541  -0.55268  -0.54924  -0.54783  -0.54656
 Alpha  occ. eigenvalues --   -0.54610  -0.54327  -0.54242  -0.54049  -0.53934
 Alpha  occ. eigenvalues --   -0.53887  -0.53606  -0.53540  -0.53112  -0.53105
 Alpha  occ. eigenvalues --   -0.52728  -0.52574  -0.52525  -0.52408  -0.52169
 Alpha  occ. eigenvalues --   -0.52164  -0.51841  -0.51654  -0.51615  -0.51511
 Alpha  occ. eigenvalues --   -0.51304  -0.51054  -0.50963  -0.50904  -0.50834
 Alpha  occ. eigenvalues --   -0.50596  -0.50440  -0.50235  -0.50140  -0.50023
 Alpha  occ. eigenvalues --   -0.49698  -0.49563  -0.49544  -0.49350  -0.49042
 Alpha  occ. eigenvalues --   -0.48880  -0.48734  -0.48668  -0.48200  -0.48183
 Alpha  occ. eigenvalues --   -0.48157  -0.48031  -0.47805  -0.47777  -0.47673
 Alpha  occ. eigenvalues --   -0.47554  -0.47322  -0.47186  -0.47077  -0.46931
 Alpha  occ. eigenvalues --   -0.46559  -0.46557  -0.46343  -0.46243  -0.46232
 Alpha  occ. eigenvalues --   -0.46126  -0.45931  -0.45876  -0.45586  -0.45316
 Alpha  occ. eigenvalues --   -0.45280  -0.45144  -0.45103  -0.44976  -0.44871
 Alpha  occ. eigenvalues --   -0.44734  -0.44653  -0.44514  -0.44265  -0.44073
 Alpha  occ. eigenvalues --   -0.43915  -0.43826  -0.43807  -0.43402  -0.43337
 Alpha  occ. eigenvalues --   -0.43103  -0.43006  -0.42789  -0.42657  -0.42508
 Alpha  occ. eigenvalues --   -0.42148  -0.41969  -0.41812  -0.41503  -0.40570
 Alpha  occ. eigenvalues --   -0.40426  -0.40298  -0.40218  -0.39742  -0.39608
 Alpha  occ. eigenvalues --   -0.39592  -0.38881  -0.38768  -0.38757  -0.38400
 Alpha  occ. eigenvalues --   -0.38042  -0.37683  -0.36966  -0.36306  -0.35798
 Alpha  occ. eigenvalues --   -0.35735  -0.35499  -0.35323  -0.33967  -0.33581
 Alpha  occ. eigenvalues --   -0.33557  -0.33095  -0.32789  -0.32784  -0.32001
 Alpha  occ. eigenvalues --   -0.31785  -0.31022  -0.30831  -0.26137  -0.25415
 Alpha  occ. eigenvalues --   -0.23102  -0.22977
 Alpha virt. eigenvalues --   -0.07267  -0.07107   0.00145   0.00625   0.02303
 Alpha virt. eigenvalues --    0.02655   0.04158   0.04600   0.05147   0.05689
 Alpha virt. eigenvalues --    0.06976   0.07452   0.07782   0.08136   0.08476

 Mulliken charges:
               1
     1  Mg   0.966695
     2  C    0.016079
     3  C   -0.089444
     4  C   -0.073305
     5  C   -0.081664
     6  N   -0.340630
     7  C   -0.050281
     8  C   -0.024565
     9  C   -0.146458
    10  C    0.111128
    11  C    0.045258
    12  C    0.022939
    13  C   -0.129960
    14  H    0.028899
    15  N   -0.460433
    16  C    0.119209
    17  C   -0.139187
    18  C   -0.060622
    19  C    0.168432
    20  C    0.086648
    21  C    0.018625
    22  O   -0.211053
    23  C   -0.019640
    24  N   -0.295213
    25  C    0.031374
    26  C   -0.087920
    27  C   -0.051434
    28  C    0.005291
    29  C    0.018774
    30  C   -0.018525
    31  C   -0.065346
    32  N   -0.451061
    33  C    0.151355
    34  C   -0.200753
    35  C   -0.007624
    36  C    0.105803
    37  C    0.098591
    38  C    0.085805
    39  O   -0.226210
    40  C   -0.061147
    41  C    0.241329
    42  O   -0.258078
    43  O   -0.370127
    44  C    0.138522
    45  H    0.002872
    46  H   -0.045535
    47  H   -0.027232
    48  H    0.026070
    49  H    0.042470
    50  H    0.041629
    51  H    0.029822
    52  H    0.040809
    53  H    0.040685
    54  H    0.032337
    55  H    0.057555
    56  H    0.062918
    57  H    0.069815
    58  H    0.019244
    59  H    0.052840
    60  H    0.067216
    61  H    0.060693
    62  H    0.051528
    63  H    0.046684
    64  H    0.041953
    65  H    0.030578
    66  H    0.057223
    67  H    0.038724
    68  H    0.041074
    69  H    0.036551
    70  H    0.040100
    71  H    0.033025
    72  H    0.044205
    73  H    0.043248
    74  H    0.065006
    75  H    0.064731
    76  H    0.078454
    77  H    0.064876
    78  H    0.047292
    79  H    0.060463
    80  Mg   0.960285
    81  C   -0.000841
    82  C   -0.090102
    83  C   -0.073984
    84  C   -0.087045
    85  N   -0.357145
    86  C   -0.011475
    87  C   -0.047780
    88  C   -0.148972
    89  C    0.067802
    90  C    0.032167
    91  C    0.017136
    92  C   -0.110767
    93  H    0.046852
    94  N   -0.477861
    95  C    0.165468
    96  C   -0.178496
    97  C   -0.089912
    98  C    0.129335
    99  C    0.057098
   100  C    0.082220
   101  O   -0.208418
   102  C   -0.022397
   103  N   -0.338068
   104  C    0.039868
   105  C   -0.081603
   106  C   -0.049207
   107  C    0.051149
   108  C    0.022581
   109  C   -0.042518
   110  C   -0.033378
   111  N   -0.450037
   112  C    0.142120
   113  C   -0.165014
   114  C   -0.034638
   115  C    0.132333
   116  C    0.085464
   117  C    0.094053
   118  O   -0.220677
   119  C   -0.058939
   120  C    0.274327
   121  O   -0.254775
   122  O   -0.379422
   123  C    0.128363
   124  H    0.001327
   125  H    0.020137
   126  H   -0.015914
   127  H    0.038853
   128  H    0.031184
   129  H    0.040098
   130  H    0.043108
   131  H    0.055436
   132  H    0.031062
   133  H    0.031049
   134  H    0.040493
   135  H    0.054370
   136  H    0.029124
   137  H    0.047914
   138  H    0.067785
   139  H    0.082020
   140  H    0.053782
   141  H    0.031744
   142  H    0.039752
   143  H    0.036115
   144  H    0.039824
   145  H    0.035658
   146  H    0.050976
   147  H    0.030129
   148  H    0.031111
   149  H    0.040363
   150  H    0.037224
   151  H    0.046613
   152  H    0.052945
   153  H    0.034605
   154  H    0.057861
   155  H    0.073254
   156  H    0.066901
   157  H    0.054423
   158  H    0.073528
 Sum of Mulliken charges =  -0.00000

 Dipole moment (field-independent basis, Debye):
    X=             -0.0702    Y=              6.9046    Z=              4.3791  Tot=              8.1765
 Quadrupole moment (field-independent basis, Debye-Ang):
   XX=           -157.1727   YY=           -568.5728   ZZ=           -479.3568
   XY=           -102.9591   XZ=            -18.6611   YZ=              5.2779

 Normal termination of Gaussian 16 at Mon Sep 20 06:58:16 2021.
