 Gaussian 16, Revision A.03,
 Gaussian 16:  ES64L-G16RevA.03 25-Dec-2016

 --------------------------------
 #p wB97XD/Def2SVP td=(nstates=5)
 --------------------------------

 --------------------------------
 TDDFT excited states in gaussian
 --------------------------------
 Symbolic Z-matrix:
 Charge =  0 Multiplicity = 1

                         Standard orientation:
 ---------------------------------------------------------------------
 Center     Atomic      Atomic             Coordinates (Angstroms)
 Number     Number       Type             X           Y           Z
 ---------------------------------------------------------------------
      1         12           0      -24.795086   -0.566878   -0.148805
      2          6           0      -23.231289    2.423317   -0.855372
      3          6           0      -24.924346    0.543900    3.253747
      4          6           0      -25.972370   -3.482883    0.725314
      5          6           0      -24.301380   -1.647573   -3.397429
      6          7           0      -23.927468    1.248501    1.082501
      7          6           0      -23.556445    2.380859    0.508910
      8          6           0      -23.651765    3.568655    1.507733
      9          6           0      -23.641013    2.778189    2.862722
     10          6           0      -24.200779    1.413334    2.430922
     11          6           0      -22.201315    2.666169    3.479126
     12          6           0      -24.987735    4.280788    1.199734
     13          6           0      -25.257831    5.588073    1.957019
     14          1           0      -24.374387    5.991702    3.120383
     15          7           0      -25.479401   -1.386839    1.634815
     16          6           0      -25.472850   -0.735856    2.916268
     17          6           0      -26.225424   -1.605675    3.809856
     18          6           0      -26.631493   -2.740403    3.040279
     19          6           0      -25.997884   -2.604593    1.729507
     20          6           0      -26.553219   -1.280112    5.314762
     21          6           0      -27.589099   -3.892253    3.491701
     22          8           0      -27.727496   -4.831275    2.756646
     23          6           0      -28.275614   -3.834632    4.817647
     24          7           0      -25.181775   -2.306418   -1.226444
     25          6           0      -25.686223   -3.419897   -0.648558
     26          6           0      -25.800096   -4.600964   -1.611680
     27          6           0      -25.392104   -3.955461   -2.956265
     28          6           0      -24.918201   -2.518355   -2.492400
     29          6           0      -24.934981   -5.862941   -1.247069
     30          6           0      -26.389967   -4.013932   -4.084631
     31          6           0      -27.876606   -3.644191   -3.863797
     32          7           0      -23.945189    0.149610   -1.832960
     33          6           0      -23.816051   -0.373533   -3.087686
     34          6           0      -23.253249    0.663820   -3.926140
     35          6           0      -23.014589    1.833091   -3.125034
     36          6           0      -23.456168    1.431820   -1.834493
     37          6           0      -22.969760    0.498247   -5.386569
     38          6           0      -22.482418    3.153406   -3.077455
     39          8           0      -21.944194    3.885874   -3.936020
     40          6           0      -22.378163    3.450440   -1.483408
     41          6           0      -22.717387    4.930066   -1.295715
     42          8           0      -23.682470    5.464000   -1.690424
     43          8           0      -21.679125    5.517805   -0.630737
     44          6           0      -21.907897    6.810890   -0.019484
     45          1           0      -24.899852    0.861070    4.297945
     46          1           0      -26.312706   -4.490887    0.971460
     47          1           0      -24.100454   -1.933708   -4.431212
     48          1           0      -22.768539    4.206469    1.476245
     49          1           0      -24.346875    3.331727    3.482428
     50          1           0      -22.112693    3.356759    4.316871
     51          1           0      -21.483613    2.895059    2.691102
     52          1           0      -21.985853    1.686644    3.906080
     53          1           0      -25.789346    3.610402    1.508655
     54          1           0      -25.158897    4.385755    0.128825
     55          1           0      -26.317747    5.767344    2.138795
     56          1           0      -25.128254    6.363187    1.201465
     57          1           0      -26.291575   -2.100780    5.983363
     58          1           0      -27.613455   -1.028353    5.333720
     59          1           0      -26.047869   -0.358245    5.605177
     60          1           0      -29.179255   -4.413168    4.624450
     61          1           0      -28.630438   -2.834669    5.064567
     62          1           0      -27.720094   -4.012955    5.738311
     63          1           0      -26.855545   -4.871978   -1.598264
     64          1           0      -24.458390   -4.353647   -3.353352
     65          1           0      -24.614580   -6.280858   -2.201050
     66          1           0      -25.663192   -6.505156   -0.751284
     67          1           0      -24.159259   -5.598777   -0.528406
     68          1           0      -26.471934   -5.093711   -4.204352
     69          1           0      -26.117307   -3.535722   -5.026011
     70          1           0      -28.629528   -4.413586   -4.029584
     71          1           0      -28.215471   -2.909020   -4.593687
     72          1           0      -28.010997   -3.302199   -2.837496
     73          1           0      -22.499514    1.430094   -5.699329
     74          1           0      -23.905491    0.414939   -5.940979
     75          1           0      -22.426393   -0.406736   -5.656739
     76          1           0      -21.355749    3.180693   -1.218009
     77          1           0      -21.043371    7.233450   -0.531679
     78          1           0      -21.942329    6.782919    1.069821
     79          1           0      -22.801852    7.325144   -0.373272
     80         12           0       24.190315   -0.871870   -0.185873
     81          6           0       25.179777    2.522359   -0.257474
     82          6           0       22.660032   -0.261810    2.816649
     83          6           0       23.836989   -4.143152    0.190552
     84          6           0       26.204569   -1.416348   -2.996172
     85          7           0       24.090447    0.898991    1.207766
     86          6           0       24.483250    2.200627    0.884982
     87          6           0       23.866800    3.202461    1.892236
     88          6           0       23.075159    2.274428    2.884454
     89          6           0       23.224421    0.851973    2.277143
     90          6           0       23.343054    2.457727    4.368078
     91          6           0       23.000870    4.325385    1.300244
     92          6           0       23.451287    5.753260    1.714227
     93          1           0       22.390271    6.603280    2.377314
     94          7           0       23.274918   -2.016710    1.282326
     95          6           0       22.726168   -1.616503    2.465174
     96          6           0       22.082596   -2.763506    3.060136
     97          6           0       22.551645   -3.958258    2.363568
     98          6           0       23.270911   -3.361186    1.248761
     99          6           0       21.264807   -2.675811    4.450841
    100          6           0       22.609116   -5.368247    2.768356
    101          8           0       23.009256   -6.295983    2.124579
    102          6           0       22.112983   -5.677210    4.177757
    103          7           0       25.115885   -2.560787   -1.166902
    104          6           0       24.739623   -3.814804   -0.848992
    105          6           0       25.224331   -4.809800   -1.906045
    106          6           0       25.647681   -3.894006   -3.065712
    107          6           0       25.630000   -2.528480   -2.415793
    108          6           0       26.435746   -5.696654   -1.360524
    109          6           0       24.523798   -3.977775   -4.219575
    110          6           0       23.178218   -3.269934   -3.902393
    111          7           0       25.376003    0.269660   -1.516693
    112          6           0       26.100197   -0.090777   -2.588528
    113          6           0       26.714880    1.090286   -3.132389
    114          6           0       26.343856    2.122555   -2.291324
    115          6           0       25.569169    1.584730   -1.259921
    116          6           0       27.613834    1.229441   -4.346185
    117          6           0       26.569392    3.557914   -2.101122
    118          8           0       27.232149    4.434100   -2.580723
    119          6           0       25.761535    3.896667   -0.820494
    120          6           0       26.746879    4.465331    0.132440
    121          8           0       27.748445    3.866135    0.433742
    122          8           0       26.437748    5.751180    0.545907
    123          6           0       27.523514    6.499626    1.263325
    124          1           0       22.005882   -0.013137    3.655069
    125          1           0       23.650244   -5.219371    0.201195
    126          1           0       26.673079   -1.450874   -3.981982
    127          1           0       24.670904    3.638758    2.485190
    128          1           0       22.025034    2.564792    2.846902
    129          1           0       24.263685    3.014570    4.536241
    130          1           0       23.377133    1.522385    4.927283
    131          1           0       22.545124    3.102736    4.735145
    132          1           0       21.941845    4.344982    1.557559
    133          1           0       22.997246    4.275946    0.211607
    134          1           0       23.944204    6.270912    0.891389
    135          1           0       24.215323    5.644258    2.482895
    136          1           0       20.314854   -3.191438    4.310507
    137          1           0       20.989530   -1.676649    4.786355
    138          1           0       21.737038   -3.046612    5.360539
    139          1           0       21.064666   -5.379668    4.143840
    140          1           0       22.707797   -5.035163    4.826659
    141          1           0       22.135751   -6.733387    4.448003
    142          1           0       24.434067   -5.453493   -2.293825
    143          1           0       26.637040   -3.992712   -3.512947
    144          1           0       26.387633   -6.651574   -1.884553
    145          1           0       26.465887   -5.942951   -0.298604
    146          1           0       27.324134   -5.149501   -1.675567
    147          1           0       24.306256   -5.001536   -4.523393
    148          1           0       24.840718   -3.386315   -5.078660
    149          1           0       22.367126   -3.471042   -4.601438
    150          1           0       23.361329   -2.195547   -3.925219
    151          1           0       22.889099   -3.554710   -2.890228
    152          1           0       27.138639    0.964224   -5.290343
    153          1           0       28.416706    0.519067   -4.150778
    154          1           0       28.090384    2.207824   -4.407305
    155          1           0       25.084710    4.682470   -1.155460
    156          1           0       26.924101    6.927006    2.067159
    157          1           0       27.958495    7.299600    0.664502
    158          1           0       28.387423    5.967984    1.661441
 ---------------------------------------------------------------------

 SCF Done:  E(RwB97XD) =  -4070.61601359     A.U. after   19 cycles

 Excitation energies and oscillator strengths:

 Excited State   1:      Singlet-A      1.6442 eV  754.08 nm  f=0.3975  <S**2>=0.000
     309 -> 316        0.18144
     311 -> 313        0.68504
     309 <- 316        0.11694
 This state for optimization and/or second-order correction.
 Total Energy, E(TD-HF/TD-DFT) =  -4070.55559082
 Copying the excited state density for this state as the 1-particle RhoCI density.

 Excited State   2:      Singlet-A      1.6762 eV  739.67 nm  f=0.3759  <S**2>=0.000
     310 -> 315       -0.20179
     312 -> 314        0.67874
     310 <- 315       -0.12040

 Excited State   3:      Singlet-A      2.1358 eV  580.50 nm  f=0.1342  <S**2>=0.000
     309 -> 313        0.65465
     311 -> 316       -0.25213

 Excited State   4:      Singlet-A      2.1629 eV  573.24 nm  f=0.0896  <S**2>=0.000
     310 -> 314        0.63319
     312 -> 315        0.30178

 Excited State   5:      Singlet-A      3.3972 eV  364.96 nm  f=0.0013  <S**2>=0.000
     303 -> 313       -0.14179
     305 -> 313        0.57550
     306 -> 313        0.34429

 The electronic state is 1-A.
 Alpha  occ. eigenvalues --  -46.95885 -46.94626 -19.30371 -19.29655 -19.25214
 Alpha  occ. eigenvalues --  -19.24658 -19.24213 -19.24151 -19.24083 -19.23408
 Alpha  occ. eigenvalues --  -14.46726 -14.46518 -14.46345 -14.46305 -14.44361
 Alpha  occ. eigenvalues --  -14.43921 -14.43917 -14.43823 -10.42797 -10.42640
 Alpha  occ. eigenvalues --  -10.39215 -10.39184 -10.39163 -10.38309 -10.35581
 Alpha  occ. eigenvalues --  -10.35566 -10.35229 -10.34796 -10.34773 -10.34763
 Alpha  occ. eigenvalues --  -10.34762 -10.34649 -10.34601 -10.34461 -10.34328
 Alpha  occ. eigenvalues --  -10.34261 -10.33979 -10.33815 -10.33699 -10.33395
 Alpha  occ. eigenvalues --  -10.33369 -10.33195 -10.32977 -10.32824 -10.32816
 Alpha  occ. eigenvalues --  -10.32763 -10.32594 -10.32264 -10.32173 -10.32096
 Alpha  occ. eigenvalues --  -10.32058 -10.32028 -10.31941 -10.31914 -10.31866
 Alpha  occ. eigenvalues --  -10.31821 -10.31789 -10.31748 -10.31722 -10.31639
 Alpha  occ. eigenvalues --  -10.31561 -10.31545 -10.31363 -10.31079 -10.30996
 Alpha  occ. eigenvalues --  -10.30723 -10.30678 -10.30603 -10.30573 -10.30538
 Alpha  occ. eigenvalues --  -10.30474 -10.30405 -10.30357 -10.30147 -10.30132
 Alpha  occ. eigenvalues --  -10.30078 -10.30070 -10.29869 -10.29825 -10.29808
 Alpha  occ. eigenvalues --  -10.29725 -10.29461 -10.29104 -10.29089 -10.28947
 Alpha  occ. eigenvalues --  -10.28926  -3.21748  -3.20692  -1.95315  -1.94882
 Alpha  occ. eigenvalues --   -1.94708  -1.94284  -1.93834  -1.93652  -1.19808
 Alpha  occ. eigenvalues --   -1.17847  -1.13925  -1.13715  -1.13276  -1.12040
 Alpha  occ. eigenvalues --   -1.10311  -1.09827  -1.07240  -1.07209  -1.06334
 Alpha  occ. eigenvalues --   -1.06105  -1.05870  -1.05130  -1.04109  -1.04008
 Alpha  occ. eigenvalues --   -0.95061  -0.94348  -0.91229  -0.90774  -0.90676
 Alpha  occ. eigenvalues --   -0.90612  -0.90411  -0.90154  -0.89676  -0.89265
 Alpha  occ. eigenvalues --   -0.88513  -0.88417  -0.88274  -0.87613  -0.86340
 Alpha  occ. eigenvalues --   -0.86004  -0.85629  -0.85394  -0.84395  -0.84337
 Alpha  occ. eigenvalues --   -0.83672  -0.83395  -0.83150  -0.82822  -0.82266
 Alpha  occ. eigenvalues --   -0.82115  -0.80326  -0.79958  -0.79355  -0.79283
 Alpha  occ. eigenvalues --   -0.78753  -0.78706  -0.78079  -0.77844  -0.77458
 Alpha  occ. eigenvalues --   -0.77157  -0.75103  -0.74698  -0.74002  -0.73748
 Alpha  occ. eigenvalues --   -0.72192  -0.71287  -0.71205  -0.70883  -0.70102
 Alpha  occ. eigenvalues --   -0.70061  -0.69239  -0.68202  -0.67422  -0.67289
 Alpha  occ. eigenvalues --   -0.67175  -0.67143  -0.66880  -0.66455  -0.66300
 Alpha  occ. eigenvalues --   -0.66144  -0.64370  -0.64287  -0.62497  -0.62419
 Alpha  occ. eigenvalues --   -0.61694  -0.61647  -0.61287  -0.61164  -0.60842
 Alpha  occ. eigenvalues --   -0.60733  -0.60174  -0.60101  -0.59897  -0.59540
 Alpha  occ. eigenvalues --   -0.58141  -0.58122  -0.57983  -0.57654  -0.57342
 Alpha  occ. eigenvalues --   -0.57300  -0.57164  -0.56592  -0.56214  -0.56113
 Alpha  occ. eigenvalues --   -0.55644  -0.55483  -0.55363  -0.54930  -0.54914
 Alpha  occ. eigenvalues --   -0.54605  -0.54333  -0.54332  -0.54221  -0.54066
 Alpha  occ. eigenvalues --   -0.54020  -0.53831  -0.53730  -0.53471  -0.53216
 Alpha  occ. eigenvalues --   -0.52733  -0.52683  -0.52664  -0.52082  -0.52000
 Alpha  occ. eigenvalues --   -0.51923  -0.51744  -0.51637  -0.51511  -0.51438
 Alpha  occ. eigenvalues --   -0.51297  -0.51269  -0.51235  -0.51229  -0.50975
 Alpha  occ. eigenvalues --   -0.50771  -0.50342  -0.50197  -0.50195  -0.50095
 Alpha  occ. eigenvalues --   -0.49916  -0.49873  -0.49579  -0.49533  -0.49409
 Alpha  occ. eigenvalues --   -0.48960  -0.48839  -0.48565  -0.48485  -0.48368
 Alpha  occ. eigenvalues --   -0.48067  -0.48045  -0.47938  -0.47822  -0.47773
 Alpha  occ. eigenvalues --   -0.47555  -0.47491  -0.47237  -0.47186  -0.47044
 Alpha  occ. eigenvalues --   -0.46961  -0.46635  -0.46477  -0.45995  -0.45813
 Alpha  occ. eigenvalues --   -0.45597  -0.45359  -0.45309  -0.45287  -0.45222
 Alpha  occ. eigenvalues --   -0.44993  -0.44929  -0.44870  -0.44842  -0.44646
 Alpha  occ. eigenvalues --   -0.44393  -0.44299  -0.44285  -0.44071  -0.44029
 Alpha  occ. eigenvalues --   -0.43969  -0.43943  -0.43807  -0.43592  -0.43370
 Alpha  occ. eigenvalues --   -0.43354  -0.43299  -0.42870  -0.42796  -0.42230
 Alpha  occ. eigenvalues --   -0.42135  -0.41645  -0.41513  -0.41341  -0.40983
 Alpha  occ. eigenvalues --   -0.40314  -0.40229  -0.40015  -0.39875  -0.39807
 Alpha  occ. eigenvalues --   -0.39582  -0.39187  -0.39149  -0.38401  -0.38354
 Alpha  occ. eigenvalues --   -0.38214  -0.37775  -0.37198  -0.36403  -0.36039
 Alpha  occ. eigenvalues --   -0.35963  -0.35647  -0.35591  -0.33829  -0.33687
 Alpha  occ. eigenvalues --   -0.33246  -0.33039  -0.32559  -0.32523  -0.32375
 Alpha  occ. eigenvalues --   -0.32218  -0.32041  -0.31528  -0.26104  -0.25750
 Alpha  occ. eigenvalues --   -0.23394  -0.22922
 Alpha virt. eigenvalues --   -0.07534  -0.06809   0.00006   0.00482   0.02218
 Alpha virt. eigenvalues --    0.02595   0.04579   0.04697   0.04802   0.06085
 Alpha virt. eigenvalues --    0.07556   0.07913   0.07980   0.08202   0.08486

 Mulliken charges:
               1
     1  Mg   0.965810
     2  C   -0.025836
     3  C   -0.077144
     4  C   -0.087935
     5  C   -0.117704
     6  N   -0.288259
     7  C   -0.035913
     8  C   -0.083991
     9  C   -0.089626
    10  C    0.019554
    11  C    0.040477
    12  C    0.000216
    13  C   -0.089346
    14  H    0.044106
    15  N   -0.478735
    16  C    0.176021
    17  C   -0.189370
    18  C   -0.081124
    19  C    0.188742
    20  C    0.062454
    21  C    0.064894
    22  O   -0.213688
    23  C   -0.007409
    24  N   -0.341926
    25  C    0.014404
    26  C   -0.099293
    27  C   -0.054307
    28  C    0.091163
    29  C    0.035497
    30  C   -0.009992
    31  C   -0.072560
    32  N   -0.486686
    33  C    0.144606
    34  C   -0.184395
    35  C   -0.031082
    36  C    0.180573
    37  C    0.067901
    38  C    0.153362
    39  O   -0.233762
    40  C   -0.147564
    41  C    0.242831
    42  O   -0.185819
    43  O   -0.368600
    44  C    0.110530
    45  H    0.003787
    46  H    0.009642
    47  H   -0.005496
    48  H    0.019481
    49  H    0.022947
    50  H    0.039828
    51  H    0.043866
    52  H    0.040350
    53  H    0.025791
    54  H    0.065952
    55  H    0.042740
    56  H    0.038160
    57  H    0.059043
    58  H    0.057769
    59  H    0.030218
    60  H    0.058190
    61  H    0.020617
    62  H    0.069280
    63  H    0.047948
    64  H    0.031220
    65  H    0.046319
    66  H    0.047920
    67  H    0.054218
    68  H    0.029221
    69  H    0.040703
    70  H    0.032790
    71  H    0.032899
    72  H    0.039565
    73  H    0.062277
    74  H    0.042959
    75  H    0.047391
    76  H    0.085696
    77  H    0.070085
    78  H    0.062611
    79  H    0.062936
    80  Mg   0.945880
    81  C   -0.040734
    82  C   -0.093280
    83  C   -0.065111
    84  C   -0.068481
    85  N   -0.371986
    86  C    0.009184
    87  C   -0.037925
    88  C   -0.103023
    89  C    0.075301
    90  C    0.021426
    91  C    0.015471
    92  C   -0.141997
    93  H    0.025736
    94  N   -0.445169
    95  C    0.174488
    96  C   -0.128334
    97  C   -0.081836
    98  C    0.149703
    99  C    0.018057
   100  C    0.023465
   101  O   -0.210412
   102  C   -0.006185
   103  N   -0.330960
   104  C    0.048356
   105  C   -0.089106
   106  C   -0.066714
   107  C    0.055728
   108  C    0.021692
   109  C   -0.041490
   110  C   -0.066432
   111  N   -0.411797
   112  C    0.080673
   113  C   -0.175931
   114  C   -0.085151
   115  C    0.178060
   116  C    0.073491
   117  C    0.147773
   118  O   -0.174247
   119  C   -0.066803
   120  C    0.252400
   121  O   -0.231237
   122  O   -0.382087
   123  C    0.126222
   124  H   -0.010004
   125  H    0.025866
   126  H   -0.003874
   127  H    0.040959
   128  H    0.033972
   129  H    0.030241
   130  H    0.043339
   131  H    0.031387
   132  H    0.042753
   133  H    0.033002
   134  H    0.067822
   135  H    0.036364
   136  H    0.048973
   137  H    0.027020
   138  H    0.053801
   139  H    0.041841
   140  H    0.056600
   141  H    0.049659
   142  H    0.042169
   143  H    0.039934
   144  H    0.039820
   145  H    0.057654
   146  H    0.036729
   147  H    0.045246
   148  H    0.027653
   149  H    0.048345
   150  H    0.041023
   151  H    0.039413
   152  H    0.051891
   153  H    0.041784
   154  H    0.060839
   155  H    0.062986
   156  H    0.053003
   157  H    0.061584
   158  H    0.073532
 Sum of Mulliken charges =  -0.00000

 Dipole moment (field-independent basis, Debye):
    X=             -4.6015    Y=             -1.2137    Z=              4.6522  Tot=              6.6551
 Quadrupole moment (field-independent basis, Debye-Ang):
   XX=           -604.4432   YY=           -527.2655   ZZ=           -470.3647
   XY=             23.6919   XZ=            -77.4813   YZ=             61.4752

 Normal termination of Gaussian 16 at Sun Sep 19 00:40:13 2021.
