 Gaussian 16, Revision A.03,
 Gaussian 16:  ES64L-G16RevA.03 25-Dec-2016

 --------------------------------
 #p wB97XD/Def2SVP td=(nstates=5)
 --------------------------------

 --------------------------------
 TDDFT excited states in gaussian
 --------------------------------
 Symbolic Z-matrix:
 Charge =  0 Multiplicity = 1

                         Standard orientation:
 ---------------------------------------------------------------------
 Center     Atomic      Atomic             Coordinates (Angstroms)
 Number     Number       Type             X           Y           Z
 ---------------------------------------------------------------------
      1         12           0       29.789222    0.472770    0.525065
      2          6           0       30.207226   -2.296349   -1.536652
      3          6           0       27.809796    1.904513   -1.878027
      4          6           0       29.681228    3.283184    2.449679
      5          6           0       32.069277   -1.098316    2.753600
      6          7           0       29.120179   -0.107172   -1.481027
      7          6           0       29.330289   -1.340099   -2.040066
      8          6           0       28.542149   -1.360804   -3.352086
      9          6           0       28.057778    0.062348   -3.564916
     10          6           0       28.318737    0.656192   -2.185342
     11          6           0       28.622816    0.886425   -4.690578
     12          6           0       27.394721   -2.475227   -3.450655
     13          6           0       26.443026   -2.366813   -4.685228
     14          1           0       26.813026   -3.141189   -5.977322
     15          7           0       28.748580    2.260652    0.359639
     16          6           0       28.019186    2.677542   -0.705130
     17          6           0       27.573949    4.012874   -0.402280
     18          6           0       28.127248    4.405288    0.851945
     19          6           0       28.907655    3.329855    1.272370
     20          6           0       26.689584    4.752078   -1.358447
     21          6           0       28.015687    5.811652    1.509483
     22          8           0       28.781573    6.173388    2.384775
     23          6           0       27.087693    6.837538    1.061980
     24          7           0       30.690708    0.960123    2.237123
     25          6           0       30.477764    2.165879    2.904609
     26          6           0       31.235220    2.241089    4.241702
     27          6           0       31.721989    0.761768    4.411621
     28          6           0       31.429336    0.155937    3.048834
     29          6           0       32.180983    3.358289    4.403876
     30          6           0       31.160668   -0.125685    5.655595
     31          6           0       32.124058   -0.716017    6.689634
     32          7           0       31.003102   -1.355468    0.603033
     33          6           0       31.864815   -1.805752    1.563517
     34          6           0       32.421622   -3.066941    1.206389
     35          6           0       31.722849   -3.364191   -0.025609
     36          6           0       30.937159   -2.231517   -0.379030
     37          6           0       33.374987   -3.827549    2.047006
     38          6           0       31.505548   -4.398812   -1.010471
     39          8           0       31.883116   -5.548149   -1.126990
     40          6           0       30.473596   -3.694975   -2.073245
     41          6           0       30.963550   -3.816801   -3.469993
     42          8           0       31.957811   -3.262677   -3.884868
     43          8           0       30.173680   -4.598640   -4.226745
     44          6           0       30.421017   -4.593726   -5.719714
     45          1           0       27.135176    2.343161   -2.616595
     46          1           0       29.634953    4.198081    3.043758
     47          1           0       32.719801   -1.419714    3.569897
     48          1           0       29.342862   -1.620045   -4.044590
     49          1           0       26.991932    0.049216   -3.791363
     50          1           0       29.249615    1.562713   -4.110135
     51          1           0       27.848893    1.365472   -5.290467
     52          1           0       29.317591    0.321017   -5.311998
     53          1           0       26.838454   -2.295016   -2.530524
     54          1           0       27.842969   -3.468087   -3.446727
     55          1           0       26.346696   -1.337987   -5.029852
     56          1           0       25.450143   -2.686264   -4.368657
     57          1           0       26.326472    4.223763   -2.240550
     58          1           0       27.304875    5.555779   -1.761544
     59          1           0       25.849563    5.245917   -0.869592
     60          1           0       27.010240    7.079019    0.002389
     61          1           0       27.156696    7.792048    1.583591
     62          1           0       26.134834    6.446302    1.417870
     63          1           0       30.368817    2.398884    4.884580
     64          1           0       32.796891    0.940950    4.429602
     65          1           0       31.953710    4.090719    5.178940
     66          1           0       32.231035    3.884016    3.449994
     67          1           0       33.191804    3.050396    4.671057
     68          1           0       30.616322   -0.969357    5.231751
     69          1           0       30.415362    0.334915    6.305139
     70          1           0       32.314535   -1.784217    6.582644
     71          1           0       31.913851   -0.438795    7.722232
     72          1           0       33.112725   -0.308096    6.478856
     73          1           0       34.140036   -3.140708    2.408240
     74          1           0       33.798857   -4.687676    1.529418
     75          1           0       32.867567   -4.053819    2.985336
     76          1           0       29.557455   -4.281734   -2.014502
     77          1           0       29.947100   -5.525061   -6.028925
     78          1           0       31.496720   -4.585061   -5.894306
     79          1           0       29.876484   -3.739537   -6.122407
     80         12           0      -30.419289   -0.585640   -0.300168
     81          6           0      -27.827221    1.723523   -0.409665
     82          6           0      -28.420209   -2.619617    1.803442
     83          6           0      -33.152454   -2.194078    0.751920
     84          6           0      -32.479310    1.845690   -1.808019
     85          7           0      -28.417452   -0.269462    0.901818
     86          6           0      -27.494144    0.638094    0.441189
     87          6           0      -26.159572    0.440157    1.088734
     88          6           0      -26.266822   -1.074848    1.584352
     89          6           0      -27.802300   -1.379124    1.468136
     90          6           0      -25.372216   -2.145610    0.778235
     91          6           0      -25.885164    1.588631    2.190164
     92          6           0      -24.489995    1.863032    2.443983
     93          1           0      -24.095041    1.735450    3.930537
     94          7           0      -30.746994   -2.278987    0.925021
     95          6           0      -29.786249   -2.982398    1.704252
     96          6           0      -30.470381   -4.094727    2.341732
     97          6           0      -31.852176   -4.018911    2.041270
     98          6           0      -31.963138   -2.833824    1.125862
     99          6           0      -29.779391   -5.005748    3.286552
    100          6           0      -32.952036   -4.991816    2.640520
    101          8           0      -32.558055   -5.875913    3.399561
    102          6           0      -34.367815   -5.056162    2.077933
    103          7           0      -32.479735   -0.131826   -0.438887
    104          6           0      -33.382002   -1.051991   -0.013363
    105          6           0      -34.945155   -0.551613   -0.207284
    106          6           0      -34.715177    0.657695   -1.235038
    107          6           0      -33.163385    0.830378   -1.217971
    108          6           0      -35.936918   -1.615469   -0.813289
    109          6           0      -35.427094    1.945650   -0.816980
    110          6           0      -36.467082    2.615105   -1.747081
    111          7           0      -30.148616    1.242131   -1.222028
    112          6           0      -31.057086    2.073902   -1.809591
    113          6           0      -30.362218    3.176498   -2.414806
    114          6           0      -29.054056    3.078274   -1.807397
    115          6           0      -29.025491    1.889194   -1.058928
    116          6           0      -30.978247    4.298607   -3.199427
    117          6           0      -27.799683    3.783128   -1.644442
    118          8           0      -27.372635    4.733856   -2.225935
    119          6           0      -26.855028    2.898595   -0.740835
    120          6           0      -25.604004    2.347476   -1.459891
    121          8           0      -25.620257    1.770197   -2.525747
    122          8           0      -24.447171    2.708263   -0.738692
    123          6           0      -23.187247    2.425969   -1.357453
    124          1           0      -27.731805   -3.234003    2.386127
    125          1           0      -34.068493   -2.525088    1.245295
    126          1           0      -33.152011    2.560218   -2.285910
    127          1           0      -25.354660    0.340935    0.359732
    128          1           0      -25.978347   -1.105458    2.635660
    129          1           0      -24.708150   -2.580080    1.525356
    130          1           0      -24.808391   -1.697532   -0.039367
    131          1           0      -26.064197   -2.903952    0.410788
    132          1           0      -26.333529    1.178444    3.094893
    133          1           0      -26.511778    2.394768    1.807635
    134          1           0      -24.316953    2.881894    2.099541
    135          1           0      -23.864999    1.146531    1.911038
    136          1           0      -28.696518   -4.894772    3.233109
    137          1           0      -29.954238   -6.042559    2.998150
    138          1           0      -30.073427   -4.805059    4.317046
    139          1           0      -34.947900   -4.147573    2.242434
    140          1           0      -34.861077   -5.914773    2.534722
    141          1           0      -34.281702   -5.266706    1.011872
    142          1           0      -35.206117   -0.169287    0.779162
    143          1           0      -34.914144    0.417068   -2.279589
    144          1           0      -36.675102   -1.898353   -0.063413
    145          1           0      -35.378562   -2.503924   -1.110653
    146          1           0      -36.416857   -1.140358   -1.669550
    147          1           0      -34.719747    2.707959   -0.491201
    148          1           0      -35.954778    1.885839    0.134762
    149          1           0      -36.194937    3.566627   -2.204665
    150          1           0      -37.314588    2.841450   -1.099637
    151          1           0      -36.753612    1.950629   -2.563121
    152          1           0      -30.172694    4.773315   -3.760187
    153          1           0      -31.233130    5.183929   -2.617748
    154          1           0      -31.850006    4.023060   -3.792314
    155          1           0      -26.530023    3.600674    0.027502
    156          1           0      -22.559547    2.318874   -0.472197
    157          1           0      -22.777890    3.297675   -1.867698
    158          1           0      -23.267632    1.576824   -2.034941
 ---------------------------------------------------------------------

 SCF Done:  E(RwB97XD) =  -4070.58415408     A.U. after   19 cycles

 Excitation energies and oscillator strengths:

 Excited State   1:      Singlet-A      1.6352 eV  758.20 nm  f=0.3604  <S**2>=0.000
     309 -> 316        0.17827
     311 -> 314        0.68513
     309 <- 316        0.11641
 This state for optimization and/or second-order correction.
 Total Energy, E(TD-HF/TD-DFT) =  -4070.52406020
 Copying the excited state density for this state as the 1-particle RhoCI density.

 Excited State   2:      Singlet-A      1.6387 eV  756.62 nm  f=0.4245  <S**2>=0.000
     310 -> 315       -0.18438
     312 -> 313        0.68259
     310 <- 315       -0.11754

 Excited State   3:      Singlet-A      2.1629 eV  573.23 nm  f=0.0919  <S**2>=0.000
     310 -> 313        0.63065
     312 -> 315        0.30294

 Excited State   4:      Singlet-A      2.1962 eV  564.55 nm  f=0.1042  <S**2>=0.000
     309 -> 314        0.63442
     311 -> 316       -0.29409

 Excited State   5:      Singlet-A      3.2555 eV  380.84 nm  f=0.0003  <S**2>=0.000
     306 -> 313       -0.22705
     308 -> 313        0.64156

 The electronic state is 1-A.
 Alpha  occ. eigenvalues --  -46.96168 -46.94220 -19.30364 -19.29633 -19.25674
 Alpha  occ. eigenvalues --  -19.24779 -19.24104 -19.23718 -19.23263 -19.23197
 Alpha  occ. eigenvalues --  -14.47334 -14.46941 -14.46628 -14.46615 -14.44849
 Alpha  occ. eigenvalues --  -14.43687 -14.43642 -14.43027 -10.43959 -10.41795
 Alpha  occ. eigenvalues --  -10.40433 -10.39549 -10.38675 -10.37992 -10.35923
 Alpha  occ. eigenvalues --  -10.35857 -10.35722 -10.35662 -10.35315 -10.35196
 Alpha  occ. eigenvalues --  -10.35136 -10.35133 -10.35120 -10.34544 -10.34470
 Alpha  occ. eigenvalues --  -10.34447 -10.33862 -10.33745 -10.33615 -10.33596
 Alpha  occ. eigenvalues --  -10.33369 -10.32986 -10.32728 -10.32711 -10.32578
 Alpha  occ. eigenvalues --  -10.32567 -10.32455 -10.32362 -10.32271 -10.32205
 Alpha  occ. eigenvalues --  -10.32176 -10.32118 -10.32108 -10.32041 -10.32011
 Alpha  occ. eigenvalues --  -10.31723 -10.31700 -10.31630 -10.31576 -10.31486
 Alpha  occ. eigenvalues --  -10.31316 -10.31233 -10.31195 -10.31133 -10.31004
 Alpha  occ. eigenvalues --  -10.30967 -10.30964 -10.30952 -10.30913 -10.30894
 Alpha  occ. eigenvalues --  -10.30757 -10.30602 -10.30511 -10.30379 -10.30374
 Alpha  occ. eigenvalues --  -10.30226 -10.30126 -10.30013 -10.29681 -10.29591
 Alpha  occ. eigenvalues --  -10.29543 -10.29442 -10.29399 -10.29326 -10.29308
 Alpha  occ. eigenvalues --  -10.28648  -3.22052  -3.20298  -1.95582  -1.95225
 Alpha  occ. eigenvalues --   -1.94984  -1.93909  -1.93423  -1.93274  -1.18246
 Alpha  occ. eigenvalues --   -1.18013  -1.13196  -1.13005  -1.12572  -1.11737
 Alpha  occ. eigenvalues --   -1.10940  -1.08921  -1.07235  -1.06912  -1.06131
 Alpha  occ. eigenvalues --   -1.05338  -1.04985  -1.04414  -1.04400  -1.03649
 Alpha  occ. eigenvalues --   -0.94399  -0.94208  -0.91118  -0.91070  -0.90577
 Alpha  occ. eigenvalues --   -0.90284  -0.90278  -0.90085  -0.89496  -0.88918
 Alpha  occ. eigenvalues --   -0.88821  -0.88649  -0.88402  -0.87781  -0.86535
 Alpha  occ. eigenvalues --   -0.86013  -0.85603  -0.85256  -0.84634  -0.84561
 Alpha  occ. eigenvalues --   -0.84374  -0.84178  -0.83344  -0.83116  -0.82710
 Alpha  occ. eigenvalues --   -0.82241  -0.80764  -0.79769  -0.79717  -0.79316
 Alpha  occ. eigenvalues --   -0.79198  -0.78707  -0.78068  -0.77835  -0.77098
 Alpha  occ. eigenvalues --   -0.76910  -0.74772  -0.74669  -0.73797  -0.73347
 Alpha  occ. eigenvalues --   -0.71302  -0.71156  -0.70839  -0.70429  -0.70231
 Alpha  occ. eigenvalues --   -0.69424  -0.68934  -0.68495  -0.67865  -0.67541
 Alpha  occ. eigenvalues --   -0.67370  -0.66851  -0.66615  -0.66471  -0.66207
 Alpha  occ. eigenvalues --   -0.66116  -0.64813  -0.63423  -0.62532  -0.61715
 Alpha  occ. eigenvalues --   -0.61704  -0.61453  -0.61000  -0.60964  -0.60817
 Alpha  occ. eigenvalues --   -0.60543  -0.59996  -0.59967  -0.59472  -0.59232
 Alpha  occ. eigenvalues --   -0.58348  -0.58334  -0.57751  -0.57301  -0.57291
 Alpha  occ. eigenvalues --   -0.56960  -0.56718  -0.56706  -0.56488  -0.55943
 Alpha  occ. eigenvalues --   -0.55765  -0.55198  -0.55104  -0.54906  -0.54694
 Alpha  occ. eigenvalues --   -0.54541  -0.54517  -0.54428  -0.54231  -0.54056
 Alpha  occ. eigenvalues --   -0.54030  -0.53710  -0.53605  -0.53249  -0.52971
 Alpha  occ. eigenvalues --   -0.52916  -0.52769  -0.52723  -0.52453  -0.52263
 Alpha  occ. eigenvalues --   -0.52174  -0.52029  -0.51842  -0.51697  -0.51597
 Alpha  occ. eigenvalues --   -0.51383  -0.51257  -0.51165  -0.51061  -0.51048
 Alpha  occ. eigenvalues --   -0.50907  -0.50728  -0.50551  -0.50382  -0.50177
 Alpha  occ. eigenvalues --   -0.49941  -0.49813  -0.49647  -0.49375  -0.49239
 Alpha  occ. eigenvalues --   -0.49047  -0.49009  -0.48937  -0.48778  -0.48508
 Alpha  occ. eigenvalues --   -0.48503  -0.48369  -0.48175  -0.48094  -0.48020
 Alpha  occ. eigenvalues --   -0.47898  -0.47591  -0.47187  -0.47075  -0.47026
 Alpha  occ. eigenvalues --   -0.46898  -0.46752  -0.46738  -0.46445  -0.46327
 Alpha  occ. eigenvalues --   -0.46188  -0.46038  -0.45924  -0.45911  -0.45650
 Alpha  occ. eigenvalues --   -0.45466  -0.45368  -0.45281  -0.45089  -0.44793
 Alpha  occ. eigenvalues --   -0.44737  -0.44650  -0.44633  -0.44441  -0.44188
 Alpha  occ. eigenvalues --   -0.43980  -0.43729  -0.43465  -0.43399  -0.43218
 Alpha  occ. eigenvalues --   -0.42965  -0.42898  -0.42826  -0.42374  -0.42289
 Alpha  occ. eigenvalues --   -0.42104  -0.41723  -0.41442  -0.41187  -0.40701
 Alpha  occ. eigenvalues --   -0.40625  -0.40191  -0.39756  -0.39709  -0.39212
 Alpha  occ. eigenvalues --   -0.39054  -0.38894  -0.38691  -0.38284  -0.38251
 Alpha  occ. eigenvalues --   -0.38067  -0.37583  -0.36763  -0.36257  -0.36220
 Alpha  occ. eigenvalues --   -0.36042  -0.35550  -0.34972  -0.33597  -0.33465
 Alpha  occ. eigenvalues --   -0.33258  -0.33179  -0.32445  -0.32225  -0.31954
 Alpha  occ. eigenvalues --   -0.31904  -0.31309  -0.31218  -0.26272  -0.26125
 Alpha  occ. eigenvalues --   -0.22996  -0.22930
 Alpha virt. eigenvalues --   -0.07160  -0.07135   0.00036   0.00240   0.02501
 Alpha virt. eigenvalues --    0.02677   0.04243   0.04481   0.04829   0.06479
 Alpha virt. eigenvalues --    0.06715   0.07074   0.07340   0.07929   0.08415

 Mulliken charges:
               1
     1  Mg   0.969837
     2  C    0.027203
     3  C   -0.088451
     4  C   -0.071833
     5  C   -0.105550
     6  N   -0.331582
     7  C   -0.006848
     8  C   -0.044254
     9  C   -0.151573
    10  C    0.059759
    11  C    0.050725
    12  C    0.000337
    13  C   -0.115549
    14  H    0.029160
    15  N   -0.488223
    16  C    0.172261
    17  C   -0.166657
    18  C   -0.057394
    19  C    0.125908
    20  C    0.053129
    21  C    0.071457
    22  O   -0.233736
    23  C   -0.004218
    24  N   -0.422754
    25  C    0.060787
    26  C   -0.086760
    27  C   -0.053505
    28  C    0.048484
    29  C    0.042965
    30  C   -0.002779
    31  C   -0.069042
    32  N   -0.373870
    33  C    0.160111
    34  C   -0.166765
    35  C   -0.076262
    36  C    0.112976
    37  C    0.102549
    38  C    0.145477
    39  O   -0.193135
    40  C   -0.138735
    41  C    0.241221
    42  O   -0.254333
    43  O   -0.372466
    44  C    0.133508
    45  H   -0.016239
    46  H    0.028714
    47  H    0.001726
    48  H    0.035364
    49  H    0.021825
    50  H    0.039177
    51  H    0.043593
    52  H    0.038589
    53  H    0.034479
    54  H    0.060932
    55  H    0.043674
    56  H    0.059103
    57  H    0.039669
    58  H    0.049932
    59  H    0.047225
    60  H    0.056514
    61  H    0.050117
    62  H    0.049689
    63  H    0.038402
    64  H    0.031801
    65  H    0.040577
    66  H    0.046742
    67  H    0.027943
    68  H    0.036104
    69  H    0.035531
    70  H    0.039391
    71  H    0.045769
    72  H    0.018536
    73  H    0.034822
    74  H    0.072748
    75  H    0.044358
    76  H    0.067430
    77  H    0.062671
    78  H    0.082021
    79  H    0.059490
    80  Mg   0.960906
    81  C   -0.078292
    82  C   -0.075607
    83  C   -0.094014
    84  C   -0.091022
    85  N   -0.325250
    86  C   -0.039457
    87  C   -0.084256
    88  C   -0.134128
    89  C    0.034679
    90  C    0.014954
    91  C    0.052925
    92  C   -0.094600
    93  H    0.019885
    94  N   -0.466444
    95  C    0.174665
    96  C   -0.161953
    97  C   -0.102795
    98  C    0.203924
    99  C    0.095613
   100  C    0.076036
   101  O   -0.234447
   102  C   -0.028107
   103  N   -0.403808
   104  C    0.073680
   105  C   -0.123961
   106  C   -0.024115
   107  C    0.034432
   108  C    0.024329
   109  C   -0.029740
   110  C   -0.054241
   111  N   -0.416496
   112  C    0.139651
   113  C   -0.161006
   114  C   -0.085619
   115  C    0.221671
   116  C    0.066570
   117  C    0.109062
   118  O   -0.181764
   119  C   -0.079623
   120  C    0.276148
   121  O   -0.220966
   122  O   -0.387162
   123  C    0.130545
   124  H    0.011429
   125  H   -0.019700
   126  H   -0.007317
   127  H    0.027341
   128  H    0.037126
   129  H    0.043849
   130  H    0.052419
   131  H    0.042179
   132  H    0.036911
   133  H    0.037040
   134  H    0.063523
   135  H    0.049750
   136  H    0.010681
   137  H    0.056731
   138  H    0.066339
   139  H    0.071076
   140  H    0.057638
   141  H    0.067767
   142  H    0.055952
   143  H    0.043572
   144  H    0.039944
   145  H    0.046116
   146  H    0.045236
   147  H    0.031549
   148  H    0.018920
   149  H    0.040058
   150  H    0.034082
   151  H    0.032262
   152  H    0.049869
   153  H    0.043567
   154  H    0.043561
   155  H    0.072454
   156  H    0.046034
   157  H    0.054202
   158  H    0.067038
 Sum of Mulliken charges =  -0.00000

 Dipole moment (field-independent basis, Debye):
    X=             -6.8373    Y=              1.6022    Z=              0.9590  Tot=              7.0877
 Quadrupole moment (field-independent basis, Debye-Ang):
   XX=           -573.4956   YY=           -558.5038   ZZ=           -494.5668
   XY=            130.9697   XZ=             35.5826   YZ=              6.7015

 Normal termination of Gaussian 16 at Mon Sep 20 02:33:15 2021.
