 Gaussian 16, Revision A.03,
 Gaussian 16:  ES64L-G16RevA.03 25-Dec-2016

 --------------------------------
 #p wB97XD/Def2SVP td=(nstates=5)
 --------------------------------

 --------------------------------
 TDDFT excited states in gaussian
 --------------------------------
 Symbolic Z-matrix:
 Charge =  0 Multiplicity = 1

                         Standard orientation:
 ---------------------------------------------------------------------
 Center     Atomic      Atomic             Coordinates (Angstroms)
 Number     Number       Type             X           Y           Z
 ---------------------------------------------------------------------
      1         12           0       12.378935   -0.001314    0.256241
      2          6           0        9.044216   -0.368107   -0.282844
      3          6           0       12.883571    1.736097   -2.681414
      4          6           0       15.737721    0.067079    0.917485
      5          6           0       12.057971   -2.181232    3.126053
      6          7           0       11.138453    0.416572   -1.377719
      7          6           0        9.706331    0.403313   -1.284263
      8          6           0        9.099452    1.210740   -2.361065
      9          6           0       10.363064    1.491579   -3.291990
     10          6           0       11.574268    1.205722   -2.432420
     11          6           0       10.381920    0.587813   -4.624297
     12          6           0        8.249479    2.422527   -1.869441
     13          6           0        6.933159    2.598627   -2.555561
     14          1           0        6.919776    2.331195   -4.112219
     15          7           0       14.069686    0.857471   -0.711446
     16          6           0       14.008178    1.503198   -1.910453
     17          6           0       15.323250    1.944887   -2.226259
     18          6           0       16.208773    1.556674   -1.146278
     19          6           0       15.336786    0.830082   -0.163646
     20          6           0       15.661891    2.623577   -3.571516
     21          6           0       17.664333    1.786054   -0.883452
     22          8           0       18.363780    1.322664    0.024350
     23          6           0       18.372379    2.788728   -1.871248
     24          7           0       13.772838   -1.029940    1.776544
     25          6           0       15.047190   -0.741358    1.867414
     26          6           0       15.667930   -1.247106    3.168004
     27          6           0       14.473518   -1.963546    3.860457
     28          6           0       13.348530   -1.732899    2.853375
     29          6           0       16.931491   -2.224123    2.945007
     30          6           0       14.195445   -1.258059    5.260523
     31          6           0       13.669746    0.196983    5.331296
     32          7           0       10.898126   -1.201298    1.149799
     33          6           0       10.920533   -1.956964    2.306813
     34          6           0        9.522156   -2.351550    2.572583
     35          6           0        8.712827   -1.778984    1.637866
     36          6           0        9.628544   -1.074535    0.774810
     37          6           0        9.117810   -3.349736    3.602105
     38          6           0        7.345492   -1.601988    1.149427
     39          8           0        6.283530   -2.042350    1.556554
     40          6           0        7.540571   -0.676468   -0.130695
     41          6           0        7.086894   -1.453429   -1.302091
     42          8           0        7.481722   -2.570398   -1.679533
     43          8           0        6.115461   -0.658229   -1.875525
     44          6           0        5.632009   -1.134246   -3.178187
     45          1           0       13.076320    2.333841   -3.574559
     46          1           0       16.797639    0.228767    1.127714
     47          1           0       11.928887   -2.775902    4.032093
     48          1           0        8.406844    0.526078   -2.852227
     49          1           0       10.353501    2.548258   -3.557538
     50          1           0        9.429108    0.103020   -4.836962
     51          1           0       11.040389   -0.252969   -4.406564
     52          1           0       10.788469    1.260586   -5.378268
     53          1           0        8.810513    3.346102   -2.012379
     54          1           0        8.086952    2.186969   -0.817777
     55          1           0        6.560488    3.621035   -2.507064
     56          1           0        6.038107    2.076827   -2.216595
     57          1           0       15.362754    3.667446   -3.665435
     58          1           0       15.183559    1.959572   -4.291320
     59          1           0       16.733964    2.726176   -3.738176
     60          1           0       18.505665    2.298783   -2.835795
     61          1           0       19.237939    3.208765   -1.359252
     62          1           0       17.814934    3.712062   -2.030088
     63          1           0       15.964553   -0.385905    3.766236
     64          1           0       14.651223   -3.021464    4.053888
     65          1           0       17.811232   -1.637089    3.211155
     66          1           0       17.003710   -2.511122    1.895452
     67          1           0       17.022507   -3.133442    3.537736
     68          1           0       15.025574   -1.290149    5.965995
     69          1           0       13.374103   -1.868588    5.637104
     70          1           0       12.683547    0.068240    5.777535
     71          1           0       13.647353    0.684242    4.357331
     72          1           0       14.270349    0.853807    5.960505
     73          1           0        8.135267   -2.990235    3.906277
     74          1           0        9.813757   -3.401607    4.439610
     75          1           0        8.860558   -4.268386    3.076465
     76          1           0        6.804510    0.093606    0.098657
     77          1           0        4.813025   -0.443769   -3.381776
     78          1           0        5.207466   -2.121258   -2.994669
     79          1           0        6.392332   -1.260688   -3.949191
     80         12           0      -12.087378   -0.423265   -0.589359
     81          6           0      -11.673768    2.945503    0.321975
     82          6           0       -8.998811   -0.318812   -2.096673
     83          6           0      -12.225571   -3.725818   -0.729331
     84          6           0      -15.139767   -0.466136    1.226936
     85          7           0      -10.439520    1.047422   -0.626062
     86          6           0      -10.478786    2.396451   -0.188244
     87          6           0       -9.390941    3.213209   -0.753509
     88          6           0       -8.587803    2.149679   -1.619924
     89          6           0       -9.402768    0.873794   -1.478396
     90          6           0       -8.304109    2.647201   -3.057981
     91          6           0       -8.439161    3.775302    0.257971
     92          6           0       -8.101798    2.881968    1.461009
     93          1           0       -6.661448    2.880936    2.106440
     94          7           0      -10.809190   -1.874803   -1.348760
     95          6           0       -9.675859   -1.597218   -2.021195
     96          6           0       -9.158813   -2.826387   -2.568706
     97          6           0      -10.108255   -3.830317   -2.256084
     98          6           0      -11.138574   -3.175339   -1.434198
     99          6           0       -7.850045   -2.988514   -3.294039
    100          6           0      -10.036126   -5.292787   -2.694245
    101          8           0       -9.106340   -5.702307   -3.361521
    102          6           0      -10.961151   -6.407724   -2.305176
    103          7           0      -13.333745   -1.907296    0.353651
    104          6           0      -13.213935   -3.245306    0.087697
    105          6           0      -14.477980   -4.037907    0.557233
    106          6           0      -15.212479   -2.984304    1.440446
    107          6           0      -14.545333   -1.708644    0.974815
    108          6           0      -15.403595   -4.545874   -0.574545
    109          6           0      -14.907623   -3.047688    3.011259
    110          6           0      -16.076557   -2.970216    3.925172
    111          7           0      -13.236608    0.891182    0.431493
    112          6           0      -14.479120    0.763669    0.916386
    113          6           0      -15.100676    2.127066    1.115618
    114          6           0      -14.001718    2.997859    0.828467
    115          6           0      -12.857284    2.194300    0.561566
    116          6           0      -16.503458    2.520319    1.555869
    117          6           0      -13.601301    4.373655    0.896009
    118          8           0      -14.226525    5.368287    1.228194
    119          6           0      -12.061499    4.387232    0.533361
    120          6           0      -11.318907    4.818856    1.780909
    121          8           0      -11.197225    4.218335    2.797057
    122          8           0      -10.689092    6.014109    1.506271
    123          6           0       -9.704122    6.407492    2.518896
    124          1           0       -8.119398   -0.226288   -2.737101
    125          1           0      -12.378232   -4.789845   -0.917542
    126          1           0      -16.145566   -0.534918    1.646538
    127          1           0       -9.848274    4.030144   -1.311677
    128          1           0       -7.647756    1.798035   -1.194890
    129          1           0       -7.241691    2.416625   -3.138715
    130          1           0       -8.531544    3.713126   -3.075499
    131          1           0       -8.833024    2.074398   -3.819982
    132          1           0       -8.666384    4.798544    0.558225
    133          1           0       -7.440964    3.989256   -0.124667
    134          1           0       -8.362394    1.873175    1.139017
    135          1           0       -8.862691    3.179814    2.182632
    136          1           0       -7.302617   -3.856378   -2.924802
    137          1           0       -7.276511   -2.063698   -3.232998
    138          1           0       -8.143649   -3.163518   -4.329338
    139          1           0      -10.947402   -6.681866   -1.250793
    140          1           0      -10.481192   -7.254955   -2.795242
    141          1           0      -11.934929   -6.347863   -2.792429
    142          1           0      -14.133721   -4.906052    1.119147
    143          1           0      -16.287368   -2.943147    1.262433
    144          1           0      -16.343385   -3.996173   -0.525559
    145          1           0      -15.426694   -5.634520   -0.620912
    146          1           0      -14.957648   -4.276470   -1.531296
    147          1           0      -14.176489   -2.292488    3.298812
    148          1           0      -14.422177   -4.015203    3.140297
    149          1           0      -16.139587   -3.816083    4.609429
    150          1           0      -17.029570   -2.867385    3.405725
    151          1           0      -16.017522   -2.104436    4.584195
    152          1           0      -16.384946    3.117400    2.460070
    153          1           0      -17.106912    1.612436    1.590662
    154          1           0      -16.859619    3.217628    0.797683
    155          1           0      -11.841382    5.037086   -0.313302
    156          1           0       -9.241503    5.555704    3.017245
    157          1           0      -10.291598    6.990264    3.228437
    158          1           0       -9.050924    7.129295    2.029305
 ---------------------------------------------------------------------

 SCF Done:  E(RwB97XD) =  -4070.59853432     A.U. after   19 cycles

 Excitation energies and oscillator strengths:

 Excited State   1:      Singlet-A      1.6066 eV  771.70 nm  f=0.3907  <S**2>=0.000
     310 -> 316       -0.17816
     311 -> 313        0.68426
     310 <- 316       -0.11703
 This state for optimization and/or second-order correction.
 Total Energy, E(TD-HF/TD-DFT) =  -4070.53949129
 Copying the excited state density for this state as the 1-particle RhoCI density.

 Excited State   2:      Singlet-A      1.6461 eV  753.21 nm  f=0.3678  <S**2>=0.000
     309 -> 315       -0.19153
     312 -> 314        0.68047
     309 <- 315       -0.11802

 Excited State   3:      Singlet-A      2.2111 eV  560.74 nm  f=0.1005  <S**2>=0.000
     310 -> 313        0.62038
     311 -> 316        0.30846

 Excited State   4:      Singlet-A      2.2140 eV  560.01 nm  f=0.0427  <S**2>=0.000
     309 -> 314        0.60107
     312 -> 315        0.34574

 Excited State   5:      Singlet-A      3.6713 eV  337.71 nm  f=0.0000  <S**2>=0.000
     312 -> 313        0.70699

 The electronic state is 1-A.
 Alpha  occ. eigenvalues --  -46.95612 -46.94893 -19.30877 -19.29814 -19.25302
 Alpha  occ. eigenvalues --  -19.25210 -19.24593 -19.24589 -19.24147 -19.23196
 Alpha  occ. eigenvalues --  -14.46951 -14.46913 -14.46797 -14.46446 -14.44135
 Alpha  occ. eigenvalues --  -14.44123 -14.44076 -14.44069 -10.43379 -10.43049
 Alpha  occ. eigenvalues --  -10.39747 -10.39430 -10.38972 -10.38508 -10.36079
 Alpha  occ. eigenvalues --  -10.35829 -10.35588 -10.35201 -10.35176 -10.34931
 Alpha  occ. eigenvalues --  -10.34902 -10.34798 -10.34610 -10.34556 -10.34467
 Alpha  occ. eigenvalues --  -10.34438 -10.34153 -10.33977 -10.33955 -10.33574
 Alpha  occ. eigenvalues --  -10.33460 -10.33281 -10.33087 -10.32820 -10.32792
 Alpha  occ. eigenvalues --  -10.32519 -10.32517 -10.32462 -10.32416 -10.32410
 Alpha  occ. eigenvalues --  -10.32242 -10.32184 -10.32143 -10.32061 -10.32020
 Alpha  occ. eigenvalues --  -10.31967 -10.31844 -10.31836 -10.31815 -10.31662
 Alpha  occ. eigenvalues --  -10.31543 -10.31517 -10.31481 -10.31439 -10.31417
 Alpha  occ. eigenvalues --  -10.31409 -10.31025 -10.30811 -10.30496 -10.30482
 Alpha  occ. eigenvalues --  -10.30456 -10.30445 -10.30379 -10.30354 -10.30344
 Alpha  occ. eigenvalues --  -10.30255 -10.29920 -10.29767 -10.29728 -10.29423
 Alpha  occ. eigenvalues --  -10.29381 -10.29315 -10.29307 -10.29141 -10.29112
 Alpha  occ. eigenvalues --  -10.28748  -3.21469  -3.20963  -1.95058  -1.94579
 Alpha  occ. eigenvalues --   -1.94516  -1.94438  -1.94093  -1.93952  -1.19377
 Alpha  occ. eigenvalues --   -1.18135  -1.12554  -1.12427  -1.12157  -1.11876
 Alpha  occ. eigenvalues --   -1.11127  -1.09660  -1.07140  -1.06549  -1.05990
 Alpha  occ. eigenvalues --   -1.05791  -1.05287  -1.04964  -1.04608  -1.03744
 Alpha  occ. eigenvalues --   -0.95120  -0.94342  -0.91706  -0.91267  -0.91047
 Alpha  occ. eigenvalues --   -0.90683  -0.90254  -0.89912  -0.89410  -0.89210
 Alpha  occ. eigenvalues --   -0.88856  -0.88241  -0.88239  -0.87712  -0.86606
 Alpha  occ. eigenvalues --   -0.86593  -0.86009  -0.85290  -0.84593  -0.84306
 Alpha  occ. eigenvalues --   -0.83554  -0.83485  -0.83192  -0.82774  -0.82423
 Alpha  occ. eigenvalues --   -0.81941  -0.80059  -0.79841  -0.79398  -0.79296
 Alpha  occ. eigenvalues --   -0.79144  -0.78738  -0.77943  -0.77739  -0.77052
 Alpha  occ. eigenvalues --   -0.76927  -0.74650  -0.74454  -0.74180  -0.73616
 Alpha  occ. eigenvalues --   -0.71802  -0.71515  -0.71234  -0.70770  -0.70527
 Alpha  occ. eigenvalues --   -0.70339  -0.69461  -0.69043  -0.67746  -0.67268
 Alpha  occ. eigenvalues --   -0.67033  -0.66963  -0.66685  -0.66482  -0.66379
 Alpha  occ. eigenvalues --   -0.66326  -0.64519  -0.64065  -0.62335  -0.61934
 Alpha  occ. eigenvalues --   -0.61396  -0.61383  -0.60971  -0.60920  -0.60882
 Alpha  occ. eigenvalues --   -0.60783  -0.60066  -0.59944  -0.59494  -0.59353
 Alpha  occ. eigenvalues --   -0.58492  -0.57979  -0.57917  -0.57487  -0.57323
 Alpha  occ. eigenvalues --   -0.57018  -0.56955  -0.56917  -0.56521  -0.56378
 Alpha  occ. eigenvalues --   -0.55985  -0.55477  -0.55167  -0.55132  -0.54954
 Alpha  occ. eigenvalues --   -0.54761  -0.54318  -0.54245  -0.54209  -0.54171
 Alpha  occ. eigenvalues --   -0.54098  -0.53973  -0.53921  -0.53488  -0.53462
 Alpha  occ. eigenvalues --   -0.53305  -0.53032  -0.52998  -0.52851  -0.52832
 Alpha  occ. eigenvalues --   -0.52051  -0.51835  -0.51585  -0.51513  -0.51302
 Alpha  occ. eigenvalues --   -0.51236  -0.51174  -0.50903  -0.50810  -0.50643
 Alpha  occ. eigenvalues --   -0.50502  -0.50500  -0.50480  -0.50414  -0.50245
 Alpha  occ. eigenvalues --   -0.50096  -0.49628  -0.49419  -0.49325  -0.49188
 Alpha  occ. eigenvalues --   -0.49091  -0.48997  -0.48813  -0.48781  -0.48712
 Alpha  occ. eigenvalues --   -0.48694  -0.48271  -0.48136  -0.47902  -0.47783
 Alpha  occ. eigenvalues --   -0.47782  -0.47522  -0.47383  -0.47131  -0.47124
 Alpha  occ. eigenvalues --   -0.46712  -0.46557  -0.46497  -0.46254  -0.45985
 Alpha  occ. eigenvalues --   -0.45869  -0.45796  -0.45497  -0.45433  -0.45180
 Alpha  occ. eigenvalues --   -0.45105  -0.44954  -0.44886  -0.44741  -0.44655
 Alpha  occ. eigenvalues --   -0.44474  -0.44337  -0.44314  -0.44078  -0.44072
 Alpha  occ. eigenvalues --   -0.44033  -0.44021  -0.43884  -0.43740  -0.43619
 Alpha  occ. eigenvalues --   -0.43460  -0.43014  -0.42708  -0.42629  -0.42416
 Alpha  occ. eigenvalues --   -0.42255  -0.41718  -0.41700  -0.41417  -0.40988
 Alpha  occ. eigenvalues --   -0.40366  -0.39858  -0.39765  -0.39536  -0.39274
 Alpha  occ. eigenvalues --   -0.39108  -0.39033  -0.38725  -0.38437  -0.38373
 Alpha  occ. eigenvalues --   -0.38288  -0.37670  -0.37013  -0.36634  -0.36212
 Alpha  occ. eigenvalues --   -0.36173  -0.35726  -0.35253  -0.33535  -0.33434
 Alpha  occ. eigenvalues --   -0.33132  -0.33082  -0.32977  -0.32532  -0.32410
 Alpha  occ. eigenvalues --   -0.32098  -0.32023  -0.31782  -0.26360  -0.26184
 Alpha  occ. eigenvalues --   -0.22807  -0.22772
 Alpha virt. eigenvalues --   -0.07075  -0.06842  -0.00475   0.00171   0.01795
 Alpha virt. eigenvalues --    0.02342   0.04217   0.04532   0.04698   0.05044
 Alpha virt. eigenvalues --    0.06929   0.07422   0.07631   0.07788   0.07816

 Mulliken charges:
               1
     1  Mg   0.932656
     2  C   -0.005200
     3  C   -0.105978
     4  C   -0.037042
     5  C   -0.077691
     6  N   -0.442507
     7  C   -0.001010
     8  C   -0.039991
     9  C   -0.135876
    10  C    0.130699
    11  C    0.033342
    12  C    0.070037
    13  C   -0.138249
    14  H    0.000425
    15  N   -0.460797
    16  C    0.168979
    17  C   -0.150616
    18  C   -0.078092
    19  C    0.134105
    20  C    0.056769
    21  C    0.061826
    22  O   -0.237552
    23  C   -0.054682
    24  N   -0.260578
    25  C    0.017979
    26  C   -0.075289
    27  C   -0.047644
    28  C    0.027246
    29  C   -0.001697
    30  C   -0.063181
    31  C   -0.056321
    32  N   -0.406616
    33  C    0.141237
    34  C   -0.240957
    35  C   -0.006236
    36  C    0.120200
    37  C    0.082688
    38  C    0.139171
    39  O   -0.194546
    40  C   -0.109457
    41  C    0.275793
    42  O   -0.258947
    43  O   -0.370091
    44  C    0.139917
    45  H    0.001445
    46  H    0.024220
    47  H    0.003119
    48  H    0.030722
    49  H    0.027092
    50  H    0.043613
    51  H    0.045735
    52  H    0.050242
    53  H    0.039547
    54  H    0.041767
    55  H    0.043678
    56  H    0.061469
    57  H    0.055292
    58  H    0.062181
    59  H    0.016765
    60  H    0.079290
    61  H    0.051744
    62  H    0.041926
    63  H    0.050140
    64  H    0.039115
    65  H    0.042681
    66  H    0.048645
    67  H    0.040753
    68  H    0.041675
    69  H    0.020608
    70  H    0.044584
    71  H    0.039762
    72  H    0.038681
    73  H    0.047205
    74  H    0.040310
    75  H    0.066364
    76  H    0.068340
    77  H    0.059220
    78  H    0.056465
    79  H    0.059381
    80  Mg   0.971128
    81  C   -0.073580
    82  C   -0.088610
    83  C   -0.070168
    84  C   -0.087620
    85  N   -0.366383
    86  C    0.021397
    87  C   -0.041414
    88  C   -0.131904
    89  C    0.060020
    90  C    0.036692
    91  C   -0.025934
    92  C   -0.106480
    93  H    0.042496
    94  N   -0.438686
    95  C    0.155359
    96  C   -0.198989
    97  C   -0.050378
    98  C    0.165434
    99  C    0.110688
   100  C    0.017572
   101  O   -0.237177
   102  C   -0.009429
   103  N   -0.356999
   104  C    0.045823
   105  C   -0.080149
   106  C   -0.111501
   107  C    0.037542
   108  C    0.042920
   109  C    0.014715
   110  C   -0.045839
   111  N   -0.434548
   112  C    0.147808
   113  C   -0.205320
   114  C   -0.044378
   115  C    0.163195
   116  C    0.102124
   117  C    0.124206
   118  O   -0.206771
   119  C   -0.072808
   120  C    0.257848
   121  O   -0.210039
   122  O   -0.375026
   123  C    0.128985
   124  H   -0.001879
   125  H   -0.030236
   126  H    0.001503
   127  H    0.040352
   128  H    0.052729
   129  H    0.037818
   130  H    0.045346
   131  H    0.046063
   132  H    0.017909
   133  H    0.023257
   134  H    0.051918
   135  H    0.057216
   136  H    0.066230
   137  H    0.021465
   138  H    0.056106
   139  H    0.066243
   140  H    0.044797
   141  H    0.054284
   142  H    0.034050
   143  H    0.029458
   144  H    0.040494
   145  H    0.046142
   146  H    0.027702
   147  H    0.057306
   148  H    0.024615
   149  H    0.038690
   150  H    0.024814
   151  H    0.035829
   152  H    0.069324
   153  H    0.037687
   154  H    0.057266
   155  H    0.064771
   156  H    0.073311
   157  H    0.055858
   158  H    0.055740
 Sum of Mulliken charges =  -0.00000

 Dipole moment (field-independent basis, Debye):
    X=             -0.1736    Y=              2.9477    Z=             -2.6594  Tot=              3.9738
 Quadrupole moment (field-independent basis, Debye-Ang):
   XX=           -469.3428   YY=           -518.4931   ZZ=           -487.9926
   XY=             92.1710   XZ=             10.8876   YZ=            -35.6248

 Normal termination of Gaussian 16 at Fri Sep 17 12:21:39 2021.
