 Gaussian 16, Revision A.03,
 Gaussian 16:  ES64L-G16RevA.03 25-Dec-2016

 --------------------------------
 #p wB97XD/Def2SVP td=(nstates=5)
 --------------------------------

 --------------------------------
 TDDFT excited states in gaussian
 --------------------------------
 Symbolic Z-matrix:
 Charge =  0 Multiplicity = 1

                         Standard orientation:
 ---------------------------------------------------------------------
 Center     Atomic      Atomic             Coordinates (Angstroms)
 Number     Number       Type             X           Y           Z
 ---------------------------------------------------------------------
      1         12           0       -9.383182   -1.047600    0.568824
      2          6           0      -10.189733    2.157489   -0.675003
      3          6           0       -8.233079    0.372212    3.456653
      4          6           0       -8.062029   -3.966950    1.344737
      5          6           0      -10.147650   -2.345319   -2.643241
      6          7           0       -9.349426    1.041245    1.325468
      7          6           0       -9.728494    2.115766    0.662233
      8          6           0       -9.857732    3.262530    1.648452
      9          6           0       -8.857306    2.861222    2.799918
     10          6           0       -8.779305    1.311982    2.531682
     11          6           0       -7.516530    3.684587    2.709696
     12          6           0      -11.287582    3.383310    2.235314
     13          6           0      -11.662190    4.801124    2.854489
     14          1           0      -10.658668    5.956621    2.898396
     15          7           0       -8.498501   -1.741879    2.232554
     16          6           0       -8.144968   -1.030728    3.407889
     17          6           0       -7.594136   -1.997716    4.385963
     18          6           0       -7.469232   -3.269506    3.719799
     19          6           0       -8.014924   -3.079458    2.358294
     20          6           0       -7.249543   -1.649719    5.791049
     21          6           0       -6.934845   -4.678532    4.188840
     22          8           0       -6.987255   -5.705868    3.499013
     23          6           0       -6.193505   -4.759671    5.491747
     24          7           0       -9.030175   -2.894427   -0.550678
     25          6           0       -8.520997   -3.958859    0.010460
     26          6           0       -8.469427   -5.181806   -0.861810
     27          6           0       -9.142934   -4.669554   -2.183284
     28          6           0       -9.562049   -3.226221   -1.758683
     29          6           0       -7.057648   -5.771090   -0.933445
     30          6           0      -10.348556   -5.481056   -2.640539
     31          6           0      -10.484319   -5.733136   -4.184959
     32          7           0      -10.120958   -0.322141   -1.338545
     33          6           0      -10.419395   -0.996328   -2.538862
     34          6           0      -11.061752   -0.087313   -3.424652
     35          6           0      -10.850735    1.202660   -2.841350
     36          6           0      -10.335680    1.004653   -1.585330
     37          6           0      -11.821902   -0.461303   -4.664710
     38          6           0      -11.085422    2.666011   -2.885680
     39          8           0      -11.574449    3.351543   -3.759384
     40          6           0      -10.415432    3.308326   -1.579414
     41          6           0      -11.155426    4.534379   -1.154800
     42          8           0      -12.299841    4.596288   -0.813990
     43          8           0      -10.359006    5.686458   -1.293655
     44          6           0      -11.067294    6.946568   -1.603334
     45          1           0       -7.675254    0.762389    4.310997
     46          1           0       -7.786435   -5.002764    1.550598
     47          1           0      -10.443494   -2.792333   -3.594692
     48          1           0       -9.685350    4.138737    1.023525
     49          1           0       -9.289874    3.035070    3.785765
     50          1           0       -7.544248    4.358075    1.853760
     51          1           0       -6.777213    2.932003    2.435516
     52          1           0       -7.297805    4.298586    3.583436
     53          1           0      -11.311941    2.638585    3.031910
     54          1           0      -11.981971    3.097968    1.445139
     55          1           0      -11.993881    4.573927    3.868778
     56          1           0      -12.553175    5.112441    2.308669
     57          1           0       -7.560788   -0.685541    6.191414
     58          1           0       -6.173331   -1.630016    5.960448
     59          1           0       -7.756741   -2.416710    6.376879
     60          1           0       -6.835044   -4.912628    6.359449
     61          1           0       -5.695447   -3.789617    5.468340
     62          1           0       -5.461602   -5.557574    5.369209
     63          1           0       -9.135427   -5.860747   -0.329441
     64          1           0       -8.464980   -4.618321   -3.034367
     65          1           0       -6.265684   -5.044843   -0.747952
     66          1           0       -6.941943   -6.105087   -1.963785
     67          1           0       -6.912186   -6.601146   -0.241755
     68          1           0      -11.280479   -5.007893   -2.331586
     69          1           0      -10.325324   -6.364103   -2.002130
     70          1           0       -9.748294   -5.160616   -4.749138
     71          1           0      -11.478423   -5.360931   -4.431713
     72          1           0      -10.433957   -6.756758   -4.557575
     73          1           0      -11.158153   -1.137076   -5.204247
     74          1           0      -12.065247    0.376488   -5.318410
     75          1           0      -12.711183   -1.032633   -4.396613
     76          1           0       -9.456171    3.740935   -1.861808
     77          1           0      -10.926618    7.622740   -0.759935
     78          1           0      -12.126715    6.787407   -1.807312
     79          1           0      -10.573579    7.338767   -2.492413
     80         12           0        9.591218   -0.498382   -0.121212
     81          6           0        7.835104    2.586566   -0.005577
     82          6           0       12.383668    1.328175    1.052640
     83          6           0       11.422113   -3.169525   -0.517643
     84          6           0        6.783636   -1.982155   -1.539836
     85          7           0       10.068432    1.754818    0.460943
     86          6           0        9.119247    2.746660    0.498242
     87          6           0        9.633167    4.044028    1.099117
     88          6           0       11.152539    3.630110    1.309891
     89          6           0       11.217019    2.135314    0.960458
     90          6           0       12.085568    4.570169    0.552290
     91          6           0        8.894380    4.367503    2.416341
     92          6           0        8.589133    5.875517    2.758745
     93          1           0        9.423882    6.967237    2.048706
     94          7           0       11.613012   -0.906487    0.290591
     95          6           0       12.596263    0.000466    0.687026
     96          6           0       13.863883   -0.733593    0.827062
     97          6           0       13.562436   -2.085889    0.460832
     98          6           0       12.131261   -2.076246    0.102134
     99          6           0       15.104798   -0.104114    1.176883
    100          6           0       14.498494   -3.289528    0.418364
    101          8           0       14.111637   -4.385827   -0.016630
    102          6           0       15.831989   -3.232619    1.053872
    103          7           0        9.191299   -2.293361   -1.014210
    104          6           0       10.090431   -3.279481   -0.959211
    105          6           0        9.555932   -4.567494   -1.665760
    106          6           0        8.036017   -4.235975   -1.803193
    107          6           0        7.960924   -2.779796   -1.466135
    108          6           0       10.306922   -4.934879   -2.995986
    109          6           0        7.321613   -5.115282   -0.706990
    110          6           0        7.027865   -4.523196    0.714459
    111          7           0        7.665449    0.088311   -0.580249
    112          6           0        6.628265   -0.649172   -1.179476
    113          6           0        5.473624    0.259272   -1.389013
    114          6           0        5.941909    1.508307   -0.998323
    115          6           0        7.219944    1.409251   -0.490374
    116          6           0        4.330624   -0.175762   -2.173055
    117          6           0        5.565216    2.919518   -1.023448
    118          8           0        4.532689    3.415940   -1.459514
    119          6           0        6.805849    3.710151   -0.392931
    120          6           0        7.337840    4.718614   -1.341464
    121          8           0        8.266675    4.555356   -2.127424
    122          8           0        6.616507    5.917631   -1.187454
    123          6           0        6.874393    7.067766   -2.024117
    124          1           0       13.209313    1.744852    1.633963
    125          1           0       11.971788   -4.102941   -0.658358
    126          1           0        5.958151   -2.568797   -1.947627
    127          1           0        9.536378    4.889930    0.418050
    128          1           0       11.377604    3.850217    2.353085
    129          1           0       12.850442    5.049046    1.162630
    130          1           0       11.607047    5.370937   -0.011576
    131          1           0       12.660353    3.945192   -0.132468
    132          1           0        9.426444    3.950693    3.271404
    133          1           0        7.980882    3.788888    2.274804
    134          1           0        8.799532    6.074651    3.809013
    135          1           0        7.502387    5.955520    2.733056
    136          1           0       15.505500   -0.669538    2.018461
    137          1           0       14.990740    0.977909    1.235090
    138          1           0       15.654185   -0.236960    0.244347
    139          1           0       16.551265   -2.625146    0.503752
    140          1           0       16.258289   -4.235034    1.088085
    141          1           0       15.721085   -2.712143    2.004701
    142          1           0        9.817311   -5.285491   -0.888382
    143          1           0        7.643179   -4.526499   -2.777876
    144          1           0       11.075940   -5.681156   -2.796088
    145          1           0       10.658881   -3.997002   -3.424436
    146          1           0        9.549462   -5.354172   -3.658005
    147          1           0        7.770704   -6.108603   -0.695402
    148          1           0        6.289977   -5.146887   -1.058719
    149          1           0        7.311346   -5.333933    1.384986
    150          1           0        5.971406   -4.305329    0.876294
    151          1           0        7.614673   -3.651718    1.002751
    152          1           0        4.695378   -0.628554   -3.094146
    153          1           0        3.776112    0.725959   -2.434870
    154          1           0        3.629658   -0.743298   -1.561569
    155          1           0        6.364882    4.220615    0.463828
    156          1           0        6.197781    7.144436   -2.874897
    157          1           0        7.941815    7.198330   -2.202703
    158          1           0        6.704929    7.875071   -1.311055
 ---------------------------------------------------------------------

 SCF Done:  E(RwB97XD) =  -4070.59720404     A.U. after   19 cycles

 Excitation energies and oscillator strengths:

 Excited State   1:      Singlet-A      1.6999 eV  729.38 nm  f=0.3877  <S**2>=0.000
     309 -> 316        0.19448
     312 -> 314        0.67881
     309 <- 316        0.11674
 This state for optimization and/or second-order correction.
 Total Energy, E(TD-HF/TD-DFT) =  -4070.53473554
 Copying the excited state density for this state as the 1-particle RhoCI density.

 Excited State   2:      Singlet-A      1.7658 eV  702.15 nm  f=0.3607  <S**2>=0.000
     310 -> 315        0.19120
     311 -> 313        0.67820
     310 <- 315        0.11013

 Excited State   3:      Singlet-A      2.1189 eV  585.15 nm  f=0.0921  <S**2>=0.000
     310 -> 313        0.63991
     311 -> 315       -0.27463

 Excited State   4:      Singlet-A      2.2206 eV  558.35 nm  f=0.0700  <S**2>=0.000
     309 -> 314        0.62139
     312 -> 316       -0.32318

 Excited State   5:      Singlet-A      3.5371 eV  350.52 nm  f=0.0000  <S**2>=0.000
     312 -> 313        0.70690

 The electronic state is 1-A.
 Alpha  occ. eigenvalues --  -46.94873 -46.94762 -19.29243 -19.28349 -19.25338
 Alpha  occ. eigenvalues --  -19.24833 -19.24370 -19.24336 -19.23855 -19.23212
 Alpha  occ. eigenvalues --  -14.46782 -14.46412 -14.46213 -14.45882 -14.44335
 Alpha  occ. eigenvalues --  -14.44331 -14.43561 -14.42456 -10.43350 -10.42249
 Alpha  occ. eigenvalues --  -10.40775 -10.39408 -10.39336 -10.38649 -10.36225
 Alpha  occ. eigenvalues --  -10.35620 -10.35098 -10.34911 -10.34853 -10.34801
 Alpha  occ. eigenvalues --  -10.34798 -10.34580 -10.34547 -10.34496 -10.34483
 Alpha  occ. eigenvalues --  -10.34465 -10.34249 -10.33950 -10.33562 -10.33334
 Alpha  occ. eigenvalues --  -10.33273 -10.33267 -10.33202 -10.32952 -10.32248
 Alpha  occ. eigenvalues --  -10.32209 -10.32135 -10.32074 -10.31888 -10.31881
 Alpha  occ. eigenvalues --  -10.31841 -10.31741 -10.31701 -10.31646 -10.31630
 Alpha  occ. eigenvalues --  -10.31560 -10.31550 -10.31497 -10.31489 -10.31460
 Alpha  occ. eigenvalues --  -10.31456 -10.31395 -10.31286 -10.31237 -10.31106
 Alpha  occ. eigenvalues --  -10.30814 -10.30747 -10.30630 -10.30444 -10.30443
 Alpha  occ. eigenvalues --  -10.30361 -10.30055 -10.30023 -10.29869 -10.29813
 Alpha  occ. eigenvalues --  -10.29650 -10.29613 -10.29572 -10.29435 -10.29414
 Alpha  occ. eigenvalues --  -10.29307 -10.29241 -10.29159 -10.28950 -10.28721
 Alpha  occ. eigenvalues --  -10.28263  -3.20862  -3.20673  -1.94459  -1.94275
 Alpha  occ. eigenvalues --   -1.93997  -1.93819  -1.93795  -1.93634  -1.17192
 Alpha  occ. eigenvalues --   -1.16831  -1.12696  -1.11902  -1.11589  -1.11494
 Alpha  occ. eigenvalues --   -1.09457  -1.09052  -1.07002  -1.06846  -1.06399
 Alpha  occ. eigenvalues --   -1.06135  -1.05122  -1.03549  -1.03405  -1.02973
 Alpha  occ. eigenvalues --   -0.93970  -0.93620  -0.91910  -0.91061  -0.90752
 Alpha  occ. eigenvalues --   -0.90575  -0.90292  -0.89567  -0.89429  -0.89343
 Alpha  occ. eigenvalues --   -0.89071  -0.88678  -0.88135  -0.87210  -0.86101
 Alpha  occ. eigenvalues --   -0.85808  -0.85476  -0.85242  -0.84758  -0.84622
 Alpha  occ. eigenvalues --   -0.83908  -0.83491  -0.82799  -0.82464  -0.82447
 Alpha  occ. eigenvalues --   -0.81691  -0.81000  -0.80520  -0.79055  -0.78990
 Alpha  occ. eigenvalues --   -0.78809  -0.78174  -0.77735  -0.77182  -0.76976
 Alpha  occ. eigenvalues --   -0.76775  -0.74349  -0.74135  -0.73578  -0.73323
 Alpha  occ. eigenvalues --   -0.71655  -0.71184  -0.70908  -0.70498  -0.69874
 Alpha  occ. eigenvalues --   -0.69124  -0.68784  -0.68535  -0.67853  -0.66997
 Alpha  occ. eigenvalues --   -0.66974  -0.66678  -0.66469  -0.66441  -0.66214
 Alpha  occ. eigenvalues --   -0.65333  -0.63550  -0.62904  -0.62405  -0.62171
 Alpha  occ. eigenvalues --   -0.61351  -0.61088  -0.60980  -0.60467  -0.60052
 Alpha  occ. eigenvalues --   -0.59910  -0.59880  -0.59425  -0.59180  -0.58664
 Alpha  occ. eigenvalues --   -0.58362  -0.58317  -0.57505  -0.57291  -0.57231
 Alpha  occ. eigenvalues --   -0.56908  -0.56217  -0.56046  -0.55978  -0.55781
 Alpha  occ. eigenvalues --   -0.55590  -0.55332  -0.55140  -0.55035  -0.54950
 Alpha  occ. eigenvalues --   -0.54741  -0.54640  -0.54238  -0.54026  -0.53816
 Alpha  occ. eigenvalues --   -0.53753  -0.53576  -0.53479  -0.53263  -0.53174
 Alpha  occ. eigenvalues --   -0.53061  -0.52803  -0.52766  -0.52534  -0.52353
 Alpha  occ. eigenvalues --   -0.51960  -0.51935  -0.51841  -0.51741  -0.51579
 Alpha  occ. eigenvalues --   -0.51073  -0.50942  -0.50867  -0.50726  -0.50546
 Alpha  occ. eigenvalues --   -0.50479  -0.50364  -0.50143  -0.50065  -0.49830
 Alpha  occ. eigenvalues --   -0.49623  -0.49585  -0.49370  -0.49337  -0.49117
 Alpha  occ. eigenvalues --   -0.48893  -0.48820  -0.48659  -0.48451  -0.48343
 Alpha  occ. eigenvalues --   -0.48064  -0.47975  -0.47974  -0.47396  -0.47337
 Alpha  occ. eigenvalues --   -0.47236  -0.46968  -0.46846  -0.46652  -0.46543
 Alpha  occ. eigenvalues --   -0.46249  -0.46194  -0.46060  -0.46028  -0.45861
 Alpha  occ. eigenvalues --   -0.45787  -0.45594  -0.45540  -0.45412  -0.45325
 Alpha  occ. eigenvalues --   -0.45221  -0.44947  -0.44912  -0.44608  -0.44476
 Alpha  occ. eigenvalues --   -0.44424  -0.44106  -0.43894  -0.43829  -0.43726
 Alpha  occ. eigenvalues --   -0.43497  -0.43387  -0.43359  -0.43161  -0.42949
 Alpha  occ. eigenvalues --   -0.42932  -0.42791  -0.42614  -0.42249  -0.41921
 Alpha  occ. eigenvalues --   -0.41808  -0.41789  -0.41320  -0.40869  -0.40580
 Alpha  occ. eigenvalues --   -0.40550  -0.39752  -0.39604  -0.39491  -0.39402
 Alpha  occ. eigenvalues --   -0.39146  -0.38661  -0.38265  -0.38140  -0.37680
 Alpha  occ. eigenvalues --   -0.37564  -0.37229  -0.36152  -0.36104  -0.36044
 Alpha  occ. eigenvalues --   -0.35673  -0.35560  -0.35100  -0.33833  -0.33306
 Alpha  occ. eigenvalues --   -0.33228  -0.33187  -0.32816  -0.32427  -0.32399
 Alpha  occ. eigenvalues --   -0.31916  -0.31511  -0.30279  -0.25851  -0.25554
 Alpha  occ. eigenvalues --   -0.23045  -0.22628
 Alpha virt. eigenvalues --   -0.06710  -0.06524   0.00012   0.00166   0.01987
 Alpha virt. eigenvalues --    0.02259   0.04244   0.04992   0.06137   0.06322
 Alpha virt. eigenvalues --    0.07051   0.07105   0.07627   0.08223   0.08266

 Mulliken charges:
               1
     1  Mg   0.949788
     2  C    0.045981
     3  C   -0.095055
     4  C   -0.065687
     5  C   -0.086055
     6  N   -0.314116
     7  C    0.001266
     8  C   -0.120506
     9  C   -0.103297
    10  C    0.089513
    11  C    0.034961
    12  C   -0.006484
    13  C   -0.094819
    14  H    0.041612
    15  N   -0.554634
    16  C    0.176112
    17  C   -0.150987
    18  C   -0.082887
    19  C    0.208253
    20  C    0.035205
    21  C    0.081984
    22  O   -0.237524
    23  C   -0.013303
    24  N   -0.304499
    25  C   -0.029765
    26  C   -0.047719
    27  C   -0.103707
    28  C    0.058427
    29  C    0.030200
    30  C   -0.003838
    31  C   -0.057109
    32  N   -0.438344
    33  C    0.134250
    34  C   -0.193251
    35  C   -0.035189
    36  C    0.077487
    37  C    0.080529
    38  C    0.135439
    39  O   -0.202620
    40  C   -0.093526
    41  C    0.221043
    42  O   -0.208427
    43  O   -0.410134
    44  C    0.136806
    45  H    0.001604
    46  H    0.012702
    47  H   -0.022135
    48  H    0.032179
    49  H    0.035954
    50  H    0.038802
    51  H    0.033529
    52  H    0.048280
    53  H    0.023279
    54  H    0.054433
    55  H    0.041591
    56  H    0.065283
    57  H    0.042913
    58  H    0.065315
    59  H    0.060466
    60  H    0.079827
    61  H    0.041799
    62  H    0.064907
    63  H    0.042044
    64  H    0.040273
    65  H    0.046856
    66  H    0.032976
    67  H    0.056017
    68  H    0.030750
    69  H    0.022172
    70  H    0.036104
    71  H    0.038466
    72  H    0.045486
    73  H    0.035986
    74  H    0.058429
    75  H    0.050729
    76  H    0.080789
    77  H    0.051910
    78  H    0.069014
    79  H    0.055897
    80  Mg   0.958611
    81  C    0.014175
    82  C   -0.115850
    83  C   -0.071690
    84  C   -0.091921
    85  N   -0.268472
    86  C   -0.050136
    87  C   -0.080380
    88  C   -0.081165
    89  C    0.061286
    90  C    0.017806
    91  C   -0.000813
    92  C   -0.101172
    93  H    0.042144
    94  N   -0.420335
    95  C    0.160389
    96  C   -0.187165
    97  C   -0.089510
    98  C    0.145913
    99  C    0.087475
   100  C    0.060853
   101  O   -0.251522
   102  C   -0.004487
   103  N   -0.411388
   104  C    0.041729
   105  C   -0.106367
   106  C   -0.056899
   107  C    0.053274
   108  C    0.041986
   109  C   -0.057081
   110  C   -0.040258
   111  N   -0.481767
   112  C    0.164312
   113  C   -0.192919
   114  C   -0.021554
   115  C    0.159696
   116  C    0.078050
   117  C    0.119391
   118  O   -0.196774
   119  C   -0.104449
   120  C    0.295965
   121  O   -0.245527
   122  O   -0.393184
   123  C    0.148779
   124  H    0.010756
   125  H    0.016652
   126  H   -0.005084
   127  H    0.046089
   128  H    0.028802
   129  H    0.025244
   130  H    0.045401
   131  H    0.027160
   132  H    0.030712
   133  H    0.034194
   134  H    0.043984
   135  H    0.052094
   136  H    0.062319
   137  H    0.037775
   138  H    0.061651
   139  H    0.050678
   140  H    0.063492
   141  H    0.049793
   142  H    0.039248
   143  H    0.036227
   144  H    0.056288
   145  H    0.049600
   146  H    0.029679
   147  H    0.044677
   148  H    0.027381
   149  H    0.033303
   150  H    0.043275
   151  H    0.047349
   152  H    0.057990
   153  H    0.044597
   154  H    0.045552
   155  H    0.074805
   156  H    0.071944
   157  H    0.047377
   158  H    0.039945
 Sum of Mulliken charges =  -0.00000

 Dipole moment (field-independent basis, Debye):
    X=              6.5008    Y=             -2.3885    Z=              7.5855  Tot=             10.2715
 Quadrupole moment (field-independent basis, Debye-Ang):
   XX=           -502.9077   YY=           -489.6637   ZZ=           -484.9603
   XY=             63.0946   XZ=             -3.8737   YZ=             29.9435

 Normal termination of Gaussian 16 at Sat Sep 18 23:41:58 2021.
