 Gaussian 16, Revision A.03,
 Gaussian 16:  ES64L-G16RevA.03 25-Dec-2016

 --------------------------------
 #p wB97XD/Def2SVP td=(nstates=5)
 --------------------------------

 --------------------------------
 TDDFT excited states in gaussian
 --------------------------------
 Symbolic Z-matrix:
 Charge =  0 Multiplicity = 1

                         Standard orientation:
 ---------------------------------------------------------------------
 Center     Atomic      Atomic             Coordinates (Angstroms)
 Number     Number       Type             X           Y           Z
 ---------------------------------------------------------------------
      1         12           0       20.507103   -0.818123   -0.110530
      2          6           0       22.419652    1.989241   -0.411388
      3          6           0       17.933125    1.184219    1.260303
      4          6           0       18.685101   -3.577603    0.417500
      5          6           0       23.051178   -2.650199   -1.514080
      6          7           0       20.311384    1.257468    0.659662
      7          6           0       21.220464    2.260778    0.300496
      8          6           0       20.752103    3.666163    0.773241
      9          6           0       19.360965    3.278945    1.341566
     10          6           0       19.190496    1.783987    1.140640
     11          6           0       18.918943    3.690024    2.810460
     12          6           0       20.666368    4.804184   -0.336763
     13          6           0       20.153433    6.147624    0.247661
     14          1           0       21.242998    7.215601    0.353102
     15          7           0       18.508844   -1.140346    0.700836
     16          6           0       17.577868   -0.159744    0.968103
     17          6           0       16.394330   -0.860527    1.452400
     18          6           0       16.630905   -2.251567    1.207890
     19          6           0       17.970935   -2.393864    0.732146
     20          6           0       15.227070   -0.113597    1.972224
     21          6           0       15.604246   -3.374583    1.589192
     22          8           0       15.876610   -4.592231    1.580233
     23          6           0       14.225784   -3.001714    2.069087
     24          7           0       20.814320   -2.719977   -0.445436
     25          6           0       19.895188   -3.760118   -0.130660
     26          6           0       20.553560   -5.116442   -0.243886
     27          6           0       21.655130   -4.789522   -1.250293
     28          6           0       21.849487   -3.284964   -1.126809
     29          6           0       21.111136   -5.641745    1.121551
     30          6           0       21.244995   -5.098330   -2.707589
     31          6           0       21.443184   -6.496951   -3.227269
     32          7           0       22.419728   -0.513285   -0.817256
     33          6           0       23.282712   -1.289118   -1.492858
     34          6           0       24.454153   -0.528696   -1.814303
     35          6           0       24.174290    0.767566   -1.437203
     36          6           0       22.892265    0.741998   -0.866497
     37          6           0       25.625181   -1.119861   -2.518686
     38          6           0       24.699149    2.066004   -1.425829
     39          8           0       25.744286    2.520132   -1.849899
     40          6           0       23.551915    2.947576   -0.741559
     41          6           0       24.144199    3.629368    0.440637
     42          8           0       24.530788    3.114879    1.461730
     43          8           0       24.074992    4.958266    0.317689
     44          6           0       24.599041    5.768981    1.483611
     45          1           0       17.137121    1.883081    1.525133
     46          1           0       18.100070   -4.485503    0.577454
     47          1           0       23.848090   -3.137051   -2.079458
     48          1           0       21.406003    3.993148    1.581757
     49          1           0       18.580607    3.704745    0.710114
     50          1           0       17.870944    3.960770    2.941622
     51          1           0       19.639482    4.392640    3.229471
     52          1           0       18.995139    2.761867    3.376711
     53          1           0       20.033427    4.358751   -1.103293
     54          1           0       21.660437    4.938860   -0.762934
     55          1           0       19.617363    5.967066    1.179397
     56          1           0       19.431431    6.538740   -0.468565
     57          1           0       15.158806   -0.303825    3.043494
     58          1           0       14.387129   -0.399590    1.339110
     59          1           0       15.343366    0.956206    1.798137
     60          1           0       13.632756   -3.902284    2.228465
     61          1           0       13.772177   -2.516574    1.203716
     62          1           0       14.163577   -2.345919    2.937118
     63          1           0       19.853439   -5.864513   -0.616832
     64          1           0       22.599840   -5.288745   -1.035863
     65          1           0       22.017614   -5.109052    1.406375
     66          1           0       21.299774   -6.714171    1.065670
     67          1           0       20.313489   -5.467848    1.842942
     68          1           0       21.698802   -4.419734   -3.428738
     69          1           0       20.196095   -4.838741   -2.851532
     70          1           0       20.459210   -6.860653   -3.521891
     71          1           0       21.692092   -7.058706   -2.326816
     72          1           0       22.215604   -6.592384   -3.990567
     73          1           0       25.568989   -0.912615   -3.586619
     74          1           0       25.883575   -2.159274   -2.313995
     75          1           0       26.484388   -0.553089   -2.159613
     76          1           0       23.212726    3.687809   -1.466566
     77          1           0       24.122962    5.376374    2.382385
     78          1           0       24.332527    6.824738    1.427637
     79          1           0       25.680673    5.637131    1.519295
     80         12           0      -21.061040   -0.575555   -0.037905
     81          6           0      -20.065935    2.866756   -0.624623
     82          6           0      -20.482740    0.061703    3.221598
     83          6           0      -21.882058   -3.623817    0.448731
     84          6           0      -21.262609   -1.033035   -3.543180
     85          7           0      -20.348560    1.375198    1.182947
     86          6           0      -20.112255    2.619913    0.733839
     87          6           0      -19.910890    3.584432    1.918208
     88          6           0      -19.609198    2.479065    3.034308
     89          6           0      -20.225201    1.260616    2.487057
     90          6           0      -18.211222    2.414094    3.626263
     91          6           0      -21.190860    4.418497    2.099665
     92          6           0      -20.926433    5.791548    2.784826
     93          1           0      -19.462126    6.398237    2.991337
     94          7           0      -21.224027   -1.676081    1.644046
     95          6           0      -20.860291   -1.286004    2.918674
     96          6           0      -21.032437   -2.432881    3.805166
     97          6           0      -21.518574   -3.505013    3.016868
     98          6           0      -21.547945   -2.940162    1.637964
     99          6           0      -20.734659   -2.420570    5.238388
    100          6           0      -21.980320   -4.992063    3.454514
    101          8           0      -22.535504   -5.728933    2.686273
    102          6           0      -22.009507   -5.422867    4.931945
    103          7           0      -21.243231   -2.170288   -1.398797
    104          6           0      -21.747155   -3.305724   -0.921998
    105          6           0      -22.132026   -4.306718   -1.978008
    106          6           0      -22.305069   -3.341397   -3.176045
    107          6           0      -21.399968   -2.153301   -2.700250
    108          6           0      -21.018621   -5.417360   -2.269431
    109          6           0      -23.795151   -2.934305   -3.536881
    110          6           0      -24.962124   -3.921899   -3.244726
    111          7           0      -20.641827    0.574247   -1.745274
    112          6           0      -20.813517    0.323412   -3.066773
    113          6           0      -20.627637    1.466172   -3.840502
    114          6           0      -20.292738    2.429415   -2.932166
    115          6           0      -20.322830    1.891380   -1.660761
    116          6           0      -20.836168    1.574259   -5.348545
    117          6           0      -19.959097    3.860047   -2.863544
    118          8           0      -19.669026    4.690421   -3.711706
    119          6           0      -19.883995    4.181284   -1.307176
    120          6           0      -18.618634    4.850580   -1.061244
    121          8           0      -17.503874    4.325315   -0.978061
    122          8           0      -18.841735    6.173862   -1.202581
    123          6           0      -17.613266    6.931650   -1.359760
    124          1           0      -20.121167    0.219710    4.239884
    125          1           0      -22.118878   -4.670197    0.649598
    126          1           0      -21.431426   -1.198159   -4.609165
    127          1           0      -19.004729    4.179107    1.802053
    128          1           0      -20.214586    2.760939    3.894709
    129          1           0      -18.195943    2.707943    4.675360
    130          1           0      -17.535871    3.062940    3.068907
    131          1           0      -17.736592    1.436649    3.539770
    132          1           0      -21.826947    3.883626    2.805288
    133          1           0      -21.775871    4.539052    1.188078
    134          1           0      -21.465996    5.882440    3.728087
    135          1           0      -21.571253    6.452856    2.206220
    136          1           0      -20.777670   -1.413145    5.651784
    137          1           0      -19.731857   -2.839821    5.322132
    138          1           0      -21.424597   -3.011496    5.841192
    139          1           0      -22.737548   -4.880044    5.534725
    140          1           0      -20.966838   -5.379984    5.247513
    141          1           0      -22.223481   -6.489730    5.001269
    142          1           0      -23.029988   -4.761815   -1.560778
    143          1           0      -21.879242   -3.728230   -4.101539
    144          1           0      -21.619003   -6.326675   -2.285768
    145          1           0      -20.254953   -5.504066   -1.495721
    146          1           0      -20.510886   -5.338876   -3.229999
    147          1           0      -23.828021   -2.631792   -4.582582
    148          1           0      -23.955470   -2.123669   -2.825834
    149          1           0      -25.320815   -3.794289   -2.223663
    150          1           0      -24.534765   -4.893424   -3.495372
    151          1           0      -25.792733   -3.794949   -3.938178
    152          1           0      -21.604883    0.833637   -5.570398
    153          1           0      -19.960428    1.279545   -5.926015
    154          1           0      -21.161178    2.589451   -5.575548
    155          1           0      -20.724723    4.841383   -1.090078
    156          1           0      -17.778470    7.999788   -1.497875
    157          1           0      -16.874808    6.527114   -2.052150
    158          1           0      -17.044998    6.929266   -0.428978
 ---------------------------------------------------------------------

 SCF Done:  E(RwB97XD) =  -4070.60823420     A.U. after   19 cycles

 Excitation energies and oscillator strengths:

 Excited State   1:      Singlet-A      1.5969 eV  776.39 nm  f=0.3908  <S**2>=0.000
     309 -> 315       -0.16564
     312 -> 313        0.68829
     309 <- 315       -0.11238
 This state for optimization and/or second-order correction.
 Total Energy, E(TD-HF/TD-DFT) =  -4070.54954772
 Copying the excited state density for this state as the 1-particle RhoCI density.

 Excited State   2:      Singlet-A      1.7991 eV  689.15 nm  f=0.3710  <S**2>=0.000
     310 -> 316       -0.19144
     311 -> 314        0.67947
     310 <- 316       -0.11149

 Excited State   3:      Singlet-A      2.1925 eV  565.49 nm  f=0.1417  <S**2>=0.000
     310 -> 314        0.65186
     311 -> 316        0.25614

 Excited State   4:      Singlet-A      2.1950 eV  564.86 nm  f=0.1159  <S**2>=0.000
     309 -> 313        0.63654
     312 -> 315        0.28919

 Excited State   5:      Singlet-A      3.2155 eV  385.58 nm  f=0.0018  <S**2>=0.000
     308 -> 313        0.67721

 The electronic state is 1-A.
 Alpha  occ. eigenvalues --  -46.95700 -46.93851 -19.30151 -19.30113 -19.25601
 Alpha  occ. eigenvalues --  -19.24489 -19.23868 -19.23708 -19.23699 -19.23547
 Alpha  occ. eigenvalues --  -14.47334 -14.46364 -14.46086 -14.45673 -14.44572
 Alpha  occ. eigenvalues --  -14.43477 -14.43434 -14.43212 -10.42378 -10.42040
 Alpha  occ. eigenvalues --  -10.41034 -10.39164 -10.39001 -10.38809 -10.36136
 Alpha  occ. eigenvalues --  -10.36068 -10.35432 -10.35401 -10.34868 -10.34857
 Alpha  occ. eigenvalues --  -10.34708 -10.34523 -10.34271 -10.34025 -10.33664
 Alpha  occ. eigenvalues --  -10.33577 -10.33571 -10.33539 -10.33461 -10.33253
 Alpha  occ. eigenvalues --  -10.33215 -10.33032 -10.33021 -10.32721 -10.32672
 Alpha  occ. eigenvalues --  -10.32650 -10.32365 -10.32269 -10.32147 -10.32059
 Alpha  occ. eigenvalues --  -10.31993 -10.31867 -10.31791 -10.31672 -10.31644
 Alpha  occ. eigenvalues --  -10.31547 -10.31515 -10.31460 -10.31442 -10.31392
 Alpha  occ. eigenvalues --  -10.31348 -10.31315 -10.31289 -10.31156 -10.31139
 Alpha  occ. eigenvalues --  -10.31056 -10.30724 -10.30662 -10.30523 -10.30408
 Alpha  occ. eigenvalues --  -10.30377 -10.30139 -10.30087 -10.29961 -10.29881
 Alpha  occ. eigenvalues --  -10.29675 -10.29589 -10.29510 -10.29490 -10.29468
 Alpha  occ. eigenvalues --  -10.29434 -10.29370 -10.29099 -10.29051 -10.28892
 Alpha  occ. eigenvalues --  -10.27692  -3.21654  -3.20036  -1.95244  -1.94795
 Alpha  occ. eigenvalues --   -1.94604  -1.93635  -1.93180  -1.93011  -1.19101
 Alpha  occ. eigenvalues --   -1.18660  -1.14895  -1.12732  -1.11653  -1.10453
 Alpha  occ. eigenvalues --   -1.09355  -1.08811  -1.07810  -1.07516  -1.07235
 Alpha  occ. eigenvalues --   -1.06736  -1.05930  -1.05428  -1.05093  -1.03974
 Alpha  occ. eigenvalues --   -0.95356  -0.94301  -0.91184  -0.90941  -0.90668
 Alpha  occ. eigenvalues --   -0.90620  -0.90547  -0.89962  -0.89871  -0.89513
 Alpha  occ. eigenvalues --   -0.89114  -0.88835  -0.88481  -0.87493  -0.86305
 Alpha  occ. eigenvalues --   -0.86282  -0.85842  -0.85010  -0.84419  -0.84269
 Alpha  occ. eigenvalues --   -0.83894  -0.83497  -0.83166  -0.82672  -0.82576
 Alpha  occ. eigenvalues --   -0.82074  -0.80636  -0.80340  -0.79477  -0.79142
 Alpha  occ. eigenvalues --   -0.78742  -0.78539  -0.78147  -0.77648  -0.77206
 Alpha  occ. eigenvalues --   -0.77133  -0.75228  -0.74721  -0.73782  -0.73641
 Alpha  occ. eigenvalues --   -0.71603  -0.71428  -0.70927  -0.70720  -0.70218
 Alpha  occ. eigenvalues --   -0.69581  -0.68825  -0.68049  -0.67768  -0.67405
 Alpha  occ. eigenvalues --   -0.67054  -0.66876  -0.66638  -0.66619  -0.66152
 Alpha  occ. eigenvalues --   -0.65670  -0.64104  -0.63786  -0.62882  -0.62208
 Alpha  occ. eigenvalues --   -0.62020  -0.61485  -0.61235  -0.61126  -0.60869
 Alpha  occ. eigenvalues --   -0.60379  -0.60319  -0.59996  -0.59864  -0.59482
 Alpha  occ. eigenvalues --   -0.58595  -0.58528  -0.57997  -0.57409  -0.57154
 Alpha  occ. eigenvalues --   -0.57017  -0.56686  -0.56530  -0.56209  -0.55994
 Alpha  occ. eigenvalues --   -0.55773  -0.55557  -0.55384  -0.55324  -0.54957
 Alpha  occ. eigenvalues --   -0.54864  -0.54827  -0.54648  -0.54225  -0.54190
 Alpha  occ. eigenvalues --   -0.53728  -0.53680  -0.53588  -0.53269  -0.53221
 Alpha  occ. eigenvalues --   -0.53072  -0.52642  -0.52418  -0.52287  -0.52173
 Alpha  occ. eigenvalues --   -0.51943  -0.51925  -0.51830  -0.51677  -0.51655
 Alpha  occ. eigenvalues --   -0.51173  -0.51069  -0.50890  -0.50878  -0.50707
 Alpha  occ. eigenvalues --   -0.50682  -0.50533  -0.50284  -0.50165  -0.49981
 Alpha  occ. eigenvalues --   -0.49805  -0.49685  -0.49435  -0.49429  -0.49325
 Alpha  occ. eigenvalues --   -0.49082  -0.48941  -0.48836  -0.48675  -0.48446
 Alpha  occ. eigenvalues --   -0.48405  -0.48167  -0.47950  -0.47848  -0.47686
 Alpha  occ. eigenvalues --   -0.47442  -0.47360  -0.47218  -0.46824  -0.46650
 Alpha  occ. eigenvalues --   -0.46562  -0.46447  -0.46231  -0.46173  -0.46000
 Alpha  occ. eigenvalues --   -0.45859  -0.45756  -0.45679  -0.45668  -0.45483
 Alpha  occ. eigenvalues --   -0.45269  -0.45264  -0.45192  -0.44906  -0.44804
 Alpha  occ. eigenvalues --   -0.44595  -0.44387  -0.44227  -0.43996  -0.43905
 Alpha  occ. eigenvalues --   -0.43719  -0.43535  -0.43529  -0.43358  -0.43230
 Alpha  occ. eigenvalues --   -0.43098  -0.42823  -0.42547  -0.42296  -0.42287
 Alpha  occ. eigenvalues --   -0.41959  -0.41732  -0.41638  -0.41237  -0.40609
 Alpha  occ. eigenvalues --   -0.40310  -0.40174  -0.40028  -0.40016  -0.39420
 Alpha  occ. eigenvalues --   -0.39388  -0.39031  -0.38666  -0.38663  -0.38567
 Alpha  occ. eigenvalues --   -0.37920  -0.37653  -0.36251  -0.36156  -0.35993
 Alpha  occ. eigenvalues --   -0.35675  -0.35463  -0.34701  -0.33969  -0.33754
 Alpha  occ. eigenvalues --   -0.33677  -0.33287  -0.32846  -0.32806  -0.32426
 Alpha  occ. eigenvalues --   -0.32321  -0.31600  -0.31242  -0.26536  -0.25315
 Alpha  occ. eigenvalues --   -0.23224  -0.22921
 Alpha virt. eigenvalues --   -0.07420  -0.06601   0.00375   0.00826   0.02451
 Alpha virt. eigenvalues --    0.02605   0.04477   0.04753   0.05559   0.06381
 Alpha virt. eigenvalues --    0.06748   0.07304   0.07898   0.08003   0.08392

 Mulliken charges:
               1
     1  Mg   0.970955
     2  C   -0.006083
     3  C   -0.072346
     4  C   -0.076315
     5  C   -0.099611
     6  N   -0.340821
     7  C   -0.009343
     8  C   -0.022425
     9  C   -0.153789
    10  C    0.065392
    11  C    0.013349
    12  C   -0.006034
    13  C   -0.111448
    14  H    0.047867
    15  N   -0.435155
    16  C    0.162719
    17  C   -0.218622
    18  C   -0.077936
    19  C    0.134270
    20  C    0.083963
    21  C    0.066723
    22  O   -0.256653
    23  C   -0.007019
    24  N   -0.468585
    25  C    0.098762
    26  C   -0.069405
    27  C   -0.080646
    28  C    0.140155
    29  C    0.040737
    30  C   -0.043654
    31  C   -0.003961
    32  N   -0.427995
    33  C    0.106730
    34  C   -0.178932
    35  C    0.017694
    36  C    0.137122
    37  C    0.064732
    38  C    0.098799
    39  O   -0.191672
    40  C   -0.123802
    41  C    0.249387
    42  O   -0.247108
    43  O   -0.362878
    44  C    0.139190
    45  H   -0.004136
    46  H    0.019895
    47  H   -0.001749
    48  H    0.044488
    49  H    0.034770
    50  H    0.042265
    51  H    0.043383
    52  H    0.037626
    53  H    0.035450
    54  H    0.054632
    55  H    0.050958
    56  H    0.053014
    57  H    0.065699
    58  H    0.049321
    59  H    0.025689
    60  H    0.051287
    61  H    0.045897
    62  H    0.060860
    63  H    0.028073
    64  H    0.023054
    65  H    0.041804
    66  H    0.042103
    67  H    0.041562
    68  H    0.022347
    69  H    0.020645
    70  H    0.035349
    71  H    0.017876
    72  H    0.051245
    73  H    0.062388
    74  H    0.044986
    75  H    0.051472
    76  H    0.073894
    77  H    0.057968
    78  H    0.059964
    79  H    0.069611
    80  Mg   0.963238
    81  C   -0.002599
    82  C   -0.069569
    83  C   -0.087077
    84  C   -0.078754
    85  N   -0.252418
    86  C   -0.062624
    87  C   -0.061986
    88  C   -0.088874
    89  C    0.000160
    90  C    0.039656
    91  C    0.010084
    92  C   -0.092272
    93  H    0.048472
    94  N   -0.472696
    95  C    0.161450
    96  C   -0.161799
    97  C   -0.088129
    98  C    0.121987
    99  C    0.059425
   100  C    0.076532
   101  O   -0.197366
   102  C   -0.024046
   103  N   -0.321638
   104  C    0.065165
   105  C   -0.102406
   106  C   -0.113744
   107  C    0.058414
   108  C    0.030251
   109  C   -0.010576
   110  C   -0.052919
   111  N   -0.410067
   112  C    0.090376
   113  C   -0.219042
   114  C   -0.051416
   115  C    0.154772
   116  C    0.095798
   117  C    0.138590
   118  O   -0.197806
   119  C   -0.093005
   120  C    0.252594
   121  O   -0.272166
   122  O   -0.331209
   123  C    0.153315
   124  H   -0.010568
   125  H    0.011956
   126  H    0.003376
   127  H    0.040458
   128  H    0.017724
   129  H    0.039837
   130  H    0.042796
   131  H    0.036613
   132  H    0.031811
   133  H    0.048041
   134  H    0.038534
   135  H    0.037348
   136  H    0.044167
   137  H    0.065937
   138  H    0.040932
   139  H    0.086383
   140  H    0.045184
   141  H    0.050832
   142  H    0.043791
   143  H    0.017533
   144  H    0.041961
   145  H    0.045898
   146  H    0.042523
   147  H    0.037404
   148  H    0.027779
   149  H    0.050445
   150  H    0.034823
   151  H    0.039897
   152  H    0.025462
   153  H    0.053042
   154  H    0.055819
   155  H    0.073332
   156  H    0.049832
   157  H    0.060879
   158  H    0.024141
 Sum of Mulliken charges =  -0.00000

 Dipole moment (field-independent basis, Debye):
    X=             -5.5938    Y=              0.2172    Z=              5.0506  Tot=              7.5396
 Quadrupole moment (field-independent basis, Debye-Ang):
   XX=           -555.8036   YY=           -495.5459   ZZ=           -484.9787
   XY=             47.7625   XZ=           -115.3735   YZ=             39.0874

 Normal termination of Gaussian 16 at Mon Sep 20 03:31:09 2021.
