 Gaussian 16, Revision A.03,
 Gaussian 16:  ES64L-G16RevA.03 25-Dec-2016

 --------------------------------
 #p wB97XD/Def2SVP td=(nstates=5)
 --------------------------------

 --------------------------------
 TDDFT excited states in gaussian
 --------------------------------
 Symbolic Z-matrix:
 Charge =  0 Multiplicity = 1

                         Standard orientation:
 ---------------------------------------------------------------------
 Center     Atomic      Atomic             Coordinates (Angstroms)
 Number     Number       Type             X           Y           Z
 ---------------------------------------------------------------------
      1         12           0       20.983548    0.283760    0.166913
      2          6           0       18.020764   -1.558058   -0.117497
      3          6           0       22.466022   -2.254128   -1.655742
      4          6           0       23.768014    2.122570    0.080096
      5          6           0       19.133472    3.055554    1.222734
      6          7           0       20.168187   -1.690737   -0.983944
      7          6           0       18.957450   -2.258637   -0.824325
      8          6           0       18.806419   -3.573497   -1.550933
      9          6           0       20.345921   -3.847430   -1.749493
     10          6           0       21.080720   -2.532491   -1.510031
     11          6           0       20.838910   -4.882452   -0.703316
     12          6           0       17.882179   -3.436575   -2.767489
     13          6           0       17.960641   -2.175554   -3.653012
     14          1           0       18.049311   -2.420052   -5.154758
     15          7           0       22.836413   -0.015181   -0.646893
     16          6           0       23.260440   -1.172700   -1.243944
     17          6           0       24.728842   -1.201633   -1.235016
     18          6           0       25.165728    0.136362   -0.877582
     19          6           0       23.893882    0.792696   -0.446233
     20          6           0       25.563880   -2.367066   -1.890898
     21          6           0       26.593186    0.685308   -0.941541
     22          8           0       27.516383   -0.040786   -1.184959
     23          6           0       26.854065    2.135351   -0.652075
     24          7           0       21.309887    2.419459    0.407417
     25          6           0       22.608487    2.960934    0.435468
     26          6           0       22.631367    4.494523    0.843967
     27          6           0       21.102995    4.727384    1.266399
     28          6           0       20.461574    3.291188    0.989186
     29          6           0       23.691526    5.031684    1.929937
     30          6           0       20.317286    5.923422    0.558487
     31          6           0       19.254760    6.579777    1.571524
     32          7           0       18.978442    0.721433    0.561175
     33          6           0       18.397977    1.865252    1.070423
     34          6           0       16.983401    1.613942    1.317589
     35          6           0       16.741758    0.266756    0.943885
     36          6           0       17.989227   -0.217703    0.407915
     37          6           0       16.016341    2.535406    2.013706
     38          6           0       15.753981   -0.843720    0.746510
     39          8           0       14.550917   -0.853923    0.883020
     40          6           0       16.591492   -2.035587    0.114900
     41          6           0       16.511718   -3.178905    1.088820
     42          8           0       15.506222   -3.920843    1.220373
     43          8           0       17.748439   -3.365898    1.689088
     44          6           0       17.881470   -4.555536    2.461795
     45          1           0       22.956620   -3.095101   -2.150418
     46          1           0       24.638962    2.747895    0.288248
     47          1           0       18.610854    3.863722    1.738918
     48          1           0       18.457677   -4.364041   -0.886729
     49          1           0       20.677333   -4.217804   -2.718645
     50          1           0       21.866354   -4.602035   -0.470049
     51          1           0       20.697248   -5.897183   -1.072583
     52          1           0       20.416501   -4.864884    0.301846
     53          1           0       16.871120   -3.401373   -2.362924
     54          1           0       18.005972   -4.324913   -3.386987
     55          1           0       18.863298   -1.621325   -3.397019
     56          1           0       17.049474   -1.598177   -3.499118
     57          1           0       25.619060   -2.340140   -2.979508
     58          1           0       25.154281   -3.327964   -1.579265
     59          1           0       26.590038   -2.475906   -1.541711
     60          1           0       27.881281    2.419261   -0.883133
     61          1           0       26.652731    2.409354    0.383728
     62          1           0       26.242565    2.624993   -1.410445
     63          1           0       22.842191    4.932657   -0.130856
     64          1           0       21.015101    4.888269    2.340485
     65          1           0       24.583028    5.335222    1.382365
     66          1           0       23.932126    4.265806    2.666740
     67          1           0       23.241259    5.867869    2.465264
     68          1           0       19.679649    5.552294   -0.243795
     69          1           0       21.009011    6.656217    0.142265
     70          1           0       18.238227    6.477939    1.191319
     71          1           0       19.474830    7.640457    1.688881
     72          1           0       19.127500    6.142510    2.561229
     73          1           0       15.968807    3.468827    1.453864
     74          1           0       16.377092    2.751282    3.019598
     75          1           0       15.004414    2.131560    2.040981
     76          1           0       16.000059   -2.339322   -0.748558
     77          1           0       18.912436   -4.647996    2.802581
     78          1           0       17.491420   -5.420828    1.925576
     79          1           0       17.348788   -4.488999    3.410400
     80         12           0      -20.834198    0.651923    0.076142
     81          6           0      -18.827662   -2.204773    0.449485
     82          6           0      -17.995589    2.504345   -0.154425
     83          6           0      -22.811666    3.139661   -0.696627
     84          6           0      -23.529491   -1.668065   -0.489067
     85          7           0      -18.704126    0.186007    0.210649
     86          6           0      -18.104928   -1.034740    0.343216
     87          6           0      -16.607412   -0.869220    0.044223
     88          6           0      -16.373187    0.590023    0.418977
     89          6           0      -17.763489    1.136589    0.041798
     90          6           0      -16.069960    0.784134    1.922643
     91          6           0      -16.288297   -1.157691   -1.469323
     92          6           0      -15.394431   -2.443769   -1.830159
     93          1           0      -15.999195   -3.551097   -2.710019
     94          7           0      -20.456997    2.546349   -0.421512
     95          6           0      -19.215780    3.139942   -0.440032
     96          6           0      -19.396011    4.542144   -0.651655
     97          6           0      -20.799175    4.834422   -0.701501
     98          6           0      -21.445671    3.492987   -0.613913
     99          6           0      -18.206042    5.556292   -0.758355
    100          6           0      -21.414261    6.277469   -0.800880
    101          8           0      -20.705054    7.234544   -0.744938
    102          6           0      -22.859720    6.421715   -0.677787
    103          7           0      -22.818354    0.696395   -0.821769
    104          6           0      -23.446758    1.884080   -0.652947
    105          6           0      -24.949640    1.746760   -0.475713
    106          6           0      -25.201868    0.278358   -0.781975
    107          6           0      -23.745214   -0.297216   -0.702503
    108          6           0      -25.436649    2.145502    0.966402
    109          6           0      -25.944719   -0.129323   -2.140328
    110          6           0      -27.358040   -0.646971   -2.151997
    111          7           0      -21.203153   -1.442691    0.187379
    112          6           0      -22.328923   -2.237839   -0.062908
    113          6           0      -22.023840   -3.647400    0.054064
    114          6           0      -20.669718   -3.667399    0.281510
    115          6           0      -20.171555   -2.324043    0.336543
    116          6           0      -22.982408   -4.748803   -0.132945
    117          6           0      -19.533775   -4.550756    0.496013
    118          8           0      -19.504647   -5.781344    0.620671
    119          6           0      -18.335042   -3.652996    0.719352
    120          6           0      -17.823160   -3.924633    2.129755
    121          8           0      -18.552545   -3.768064    3.106313
    122          8           0      -16.531403   -4.473332    2.114275
    123          6           0      -15.998820   -4.786747    3.413291
    124          1           0      -17.075435    3.085278   -0.066913
    125          1           0      -23.449522    4.022319   -0.629308
    126          1           0      -24.374212   -2.357546   -0.551733
    127          1           0      -16.089597   -1.651745    0.599426
    128          1           0      -15.556223    0.968459   -0.194134
    129          1           0      -15.176105    1.399837    1.828759
    130          1           0      -15.876912   -0.221799    2.296438
    131          1           0      -16.843607    1.262088    2.523705
    132          1           0      -15.722367   -0.306019   -1.846588
    133          1           0      -17.233217   -1.152623   -2.012069
    134          1           0      -15.203139   -2.934913   -0.875770
    135          1           0      -14.414275   -2.213902   -2.246252
    136          1           0      -18.195770    6.246071   -1.601708
    137          1           0      -17.304937    4.944256   -0.809179
    138          1           0      -18.108248    6.184436    0.127248
    139          1           0      -23.432287    5.871677   -1.424913
    140          1           0      -23.106178    7.480708   -0.754091
    141          1           0      -23.168629    6.237269    0.350209
    142          1           0      -25.511468    2.416937   -1.127195
    143          1           0      -25.743312   -0.190987    0.039416
    144          1           0      -25.835563    3.158191    1.022398
    145          1           0      -24.652477    1.922867    1.689995
    146          1           0      -26.263701    1.479881    1.217597
    147          1           0      -25.388028   -0.711097   -2.874204
    148          1           0      -25.970522    0.882129   -2.546662
    149          1           0      -28.064620    0.028857   -2.632729
    150          1           0      -27.700976   -0.793684   -1.127519
    151          1           0      -27.291776   -1.596773   -2.682149
    152          1           0      -23.780442   -4.386867   -0.781779
    153          1           0      -23.411155   -4.931184    0.852864
    154          1           0      -22.486816   -5.654175   -0.480361
    155          1           0      -17.621784   -4.029409   -0.012663
    156          1           0      -15.643977   -3.924621    3.978656
    157          1           0      -15.161358   -5.480605    3.346011
    158          1           0      -16.697521   -5.299441    4.073843
 ---------------------------------------------------------------------

 SCF Done:  E(RwB97XD) =  -4070.61009086     A.U. after   20 cycles

 Excitation energies and oscillator strengths:

 Excited State   1:      Singlet-A      1.6668 eV  743.87 nm  f=0.3596  <S**2>=0.000
     309 -> 315       -0.19753
     312 -> 314        0.68092
     309 <- 315       -0.12065
 This state for optimization and/or second-order correction.
 Total Energy, E(TD-HF/TD-DFT) =  -4070.54883889
 Copying the excited state density for this state as the 1-particle RhoCI density.

 Excited State   2:      Singlet-A      1.6941 eV  731.86 nm  f=0.3588  <S**2>=0.000
     310 -> 316       -0.19920
     311 -> 313        0.67860
     310 <- 316       -0.11861

 Excited State   3:      Singlet-A      2.1842 eV  567.64 nm  f=0.1017  <S**2>=0.000
     310 -> 313        0.63337
     311 -> 316        0.30089

 Excited State   4:      Singlet-A      2.2261 eV  556.94 nm  f=0.0511  <S**2>=0.000
     309 -> 314        0.60361
     312 -> 315        0.35681

 Excited State   5:      Singlet-A      3.4376 eV  360.67 nm  f=0.5307  <S**2>=0.000
     304 -> 314        0.14696
     306 -> 314       -0.27323
     309 -> 314       -0.28740
     312 -> 315        0.55199
     309 <- 314        0.10586

 The electronic state is 1-A.
 Alpha  occ. eigenvalues --  -46.96745 -46.94994 -19.31252 -19.31243 -19.25512
 Alpha  occ. eigenvalues --  -19.24991 -19.24574 -19.24080 -19.24033 -19.23815
 Alpha  occ. eigenvalues --  -14.46844 -14.46687 -14.46637 -14.46419 -14.45133
 Alpha  occ. eigenvalues --  -14.44048 -14.43957 -14.43939 -10.44110 -10.43854
 Alpha  occ. eigenvalues --  -10.39812 -10.39291 -10.38944 -10.38573 -10.36958
 Alpha  occ. eigenvalues --  -10.35954 -10.35709 -10.35209 -10.35188 -10.35135
 Alpha  occ. eigenvalues --  -10.35103 -10.34963 -10.34833 -10.34658 -10.34564
 Alpha  occ. eigenvalues --  -10.34530 -10.34201 -10.33961 -10.33804 -10.33799
 Alpha  occ. eigenvalues --  -10.33561 -10.33507 -10.33255 -10.33233 -10.33023
 Alpha  occ. eigenvalues --  -10.32594 -10.32589 -10.32507 -10.32486 -10.32452
 Alpha  occ. eigenvalues --  -10.32450 -10.32169 -10.32164 -10.32146 -10.32112
 Alpha  occ. eigenvalues --  -10.32043 -10.31909 -10.31907 -10.31905 -10.31902
 Alpha  occ. eigenvalues --  -10.31875 -10.31819 -10.31736 -10.31629 -10.31618
 Alpha  occ. eigenvalues --  -10.31169 -10.30988 -10.30904 -10.30898 -10.30867
 Alpha  occ. eigenvalues --  -10.30820 -10.30699 -10.30333 -10.30331 -10.30283
 Alpha  occ. eigenvalues --  -10.30157 -10.30120 -10.30117 -10.30088 -10.30041
 Alpha  occ. eigenvalues --  -10.29937 -10.29827 -10.29790 -10.29469 -10.29387
 Alpha  occ. eigenvalues --  -10.29165  -3.22590  -3.21039  -1.96133  -1.95723
 Alpha  occ. eigenvalues --   -1.95541  -1.94605  -1.94178  -1.94007  -1.18634
 Alpha  occ. eigenvalues --   -1.18126  -1.14068  -1.13754  -1.12889  -1.11316
 Alpha  occ. eigenvalues --   -1.10423  -1.09253  -1.06802  -1.06742  -1.06241
 Alpha  occ. eigenvalues --   -1.05965  -1.04955  -1.04875  -1.04075  -1.03909
 Alpha  occ. eigenvalues --   -0.95018  -0.94471  -0.90979  -0.90899  -0.90802
 Alpha  occ. eigenvalues --   -0.90419  -0.90302  -0.89592  -0.89536  -0.89267
 Alpha  occ. eigenvalues --   -0.89014  -0.87983  -0.87673  -0.86899  -0.86765
 Alpha  occ. eigenvalues --   -0.86466  -0.86109  -0.85253  -0.84618  -0.84423
 Alpha  occ. eigenvalues --   -0.84409  -0.83810  -0.82968  -0.82789  -0.82756
 Alpha  occ. eigenvalues --   -0.82348  -0.79912  -0.79500  -0.79226  -0.79137
 Alpha  occ. eigenvalues --   -0.78637  -0.78328  -0.78303  -0.78177  -0.77285
 Alpha  occ. eigenvalues --   -0.77006  -0.74840  -0.74797  -0.74073  -0.74044
 Alpha  occ. eigenvalues --   -0.71864  -0.71339  -0.70920  -0.70558  -0.70227
 Alpha  occ. eigenvalues --   -0.70060  -0.69211  -0.68717  -0.67830  -0.67755
 Alpha  occ. eigenvalues --   -0.67524  -0.66857  -0.66848  -0.66827  -0.66625
 Alpha  occ. eigenvalues --   -0.66434  -0.65697  -0.64687  -0.62170  -0.62084
 Alpha  occ. eigenvalues --   -0.62014  -0.61273  -0.61069  -0.60946  -0.60841
 Alpha  occ. eigenvalues --   -0.60445  -0.60159  -0.59719  -0.59671  -0.59340
 Alpha  occ. eigenvalues --   -0.58270  -0.58183  -0.58027  -0.58025  -0.57482
 Alpha  occ. eigenvalues --   -0.57209  -0.57008  -0.56849  -0.56215  -0.55882
 Alpha  occ. eigenvalues --   -0.55658  -0.55444  -0.55142  -0.55070  -0.55022
 Alpha  occ. eigenvalues --   -0.54898  -0.54766  -0.54681  -0.54580  -0.54089
 Alpha  occ. eigenvalues --   -0.53853  -0.53691  -0.53627  -0.53357  -0.53033
 Alpha  occ. eigenvalues --   -0.52915  -0.52776  -0.52650  -0.52483  -0.52350
 Alpha  occ. eigenvalues --   -0.52057  -0.52015  -0.51910  -0.51696  -0.51685
 Alpha  occ. eigenvalues --   -0.51540  -0.51503  -0.51218  -0.51001  -0.50891
 Alpha  occ. eigenvalues --   -0.50598  -0.50570  -0.50303  -0.50227  -0.49981
 Alpha  occ. eigenvalues --   -0.49512  -0.49402  -0.49274  -0.49179  -0.48999
 Alpha  occ. eigenvalues --   -0.48886  -0.48634  -0.48481  -0.48273  -0.48263
 Alpha  occ. eigenvalues --   -0.48170  -0.48010  -0.48001  -0.47858  -0.47626
 Alpha  occ. eigenvalues --   -0.47457  -0.47337  -0.47253  -0.47245  -0.47119
 Alpha  occ. eigenvalues --   -0.46834  -0.46350  -0.46207  -0.46182  -0.46061
 Alpha  occ. eigenvalues --   -0.45900  -0.45814  -0.45757  -0.45605  -0.45490
 Alpha  occ. eigenvalues --   -0.45394  -0.45237  -0.45229  -0.44990  -0.44935
 Alpha  occ. eigenvalues --   -0.44704  -0.44497  -0.44344  -0.44248  -0.44174
 Alpha  occ. eigenvalues --   -0.44051  -0.43931  -0.43850  -0.43638  -0.43613
 Alpha  occ. eigenvalues --   -0.43489  -0.43129  -0.42959  -0.42722  -0.42564
 Alpha  occ. eigenvalues --   -0.42266  -0.42254  -0.41914  -0.41825  -0.41011
 Alpha  occ. eigenvalues --   -0.40862  -0.40857  -0.40082  -0.39904  -0.39428
 Alpha  occ. eigenvalues --   -0.39356  -0.39233  -0.39125  -0.38796  -0.38583
 Alpha  occ. eigenvalues --   -0.38545  -0.38249  -0.36790  -0.36680  -0.36680
 Alpha  occ. eigenvalues --   -0.36408  -0.35701  -0.35391  -0.33562  -0.33515
 Alpha  occ. eigenvalues --   -0.33230  -0.33163  -0.32933  -0.32909  -0.32819
 Alpha  occ. eigenvalues --   -0.32288  -0.31864  -0.31783  -0.26284  -0.25961
 Alpha  occ. eigenvalues --   -0.23218  -0.22765
 Alpha virt. eigenvalues --   -0.06991  -0.06619  -0.00295  -0.00180   0.02179
 Alpha virt. eigenvalues --    0.02628   0.03923   0.04141   0.04640   0.05227
 Alpha virt. eigenvalues --    0.06406   0.06654   0.07516   0.07896   0.08546

 Mulliken charges:
               1
     1  Mg   0.954835
     2  C    0.126891
     3  C   -0.086839
     4  C   -0.102780
     5  C   -0.086856
     6  N   -0.280297
     7  C   -0.106279
     8  C    0.024814
     9  C   -0.115428
    10  C    0.019700
    11  C    0.018049
    12  C    0.021147
    13  C   -0.133108
    14  H    0.032714
    15  N   -0.458824
    16  C    0.175399
    17  C   -0.148434
    18  C   -0.099897
    19  C    0.211693
    20  C    0.047944
    21  C    0.038202
    22  O   -0.200602
    23  C   -0.012931
    24  N   -0.367964
    25  C    0.007588
    26  C   -0.062969
    27  C   -0.084192
    28  C    0.069749
    29  C    0.005022
    30  C   -0.009875
    31  C   -0.094061
    32  N   -0.439594
    33  C    0.139036
    34  C   -0.213531
    35  C   -0.016296
    36  C    0.078634
    37  C    0.071691
    38  C    0.139960
    39  O   -0.173464
    40  C   -0.211203
    41  C    0.295990
    42  O   -0.266941
    43  O   -0.352133
    44  C    0.141324
    45  H    0.007222
    46  H   -0.025077
    47  H   -0.020891
    48  H    0.029511
    49  H    0.028337
    50  H    0.024566
    51  H    0.050181
    52  H    0.027411
    53  H    0.036940
    54  H    0.046202
    55  H    0.070668
    56  H    0.060460
    57  H    0.063285
    58  H    0.025812
    59  H    0.056049
    60  H    0.047006
    61  H    0.080182
    62  H    0.053762
    63  H    0.053705
    64  H    0.040270
    65  H    0.049442
    66  H    0.047509
    67  H    0.050476
    68  H    0.049738
    69  H    0.043978
    70  H    0.038417
    71  H    0.044446
    72  H    0.040040
    73  H    0.037440
    74  H    0.051954
    75  H    0.058860
    76  H    0.085120
    77  H    0.049517
    78  H    0.054973
    79  H    0.046599
    80  Mg   0.957065
    81  C   -0.054946
    82  C   -0.098080
    83  C   -0.053009
    84  C   -0.094264
    85  N   -0.331827
    86  C   -0.023618
    87  C   -0.115146
    88  C   -0.115612
    89  C    0.039036
    90  C    0.060803
    91  C    0.025449
    92  C   -0.134592
    93  H    0.044810
    94  N   -0.518750
    95  C    0.210556
    96  C   -0.172922
    97  C   -0.106220
    98  C    0.151733
    99  C    0.083388
   100  C    0.062066
   101  O   -0.196886
   102  C   -0.021493
   103  N   -0.326648
   104  C    0.062205
   105  C   -0.102051
   106  C   -0.070022
   107  C    0.069693
   108  C    0.021109
   109  C   -0.022386
   110  C   -0.034773
   111  N   -0.429221
   112  C    0.127837
   113  C   -0.206757
   114  C   -0.016835
   115  C    0.192921
   116  C    0.097511
   117  C    0.099144
   118  O   -0.220840
   119  C   -0.021990
   120  C    0.288782
   121  O   -0.244407
   122  O   -0.362501
   123  C    0.139805
   124  H    0.001674
   125  H   -0.029321
   126  H   -0.001620
   127  H    0.017352
   128  H    0.023758
   129  H    0.042988
   130  H    0.038820
   131  H    0.055086
   132  H    0.032741
   133  H    0.055613
   134  H    0.047968
   135  H    0.058877
   136  H    0.056025
   137  H    0.011877
   138  H    0.051535
   139  H    0.070915
   140  H    0.041971
   141  H    0.069548
   142  H    0.033394
   143  H    0.024291
   144  H    0.046084
   145  H    0.041583
   146  H    0.029609
   147  H    0.043977
   148  H    0.016320
   149  H    0.044002
   150  H    0.026321
   151  H    0.041561
   152  H    0.036616
   153  H    0.058272
   154  H    0.066043
   155  H    0.061121
   156  H    0.042357
   157  H    0.050525
   158  H    0.053996
 Sum of Mulliken charges =  -0.00000

 Dipole moment (field-independent basis, Debye):
    X=              2.8462    Y=              3.9230    Z=              2.2753  Tot=              5.3543
 Quadrupole moment (field-independent basis, Debye-Ang):
   XX=           -279.8000   YY=           -517.4253   ZZ=           -506.8241
   XY=              7.4263   XZ=             44.2387   YZ=             16.4019

 Normal termination of Gaussian 16 at Sun Sep 19 21:16:20 2021.
