 Gaussian 16, Revision A.03,
 Gaussian 16:  ES64L-G16RevA.03 25-Dec-2016

 --------------------------------
 #p wB97XD/Def2SVP td=(nstates=5)
 --------------------------------

 --------------------------------
 TDDFT excited states in gaussian
 --------------------------------
 Symbolic Z-matrix:
 Charge =  0 Multiplicity = 1

                         Standard orientation:
 ---------------------------------------------------------------------
 Center     Atomic      Atomic             Coordinates (Angstroms)
 Number     Number       Type             X           Y           Z
 ---------------------------------------------------------------------
      1         12           0      -25.982903    0.461509   -0.591791
      2          6           0      -24.872428   -2.121682    1.472692
      3          6           0      -25.879660    2.568463    1.982498
      4          6           0      -28.243825    2.410342   -2.257739
      5          6           0      -26.122367   -1.793947   -3.243155
      6          7           0      -25.270028    0.278154    1.479590
      7          6           0      -24.860875   -0.840276    2.066017
      8          6           0      -24.329398   -0.497015    3.504576
      9          6           0      -24.769153    0.977358    3.670599
     10          6           0      -25.370661    1.317356    2.310275
     11          6           0      -25.936423    1.194163    4.756422
     12          6           0      -22.756195   -0.672332    3.708598
     13          6           0      -22.421432   -1.291224    5.022300
     14          1           0      -21.396413   -0.623262    5.925850
     15          7           0      -26.901755    2.252825   -0.186713
     16          6           0      -26.710393    2.999578    0.945513
     17          6           0      -27.263525    4.342263    0.720165
     18          6           0      -27.952524    4.281767   -0.523273
     19          6           0      -27.747180    2.908397   -1.012652
     20          6           0      -27.172245    5.491615    1.774061
     21          6           0      -28.817453    5.380181   -1.211884
     22          8           0      -29.374168    5.239398   -2.294982
     23          6           0      -28.954502    6.687144   -0.526814
     24          7           0      -27.030589    0.332191   -2.401448
     25          6           0      -27.986551    1.226294   -2.892818
     26          6           0      -28.673923    0.615909   -4.142166
     27          6           0      -27.551759   -0.349147   -4.727183
     28          6           0      -26.860249   -0.595039   -3.356247
     29          6           0      -30.038662   -0.034665   -3.829782
     30          6           0      -26.593239    0.236695   -5.724689
     31          6           0      -25.449752    1.101772   -5.284584
     32          7           0      -25.412333   -1.488307   -0.963678
     33          6           0      -25.557044   -2.300182   -2.064843
     34          6           0      -25.040030   -3.649219   -1.823710
     35          6           0      -24.837395   -3.675652   -0.370738
     36          6           0      -25.097105   -2.321603    0.075792
     37          6           0      -25.017951   -4.742804   -2.763725
     38          6           0      -24.486962   -4.504675    0.776098
     39          8           0      -24.277696   -5.653966    0.889988
     40          6           0      -24.421471   -3.479990    2.025043
     41          6           0      -25.154811   -3.951802    3.255150
     42          8           0      -26.322225   -3.688683    3.528256
     43          8           0      -24.258763   -4.647779    4.065931
     44          6           0      -24.764565   -5.173912    5.346731
     45          1           0      -25.746629    3.430765    2.639701
     46          1           0      -28.974758    3.074999   -2.723763
     47          1           0      -26.102846   -2.418428   -4.138347
     48          1           0      -24.844133   -1.065645    4.279451
     49          1           0      -23.995132    1.681176    3.976538
     50          1           0      -25.445353    1.412914    5.704848
     51          1           0      -26.554735    0.319712    4.957578
     52          1           0      -26.523791    2.059084    4.445961
     53          1           0      -22.234416    0.283679    3.662062
     54          1           0      -22.244857   -1.255100    2.942297
     55          1           0      -21.947968   -2.229982    4.736084
     56          1           0      -23.242951   -1.549354    5.689976
     57          1           0      -28.065687    5.395957    2.390442
     58          1           0      -27.059979    6.465918    1.297813
     59          1           0      -26.429621    5.321217    2.554257
     60          1           0      -29.092512    6.756140    0.552096
     61          1           0      -29.791498    7.238330   -0.954736
     62          1           0      -28.177598    7.362047   -0.887150
     63          1           0      -28.789162    1.470929   -4.807703
     64          1           0      -27.972165   -1.249461   -5.174929
     65          1           0      -30.170447   -1.069366   -4.146272
     66          1           0      -30.891597    0.593276   -4.088235
     67          1           0      -30.180875   -0.094740   -2.750914
     68          1           0      -27.065234    0.846280   -6.494279
     69          1           0      -26.144657   -0.590677   -6.274723
     70          1           0      -24.630113    0.385843   -5.226110
     71          1           0      -25.545127    1.551820   -4.296180
     72          1           0      -25.264231    1.864339   -6.041696
     73          1           0      -24.108151   -5.301848   -2.544264
     74          1           0      -24.938097   -4.307181   -3.759386
     75          1           0      -25.890631   -5.379437   -2.621399
     76          1           0      -23.370817   -3.382048    2.298273
     77          1           0      -25.656460   -5.758113    5.118561
     78          1           0      -25.067902   -4.361880    6.007036
     79          1           0      -24.116628   -5.791586    5.968848
     80         12           0       26.356475   -0.594155    0.237167
     81          6           0       24.925408    2.506732    0.752898
     82          6           0       23.205721   -1.840504   -0.370855
     83          6           0       27.804976   -3.510670   -0.855989
     84          6           0       29.483133    0.752979    0.747491
     85          7           0       24.346806    0.266370   -0.000221
     86          6           0       24.016132    1.563541    0.339024
     87          6           0       22.515937    1.818130    0.218977
     88          6           0       21.960389    0.345394    0.195694
     89          6           0       23.225207   -0.439837   -0.119325
     90          6           0       21.139982   -0.149111    1.471870
     91          6           0       22.057788    2.724307   -0.967988
     92          6           0       21.033190    3.785823   -0.627481
     93          1           0       19.674644    3.489977   -1.243624
     94          7           0       25.586454   -2.373995   -0.509321
     95          6           0       24.296840   -2.698791   -0.654559
     96          6           0       24.158236   -4.076164   -1.094846
     97          6           0       25.405530   -4.651473   -1.271591
     98          6           0       26.353522   -3.505569   -0.930191
     99          6           0       22.735283   -4.740605   -1.413897
    100          6           0       25.715337   -6.138536   -1.652581
    101          8           0       24.749637   -6.909653   -1.916042
    102          6           0       27.101447   -6.647930   -1.761377
    103          7           0       28.435881   -1.242926   -0.266576
    104          6           0       28.760410   -2.490690   -0.515865
    105          6           0       30.235104   -2.766992   -0.310032
    106          6           0       30.886739   -1.410495    0.124557
    107          6           0       29.539249   -0.559073    0.298959
    108          6           0       30.691137   -4.062624    0.433996
    109          6           0       31.909306   -0.691386   -0.802324
    110          6           0       32.736909    0.348581   -0.075736
    111          7           0       27.087637    1.291502    0.661222
    112          6           0       28.415402    1.694637    0.933587
    113          6           0       28.380893    3.069022    1.353507
    114          6           0       27.018108    3.454168    1.339534
    115          6           0       26.326935    2.339650    0.872513
    116          6           0       29.532302    3.862634    1.952896
    117          6           0       26.186709    4.515510    1.624913
    118          8           0       26.340220    5.667443    1.927489
    119          6           0       24.744360    3.999528    1.108987
    120          6           0       24.573670    4.684355   -0.246161
    121          8           0       25.072114    4.319483   -1.293540
    122          8           0       23.769210    5.792361   -0.034183
    123          6           0       23.564103    6.661297   -1.188532
    124          1           0       22.233822   -2.337987   -0.378155
    125          1           0       28.197382   -4.468974   -1.201683
    126          1           0       30.385218    1.276052    1.071628
    127          1           0       22.184603    2.258024    1.159174
    128          1           0       21.405755    0.238577   -0.737257
    129          1           0       21.265153   -1.229804    1.405418
    130          1           0       20.060363   -0.022814    1.387075
    131          1           0       21.448234    0.247306    2.439210
    132          1           0       21.635887    2.009574   -1.674862
    133          1           0       22.839634    3.136626   -1.605470
    134          1           0       21.422954    4.738154   -0.987718
    135          1           0       20.863231    3.873279    0.445811
    136          1           0       21.877438   -4.075062   -1.308852
    137          1           0       22.566872   -5.608571   -0.775547
    138          1           0       22.620471   -5.023755   -2.459280
    139          1           0       27.606639   -6.534932   -0.802671
    140          1           0       27.611503   -6.241770   -2.634962
    141          1           0       26.979087   -7.729724   -1.797568
    142          1           0       30.819700   -2.900299   -1.220527
    143          1           0       31.198757   -1.413099    1.169208
    144          1           0       29.805495   -4.696307    0.497924
    145          1           0       31.197059   -3.872580    1.381283
    146          1           0       31.421915   -4.658836   -0.112633
    147          1           0       31.330050   -0.292039   -1.634731
    148          1           0       32.504931   -1.502213   -1.221593
    149          1           0       33.713150    0.386104   -0.559752
    150          1           0       32.909813    0.151502    0.982928
    151          1           0       32.307441    1.333661   -0.258328
    152          1           0       29.232418    4.816767    2.386351
    153          1           0       30.277446    4.002292    1.170798
    154          1           0       30.028547    3.302240    2.745314
    155          1           0       23.970225    4.168741    1.858074
    156          1           0       24.511699    7.121098   -1.469634
    157          1           0       22.790762    7.405971   -1.003229
    158          1           0       23.268747    6.058903   -2.047131
 ---------------------------------------------------------------------

 SCF Done:  E(RwB97XD) =  -4070.61874640     A.U. after   19 cycles

 Excitation energies and oscillator strengths:

 Excited State   1:      Singlet-A      1.6238 eV  763.54 nm  f=0.3766  <S**2>=0.000
     310 -> 316       -0.18261
     312 -> 313        0.68421
     310 <- 316       -0.11752
 This state for optimization and/or second-order correction.
 Total Energy, E(TD-HF/TD-DFT) =  -4070.55907241
 Copying the excited state density for this state as the 1-particle RhoCI density.

 Excited State   2:      Singlet-A      1.8713 eV  662.55 nm  f=0.3749  <S**2>=0.000
     309 -> 315        0.14189
     311 -> 314        0.68597

 Excited State   3:      Singlet-A      2.2000 eV  563.56 nm  f=0.1022  <S**2>=0.000
     310 -> 313        0.63112
     312 -> 316        0.30772

 Excited State   4:      Singlet-A      2.2255 eV  557.11 nm  f=0.1258  <S**2>=0.000
     309 -> 314        0.64385
     311 -> 315       -0.24649
     311 -> 317        0.10808

 Excited State   5:      Singlet-A      3.3923 eV  365.49 nm  f=0.0180  <S**2>=0.000
     306 -> 313        0.66083
     312 -> 316       -0.17979

 The electronic state is 1-A.
 Alpha  occ. eigenvalues --  -46.95758 -46.94265 -19.30274 -19.29695 -19.25354
 Alpha  occ. eigenvalues --  -19.25052 -19.24759 -19.24738 -19.24182 -19.22660
 Alpha  occ. eigenvalues --  -14.46925 -14.46765 -14.46643 -14.46022 -14.45228
 Alpha  occ. eigenvalues --  -14.43910 -14.43801 -14.43025 -10.43563 -10.42898
 Alpha  occ. eigenvalues --  -10.41111 -10.39595 -10.39553 -10.37355 -10.37300
 Alpha  occ. eigenvalues --  -10.36536 -10.35840 -10.35552 -10.35368 -10.35261
 Alpha  occ. eigenvalues --  -10.34857 -10.34616 -10.34563 -10.34359 -10.34093
 Alpha  occ. eigenvalues --  -10.34022 -10.33881 -10.33806 -10.33781 -10.33535
 Alpha  occ. eigenvalues --  -10.33398 -10.33379 -10.32912 -10.32849 -10.32502
 Alpha  occ. eigenvalues --  -10.32468 -10.32423 -10.32379 -10.32359 -10.32311
 Alpha  occ. eigenvalues --  -10.32252 -10.32235 -10.32221 -10.32127 -10.31936
 Alpha  occ. eigenvalues --  -10.31707 -10.31613 -10.31577 -10.31468 -10.31369
 Alpha  occ. eigenvalues --  -10.31189 -10.31148 -10.31116 -10.31069 -10.31046
 Alpha  occ. eigenvalues --  -10.30954 -10.30833 -10.30826 -10.30795 -10.30790
 Alpha  occ. eigenvalues --  -10.30777 -10.30739 -10.30501 -10.30190 -10.30160
 Alpha  occ. eigenvalues --  -10.29981 -10.29892 -10.29796 -10.29665 -10.29640
 Alpha  occ. eigenvalues --  -10.29477 -10.29382 -10.29370 -10.29093 -10.28362
 Alpha  occ. eigenvalues --  -10.27002  -3.21654  -3.20385  -1.95223  -1.94778
 Alpha  occ. eigenvalues --   -1.94623  -1.93982  -1.93488  -1.93388  -1.17561
 Alpha  occ. eigenvalues --   -1.17338  -1.15231  -1.12346  -1.11943  -1.11451
 Alpha  occ. eigenvalues --   -1.10039  -1.09669  -1.07172  -1.06617  -1.05882
 Alpha  occ. eigenvalues --   -1.05574  -1.05291  -1.04898  -1.04551  -1.04179
 Alpha  occ. eigenvalues --   -0.93858  -0.93477  -0.91041  -0.90892  -0.90470
 Alpha  occ. eigenvalues --   -0.90363  -0.89961  -0.89947  -0.89144  -0.89013
 Alpha  occ. eigenvalues --   -0.88820  -0.88710  -0.88215  -0.87726  -0.86416
 Alpha  occ. eigenvalues --   -0.86059  -0.85554  -0.85491  -0.85137  -0.84450
 Alpha  occ. eigenvalues --   -0.84001  -0.83766  -0.82956  -0.82628  -0.82334
 Alpha  occ. eigenvalues --   -0.82162  -0.80192  -0.79600  -0.79168  -0.79110
 Alpha  occ. eigenvalues --   -0.78682  -0.78652  -0.77762  -0.77272  -0.77099
 Alpha  occ. eigenvalues --   -0.76788  -0.74364  -0.74255  -0.73687  -0.73435
 Alpha  occ. eigenvalues --   -0.71672  -0.71141  -0.71109  -0.70510  -0.69857
 Alpha  occ. eigenvalues --   -0.69684  -0.69379  -0.68702  -0.67642  -0.67557
 Alpha  occ. eigenvalues --   -0.67404  -0.66709  -0.66617  -0.66244  -0.66039
 Alpha  occ. eigenvalues --   -0.66036  -0.63809  -0.63678  -0.62136  -0.62042
 Alpha  occ. eigenvalues --   -0.61549  -0.61434  -0.61045  -0.60879  -0.60478
 Alpha  occ. eigenvalues --   -0.60102  -0.59770  -0.59757  -0.59333  -0.59212
 Alpha  occ. eigenvalues --   -0.58472  -0.57792  -0.57483  -0.57415  -0.57301
 Alpha  occ. eigenvalues --   -0.56976  -0.56758  -0.56095  -0.56056  -0.55924
 Alpha  occ. eigenvalues --   -0.55673  -0.55522  -0.55313  -0.55281  -0.55120
 Alpha  occ. eigenvalues --   -0.54865  -0.54707  -0.54430  -0.54093  -0.53956
 Alpha  occ. eigenvalues --   -0.53702  -0.53552  -0.53505  -0.53311  -0.53208
 Alpha  occ. eigenvalues --   -0.52981  -0.52677  -0.52504  -0.52333  -0.52140
 Alpha  occ. eigenvalues --   -0.52124  -0.52012  -0.51970  -0.51751  -0.51552
 Alpha  occ. eigenvalues --   -0.51433  -0.51414  -0.51046  -0.50991  -0.50620
 Alpha  occ. eigenvalues --   -0.50527  -0.50408  -0.50230  -0.50134  -0.49901
 Alpha  occ. eigenvalues --   -0.49727  -0.49529  -0.49289  -0.49175  -0.48893
 Alpha  occ. eigenvalues --   -0.48773  -0.48512  -0.48511  -0.48187  -0.48127
 Alpha  occ. eigenvalues --   -0.48044  -0.48042  -0.47926  -0.47749  -0.47423
 Alpha  occ. eigenvalues --   -0.47135  -0.47133  -0.47118  -0.46970  -0.46872
 Alpha  occ. eigenvalues --   -0.46805  -0.46609  -0.46552  -0.46277  -0.46265
 Alpha  occ. eigenvalues --   -0.46097  -0.45857  -0.45656  -0.45514  -0.45318
 Alpha  occ. eigenvalues --   -0.45262  -0.45200  -0.45092  -0.44778  -0.44713
 Alpha  occ. eigenvalues --   -0.44592  -0.44462  -0.44454  -0.44095  -0.43985
 Alpha  occ. eigenvalues --   -0.43787  -0.43515  -0.43509  -0.43444  -0.43361
 Alpha  occ. eigenvalues --   -0.43085  -0.42656  -0.42381  -0.42341  -0.42117
 Alpha  occ. eigenvalues --   -0.42087  -0.41773  -0.41235  -0.41039  -0.40892
 Alpha  occ. eigenvalues --   -0.40595  -0.40010  -0.39958  -0.39604  -0.39281
 Alpha  occ. eigenvalues --   -0.38945  -0.38653  -0.38605  -0.38598  -0.38323
 Alpha  occ. eigenvalues --   -0.37841  -0.37283  -0.36426  -0.36393  -0.36278
 Alpha  occ. eigenvalues --   -0.36150  -0.35342  -0.35065  -0.34484  -0.34135
 Alpha  occ. eigenvalues --   -0.33401  -0.33279  -0.33130  -0.33073  -0.32188
 Alpha  occ. eigenvalues --   -0.31768  -0.31608  -0.31164  -0.26058  -0.25906
 Alpha  occ. eigenvalues --   -0.23357  -0.22586
 Alpha virt. eigenvalues --   -0.06812  -0.06744   0.00144   0.00537   0.02174
 Alpha virt. eigenvalues --    0.02482   0.04088   0.04539   0.04925   0.05910
 Alpha virt. eigenvalues --    0.06728   0.07613   0.08073   0.08178   0.08804

 Mulliken charges:
               1
     1  Mg   0.983832
     2  C    0.016741
     3  C   -0.089928
     4  C   -0.082511
     5  C   -0.106087
     6  N   -0.316767
     7  C    0.009741
     8  C   -0.040566
     9  C   -0.128963
    10  C    0.104147
    11  C   -0.004720
    12  C    0.028183
    13  C   -0.147874
    14  H    0.026113
    15  N   -0.453221
    16  C    0.111574
    17  C   -0.155658
    18  C   -0.103392
    19  C    0.123931
    20  C    0.045812
    21  C    0.084809
    22  O   -0.233046
    23  C   -0.023465
    24  N   -0.364543
    25  C    0.051548
    26  C   -0.053113
    27  C   -0.060085
    28  C    0.046842
    29  C    0.044659
    30  C   -0.025404
    31  C   -0.034980
    32  N   -0.448143
    33  C    0.163802
    34  C   -0.168897
    35  C   -0.084482
    36  C    0.117332
    37  C    0.076998
    38  C    0.137620
    39  O   -0.142207
    40  C   -0.138959
    41  C    0.283381
    42  O   -0.249078
    43  O   -0.383365
    44  C    0.147035
    45  H   -0.013067
    46  H    0.021619
    47  H   -0.009722
    48  H    0.043009
    49  H    0.044049
    50  H    0.031214
    51  H    0.051237
    52  H    0.038066
    53  H    0.037914
    54  H    0.036959
    55  H    0.053908
    56  H    0.051459
    57  H    0.057689
    58  H    0.063562
    59  H    0.032692
    60  H    0.059359
    61  H    0.038693
    62  H    0.062587
    63  H    0.024377
    64  H    0.023868
    65  H    0.039143
    66  H    0.044478
    67  H    0.032099
    68  H    0.026715
    69  H    0.023441
    70  H    0.026961
    71  H    0.051701
    72  H    0.040160
    73  H    0.057376
    74  H    0.036665
    75  H    0.074611
    76  H    0.075978
    77  H    0.054241
    78  H    0.040549
    79  H    0.061764
    80  Mg   0.966491
    81  C   -0.041421
    82  C   -0.128835
    83  C   -0.109116
    84  C   -0.042161
    85  N   -0.333067
    86  C   -0.011757
    87  C   -0.074697
    88  C   -0.075939
    89  C    0.063706
    90  C    0.034904
    91  C    0.028332
    92  C   -0.107106
    93  H    0.024726
    94  N   -0.465915
    95  C    0.185984
    96  C   -0.153042
    97  C   -0.065430
    98  C    0.142325
    99  C    0.072224
   100  C    0.052357
   101  O   -0.253978
   102  C    0.003648
   103  N   -0.330955
   104  C    0.128673
   105  C   -0.083494
   106  C   -0.090938
   107  C    0.027277
   108  C    0.020539
   109  C    0.009847
   110  C   -0.034615
   111  N   -0.438524
   112  C    0.046330
   113  C   -0.148211
   114  C    0.002684
   115  C    0.157841
   116  C    0.059532
   117  C    0.057910
   118  O   -0.195169
   119  C   -0.117716
   120  C    0.296996
   121  O   -0.238883
   122  O   -0.364154
   123  C    0.141259
   124  H   -0.003510
   125  H   -0.019484
   126  H   -0.016871
   127  H    0.023282
   128  H    0.032772
   129  H    0.025028
   130  H    0.044668
   131  H    0.053877
   132  H    0.020245
   133  H    0.052769
   134  H    0.048236
   135  H    0.048674
   136  H    0.019583
   137  H    0.064680
   138  H    0.059487
   139  H    0.061879
   140  H    0.091280
   141  H    0.055074
   142  H    0.038403
   143  H    0.031575
   144  H    0.030237
   145  H    0.041606
   146  H    0.029160
   147  H    0.042112
   148  H    0.025826
   149  H    0.032478
   150  H    0.043082
   151  H    0.051717
   152  H    0.058568
   153  H    0.038066
   154  H    0.040760
   155  H    0.054812
   156  H    0.058164
   157  H    0.060940
   158  H    0.042368
 Sum of Mulliken charges =  -0.00000

 Dipole moment (field-independent basis, Debye):
    X=              3.1195    Y=             -1.4064    Z=              1.5086  Tot=              3.7396
 Quadrupole moment (field-independent basis, Debye-Ang):
   XX=           -502.3786   YY=           -540.3256   ZZ=           -485.0880
   XY=           -200.9303   XZ=            -15.9437   YZ=              1.2310

 Normal termination of Gaussian 16 at Sat Sep 18 19:51:29 2021.
