 Gaussian 16, Revision A.03,
 Gaussian 16:  ES64L-G16RevA.03 25-Dec-2016

 --------------------------------
 #p wB97XD/Def2SVP td=(nstates=5)
 --------------------------------

 --------------------------------
 TDDFT excited states in gaussian
 --------------------------------
 Symbolic Z-matrix:
 Charge =  0 Multiplicity = 1

                         Standard orientation:
 ---------------------------------------------------------------------
 Center     Atomic      Atomic             Coordinates (Angstroms)
 Number     Number       Type             X           Y           Z
 ---------------------------------------------------------------------
      1         12           0       18.596015   -0.126099    0.272633
      2          6           0       15.495707   -1.640766   -0.393753
      3          6           0       19.258935   -0.167578   -3.100935
      4          6           0       21.095151    1.947706    0.904458
      5          6           0       17.673915    0.091170    3.696136
      6          7           0       17.400957   -0.587025   -1.527112
      7          6           0       16.128979   -1.213463   -1.579561
      8          6           0       15.821412   -1.773447   -2.906907
      9          6           0       17.107541   -1.368267   -3.748633
     10          6           0       18.011279   -0.690934   -2.730519
     11          6           0       17.703556   -2.561244   -4.534503
     12          6           0       14.633309   -1.161987   -3.584738
     13          6           0       14.425760    0.347081   -3.387761
     14          1           0       13.849299    1.255672   -4.542466
     15          7           0       20.044971    0.768249   -0.918201
     16          6           0       20.196616    0.513552   -2.231896
     17          6           0       21.411686    1.146019   -2.680843
     18          6           0       22.014339    1.709875   -1.529356
     19          6           0       21.075818    1.473222   -0.420652
     20          6           0       21.901182    1.209255   -4.102694
     21          6           0       23.365558    2.423035   -1.489130
     22          8           0       24.030234    2.564331   -2.496952
     23          6           0       23.994000    3.120119   -0.318974
     24          7           0       19.143341    1.078787    1.973730
     25          6           0       20.282266    1.838693    2.001101
     26          6           0       20.654423    2.260299    3.460635
     27          6           0       19.357514    1.895774    4.244716
     28          6           0       18.689428    0.954330    3.266683
     29          6           0       21.883102    1.541474    4.068379
     30          6           0       18.300935    3.081963    4.447211
     31          6           0       17.730608    3.247131    5.809229
     32          7           0       17.055403   -0.712184    1.444665
     33          6           0       16.933634   -0.718824    2.778961
     34          6           0       15.869332   -1.707102    3.197822
     35          6           0       15.331512   -2.115066    1.935776
     36          6           0       15.987462   -1.372642    0.913422
     37          6           0       15.416281   -2.145646    4.582990
     38          6           0       14.251714   -2.858681    1.353725
     39          8           0       13.363798   -3.512898    1.877319
     40          6           0       14.344315   -2.595593   -0.203482
     41          6           0       13.109052   -1.809758   -0.591694
     42          8           0       12.837674   -0.692699   -0.297548
     43          8           0       12.372146   -2.583044   -1.463315
     44          6           0       11.302239   -1.846737   -2.144106
     45          1           0       19.546636   -0.361610   -4.136144
     46          1           0       22.008364    2.484885    1.165920
     47          1           0       17.531904    0.080693    4.778796
     48          1           0       15.654819   -2.843425   -2.782474
     49          1           0       16.982755   -0.537608   -4.443205
     50          1           0       17.825279   -2.106512   -5.517773
     51          1           0       16.965489   -3.362773   -4.502290
     52          1           0       18.688947   -2.859180   -4.175702
     53          1           0       13.708917   -1.724014   -3.448976
     54          1           0       14.645697   -1.226782   -4.672963
     55          1           0       15.400629    0.722547   -3.074863
     56          1           0       13.788814    0.372907   -2.503429
     57          1           0       22.225264    2.218007   -4.360748
     58          1           0       21.135898    0.821133   -4.774746
     59          1           0       22.763218    0.541832   -4.113448
     60          1           0       23.470449    4.007929    0.034231
     61          1           0       24.896860    3.522451   -0.778647
     62          1           0       24.375693    2.432438    0.436440
     63          1           0       20.866202    3.329416    3.451873
     64          1           0       19.550929    1.392126    5.192185
     65          1           0       21.540512    0.892704    4.874299
     66          1           0       22.704946    2.232405    4.255517
     67          1           0       22.299929    0.874704    3.314394
     68          1           0       17.488711    3.010253    3.724217
     69          1           0       18.867177    3.977472    4.190645
     70          1           0       17.881111    4.246856    6.216133
     71          1           0       18.101243    2.516217    6.528275
     72          1           0       16.647928    3.123969    5.811590
     73          1           0       14.354888   -1.906303    4.648490
     74          1           0       16.106632   -1.715249    5.309484
     75          1           0       15.463431   -3.234488    4.571366
     76          1           0       14.431854   -3.519428   -0.774854
     77          1           0       11.534446   -0.791336   -2.285953
     78          1           0       10.450940   -1.962071   -1.473147
     79          1           0       11.052733   -2.437641   -3.024983
     80         12           0      -18.366196    0.587257    0.106842
     81          6           0      -15.492392   -1.496166   -0.162743
     82          6           0      -20.117084   -2.125949    1.288153
     83          6           0      -20.941743    2.653812    0.228440
     84          6           0      -16.566009    3.186730   -1.602365
     85          7           0      -17.876026   -1.658361    0.469865
     86          6           0      -16.599227   -2.179637    0.368044
     87          6           0      -16.693903   -3.661840    0.868221
     88          6           0      -18.235736   -3.893028    1.311270
     89          6           0      -18.772629   -2.493933    0.992572
     90          6           0      -18.963394   -5.079636    0.645719
     91          6           0      -15.612407   -4.136716    1.924464
     92          6           0      -14.769006   -5.307384    1.510384
     93          1           0      -15.231678   -6.372406    0.551498
     94          7           0      -20.321039    0.321199    0.828152
     95          6           0      -20.828336   -0.866356    1.252601
     96          6           0      -22.128763   -0.567454    1.794911
     97          6           0      -22.428168    0.758528    1.414450
     98          6           0      -21.220058    1.350752    0.753328
     99          6           0      -22.959076   -1.678178    2.459994
    100          6           0      -23.755352    1.448457    1.508040
    101          8           0      -23.935205    2.592962    1.028448
    102          6           0      -24.900864    0.740658    2.131148
    103          7           0      -18.671800    2.643333   -0.678851
    104          6           0      -19.773468    3.257479   -0.420424
    105          6           0      -19.867823    4.814411   -0.861139
    106          6           0      -18.461398    4.955182   -1.463057
    107          6           0      -17.864430    3.584749   -1.255873
    108          6           0      -21.056228    5.004430   -1.873425
    109          6           0      -17.547165    6.085105   -0.871678
    110          6           0      -16.981893    5.845480    0.548453
    111          7           0      -16.539073    0.755734   -0.795508
    112          6           0      -15.983099    1.872197   -1.463355
    113          6           0      -14.592205    1.544090   -1.804653
    114          6           0      -14.358412    0.240055   -1.305961
    115          6           0      -15.566597   -0.186361   -0.657753
    116          6           0      -13.591956    2.492065   -2.531601
    117          6           0      -13.380387   -0.708269   -1.202607
    118          8           0      -12.243109   -0.758357   -1.624839
    119          6           0      -14.004299   -1.887295   -0.404916
    120          6           0      -13.830587   -3.100012   -1.170597
    121          8           0      -14.619348   -3.511976   -2.028685
    122          8           0      -12.540165   -3.604065   -0.969130
    123          6           0      -12.184464   -4.742603   -1.851907
    124          1           0      -20.833328   -2.938792    1.427793
    125          1           0      -21.842075    3.263607    0.127583
    126          1           0      -15.972926    3.943038   -2.120640
    127          1           0      -16.380744   -4.152041   -0.052684
    128          1           0      -18.260907   -4.150094    2.369291
    129          1           0      -19.367568   -5.755835    1.400132
    130          1           0      -18.391362   -5.665970   -0.073173
    131          1           0      -19.778573   -4.608487    0.096532
    132          1           0      -16.095046   -4.367252    2.874411
    133          1           0      -14.929215   -3.294169    2.031812
    134          1           0      -14.717229   -5.967595    2.376875
    135          1           0      -13.801984   -4.922726    1.188272
    136          1           0      -22.349109   -2.539785    2.732397
    137          1           0      -23.753024   -1.996177    1.785474
    138          1           0      -23.371565   -1.208942    3.352596
    139          1           0      -24.596840    0.480186    3.144983
    140          1           0      -25.119836   -0.194412    1.614167
    141          1           0      -25.804530    1.345999    2.072564
    142          1           0      -19.986956    5.465681    0.005097
    143          1           0      -18.534288    5.001521   -2.549871
    144          1           0      -21.178703    4.069376   -2.419958
    145          1           0      -20.767034    5.769496   -2.594804
    146          1           0      -22.030974    5.283228   -1.472290
    147          1           0      -18.029916    7.053727   -0.997475
    148          1           0      -16.702655    6.206356   -1.549338
    149          1           0      -17.604434    5.272233    1.234610
    150          1           0      -16.688227    6.810859    0.962200
    151          1           0      -16.042581    5.316204    0.389018
    152          1           0      -12.629790    2.569744   -2.025234
    153          1           0      -13.991896    3.490682   -2.703773
    154          1           0      -13.220118    1.993000   -3.426813
    155          1           0      -13.381120   -1.897739    0.488706
    156          1           0      -12.078436   -4.408768   -2.883780
    157          1           0      -12.930595   -5.535522   -1.888686
    158          1           0      -11.336468   -5.240437   -1.381312
 ---------------------------------------------------------------------

 SCF Done:  E(RwB97XD) =  -4070.60116521     A.U. after   19 cycles

 Excitation energies and oscillator strengths:

 Excited State   1:      Singlet-A      1.6066 eV  771.72 nm  f=0.3797  <S**2>=0.000
     309 -> 316        0.17859
     312 -> 313        0.68542
     309 <- 316        0.11729
 This state for optimization and/or second-order correction.
 Total Energy, E(TD-HF/TD-DFT) =  -4070.54212389
 Copying the excited state density for this state as the 1-particle RhoCI density.

 Excited State   2:      Singlet-A      1.7175 eV  721.87 nm  f=0.3702  <S**2>=0.000
     310 -> 315       -0.19151
     311 -> 314        0.67995
     310 <- 315       -0.11532

 Excited State   3:      Singlet-A      2.1591 eV  574.24 nm  f=0.1063  <S**2>=0.000
     310 -> 314        0.63944
     311 -> 315        0.28265

 Excited State   4:      Singlet-A      2.2111 eV  560.75 nm  f=0.0983  <S**2>=0.000
     309 -> 313        0.62755
     312 -> 316       -0.31205

 Excited State   5:      Singlet-A      3.4111 eV  363.47 nm  f=0.0005  <S**2>=0.000
     299 -> 313        0.11552
     305 -> 313       -0.17463
     307 -> 313        0.64912

 The electronic state is 1-A.
 Alpha  occ. eigenvalues --  -46.96131 -46.94903 -19.29793 -19.29411 -19.25288
 Alpha  occ. eigenvalues --  -19.24146 -19.24143 -19.23859 -19.23219 -19.22471
 Alpha  occ. eigenvalues --  -14.47244 -14.46956 -14.46453 -14.46435 -14.44359
 Alpha  occ. eigenvalues --  -14.44214 -14.44143 -14.44077 -10.43035 -10.42376
 Alpha  occ. eigenvalues --  -10.39071 -10.38968 -10.38532 -10.37180 -10.35967
 Alpha  occ. eigenvalues --  -10.35789 -10.35567 -10.35207 -10.35145 -10.35082
 Alpha  occ. eigenvalues --  -10.35033 -10.34937 -10.34799 -10.34621 -10.34566
 Alpha  occ. eigenvalues --  -10.34473 -10.34465 -10.34130 -10.33959 -10.33777
 Alpha  occ. eigenvalues --  -10.33583 -10.33288 -10.32865 -10.32829 -10.32693
 Alpha  occ. eigenvalues --  -10.32529 -10.32512 -10.32419 -10.32417 -10.32246
 Alpha  occ. eigenvalues --  -10.32162 -10.32139 -10.32106 -10.32087 -10.32073
 Alpha  occ. eigenvalues --  -10.32043 -10.31950 -10.31881 -10.31846 -10.31838
 Alpha  occ. eigenvalues --  -10.31653 -10.31486 -10.31447 -10.31412 -10.31168
 Alpha  occ. eigenvalues --  -10.31133 -10.31130 -10.31034 -10.30822 -10.30505
 Alpha  occ. eigenvalues --  -10.30487 -10.30457 -10.30391 -10.30327 -10.30270
 Alpha  occ. eigenvalues --  -10.30248 -10.30197 -10.29913 -10.29853 -10.29775
 Alpha  occ. eigenvalues --  -10.29654 -10.29401 -10.29335 -10.29146 -10.29125
 Alpha  occ. eigenvalues --  -10.27807  -3.21935  -3.20973  -1.95534  -1.95088
 Alpha  occ. eigenvalues --   -1.94857  -1.94526  -1.94103  -1.93963  -1.19360
 Alpha  occ. eigenvalues --   -1.16421  -1.12578  -1.12152  -1.11376  -1.11110
 Alpha  occ. eigenvalues --   -1.10714  -1.08421  -1.08105  -1.06556  -1.05998
 Alpha  occ. eigenvalues --   -1.05751  -1.05293  -1.05048  -1.04614  -1.03651
 Alpha  occ. eigenvalues --   -0.95120  -0.94193  -0.91703  -0.91575  -0.91277
 Alpha  occ. eigenvalues --   -0.90263  -0.90251  -0.89643  -0.89413  -0.89210
 Alpha  occ. eigenvalues --   -0.88681  -0.88249  -0.87720  -0.87382  -0.86610
 Alpha  occ. eigenvalues --   -0.86197  -0.86017  -0.85201  -0.84591  -0.84414
 Alpha  occ. eigenvalues --   -0.84172  -0.83564  -0.82779  -0.82572  -0.82429
 Alpha  occ. eigenvalues --   -0.82004  -0.80309  -0.79849  -0.79443  -0.79403
 Alpha  occ. eigenvalues --   -0.78741  -0.78318  -0.77938  -0.77589  -0.77058
 Alpha  occ. eigenvalues --   -0.76918  -0.74655  -0.74470  -0.73617  -0.73514
 Alpha  occ. eigenvalues --   -0.72331  -0.71518  -0.70999  -0.70772  -0.70538
 Alpha  occ. eigenvalues --   -0.69784  -0.69054  -0.68910  -0.67756  -0.67224
 Alpha  occ. eigenvalues --   -0.67037  -0.66863  -0.66560  -0.66481  -0.66330
 Alpha  occ. eigenvalues --   -0.66186  -0.64051  -0.63355  -0.62248  -0.61940
 Alpha  occ. eigenvalues --   -0.61460  -0.61390  -0.60964  -0.60887  -0.60581
 Alpha  occ. eigenvalues --   -0.60070  -0.60067  -0.59846  -0.59490  -0.59361
 Alpha  occ. eigenvalues --   -0.58501  -0.58192  -0.57976  -0.57962  -0.57322
 Alpha  occ. eigenvalues --   -0.57176  -0.57011  -0.56882  -0.56523  -0.55984
 Alpha  occ. eigenvalues --   -0.55452  -0.55197  -0.54950  -0.54909  -0.54768
 Alpha  occ. eigenvalues --   -0.54766  -0.54464  -0.54266  -0.54170  -0.53984
 Alpha  occ. eigenvalues --   -0.53948  -0.53494  -0.53439  -0.53299  -0.53200
 Alpha  occ. eigenvalues --   -0.53042  -0.52833  -0.52690  -0.52426  -0.52065
 Alpha  occ. eigenvalues --   -0.51717  -0.51512  -0.51449  -0.51296  -0.51175
 Alpha  occ. eigenvalues --   -0.51164  -0.51105  -0.50929  -0.50806  -0.50758
 Alpha  occ. eigenvalues --   -0.50653  -0.50517  -0.50489  -0.50246  -0.49940
 Alpha  occ. eigenvalues --   -0.49852  -0.49428  -0.49399  -0.49201  -0.49091
 Alpha  occ. eigenvalues --   -0.49009  -0.48788  -0.48700  -0.48623  -0.48514
 Alpha  occ. eigenvalues --   -0.48414  -0.48271  -0.48069  -0.47912  -0.47784
 Alpha  occ. eigenvalues --   -0.47706  -0.47398  -0.47386  -0.47127  -0.46805
 Alpha  occ. eigenvalues --   -0.46567  -0.46460  -0.46260  -0.46090  -0.45984
 Alpha  occ. eigenvalues --   -0.45796  -0.45705  -0.45633  -0.45496  -0.45372
 Alpha  occ. eigenvalues --   -0.45113  -0.45107  -0.44657  -0.44644  -0.44485
 Alpha  occ. eigenvalues --   -0.44352  -0.44340  -0.44239  -0.44074  -0.44045
 Alpha  occ. eigenvalues --   -0.43756  -0.43756  -0.43707  -0.43525  -0.43355
 Alpha  occ. eigenvalues --   -0.43156  -0.43021  -0.42996  -0.42637  -0.42464
 Alpha  occ. eigenvalues --   -0.42255  -0.41964  -0.41729  -0.41656  -0.40997
 Alpha  occ. eigenvalues --   -0.40985  -0.40366  -0.39771  -0.39271  -0.39038
 Alpha  occ. eigenvalues --   -0.38859  -0.38624  -0.38432  -0.38408  -0.38001
 Alpha  occ. eigenvalues --   -0.37667  -0.37427  -0.37001  -0.36177  -0.35882
 Alpha  occ. eigenvalues --   -0.35522  -0.35284  -0.35260  -0.33541  -0.33513
 Alpha  occ. eigenvalues --   -0.33168  -0.33079  -0.32490  -0.32432  -0.32036
 Alpha  occ. eigenvalues --   -0.31906  -0.31787  -0.31630  -0.26190  -0.25713
 Alpha  occ. eigenvalues --   -0.23040  -0.22814
 Alpha virt. eigenvalues --   -0.07083  -0.06860   0.00156   0.00165   0.02225
 Alpha virt. eigenvalues --    0.02336   0.04459   0.04528   0.04689   0.05718
 Alpha virt. eigenvalues --    0.07259   0.07624   0.07816   0.08140   0.08199

 Mulliken charges:
               1
     1  Mg   0.971158
     2  C   -0.073361
     3  C   -0.088692
     4  C   -0.070228
     5  C   -0.087672
     6  N   -0.366441
     7  C    0.021335
     8  C   -0.041301
     9  C   -0.131871
    10  C    0.059960
    11  C    0.036716
    12  C   -0.026289
    13  C   -0.106205
    14  H    0.042160
    15  N   -0.438577
    16  C    0.155124
    17  C   -0.199211
    18  C   -0.050458
    19  C    0.165443
    20  C    0.110869
    21  C    0.017507
    22  O   -0.237406
    23  C   -0.009414
    24  N   -0.356994
    25  C    0.045749
    26  C   -0.079992
    27  C   -0.111612
    28  C    0.037564
    29  C    0.042908
    30  C    0.014741
    31  C   -0.045851
    32  N   -0.434678
    33  C    0.147966
    34  C   -0.205230
    35  C   -0.044248
    36  C    0.162987
    37  C    0.102119
    38  C    0.124295
    39  O   -0.206505
    40  C   -0.072837
    41  C    0.257845
    42  O   -0.210094
    43  O   -0.374942
    44  C    0.128895
    45  H   -0.001813
    46  H   -0.030370
    47  H    0.001557
    48  H    0.040552
    49  H    0.052554
    50  H    0.037919
    51  H    0.045578
    52  H    0.046091
    53  H    0.018218
    54  H    0.023498
    55  H    0.051678
    56  H    0.057264
    57  H    0.065707
    58  H    0.021457
    59  H    0.056215
    60  H    0.066080
    61  H    0.044628
    62  H    0.054409
    63  H    0.033896
    64  H    0.029488
    65  H    0.040533
    66  H    0.046060
    67  H    0.027732
    68  H    0.057278
    69  H    0.024489
    70  H    0.038628
    71  H    0.024870
    72  H    0.035884
    73  H    0.069434
    74  H    0.037686
    75  H    0.057384
    76  H    0.064960
    77  H    0.073174
    78  H    0.056063
    79  H    0.055991
    80  Mg   0.949214
    81  C    0.012594
    82  C   -0.090533
    83  C   -0.048176
    84  C   -0.087859
    85  N   -0.314449
    86  C   -0.013038
    87  C   -0.056189
    88  C   -0.105095
    89  C    0.077720
    90  C    0.018426
    91  C    0.000128
    92  C   -0.139668
    93  H    0.031606
    94  N   -0.486313
    95  C    0.140173
    96  C   -0.180358
    97  C   -0.072283
    98  C    0.161144
    99  C    0.072928
   100  C    0.036500
   101  O   -0.261913
   102  C    0.006454
   103  N   -0.272136
   104  C    0.015662
   105  C   -0.109987
   106  C    0.029174
   107  C   -0.039978
   108  C   -0.003664
   109  C   -0.032775
   110  C   -0.036150
   111  N   -0.476778
   112  C    0.148622
   113  C   -0.175978
   114  C    0.006766
   115  C    0.138717
   116  C    0.087106
   117  C    0.031622
   118  O   -0.201391
   119  C   -0.063127
   120  C    0.267046
   121  O   -0.263320
   122  O   -0.378999
   123  C    0.150016
   124  H    0.007855
   125  H    0.029011
   126  H   -0.009074
   127  H    0.057303
   128  H    0.044918
   129  H    0.035046
   130  H    0.051806
   131  H    0.033460
   132  H    0.031617
   133  H    0.036323
   134  H    0.048493
   135  H    0.062317
   136  H    0.047830
   137  H    0.064166
   138  H    0.046281
   139  H    0.050934
   140  H    0.050388
   141  H    0.058498
   142  H    0.052381
   143  H    0.036456
   144  H    0.045566
   145  H    0.037044
   146  H    0.064050
   147  H    0.030875
   148  H    0.025081
   149  H    0.049796
   150  H    0.041223
   151  H    0.038679
   152  H    0.043808
   153  H    0.031536
   154  H    0.051156
   155  H    0.073588
   156  H    0.064637
   157  H    0.041697
   158  H    0.053795
 Sum of Mulliken charges =  -0.00000

 Dipole moment (field-independent basis, Debye):
    X=             -1.5038    Y=             -0.6133    Z=              4.3798  Tot=              4.6712
 Quadrupole moment (field-independent basis, Debye-Ang):
   XX=           -368.2269   YY=           -482.0974   ZZ=           -482.3358
   XY=              2.9123   XZ=             -6.8466   YZ=              4.7275

 Normal termination of Gaussian 16 at Sat Sep 18 14:57:58 2021.
