 Gaussian 16, Revision A.03,
 Gaussian 16:  ES64L-G16RevA.03 25-Dec-2016

 --------------------------------
 #p wB97XD/Def2SVP td=(nstates=5)
 --------------------------------

 --------------------------------
 TDDFT excited states in gaussian
 --------------------------------
 Symbolic Z-matrix:
 Charge =  0 Multiplicity = 1

                         Standard orientation:
 ---------------------------------------------------------------------
 Center     Atomic      Atomic             Coordinates (Angstroms)
 Number     Number       Type             X           Y           Z
 ---------------------------------------------------------------------
      1         12           0       -0.784163    0.096537    0.220105
      2          6           0        2.732722    0.132101    0.105098
      3          6           0       -0.625574   -3.360365   -0.119409
      4          6           0       -4.097619    0.145894    0.005297
      5          6           0       -0.780016    3.648000   -0.306753
      6          7           0        0.840022   -1.413441   -0.005351
      7          6           0        2.212110   -1.147474    0.104691
      8          6           0        2.944405   -2.437152    0.426023
      9          6           0        1.935884   -3.569599    0.080831
     10          6           0        0.626448   -2.730148   -0.016842
     11          6           0        2.284619   -4.456718   -1.155349
     12          6           0        3.527458   -2.514013    1.879617
     13          6           0        4.859911   -3.376662    2.002609
     14          1           0        5.384992   -4.064990    0.739872
     15          7           0       -2.121631   -1.365227    0.109519
     16          6           0       -1.874680   -2.726227    0.056212
     17          6           0       -3.100977   -3.467964    0.117430
     18          6           0       -4.136192   -2.483351    0.025472
     19          6           0       -3.468899   -1.195007    0.082919
     20          6           0       -3.171607   -5.025368    0.090848
     21          6           0       -5.611072   -2.684979   -0.098727
     22          8           0       -6.386672   -1.726425   -0.328064
     23          6           0       -6.428106   -4.010086   -0.065773
     24          7           0       -2.237060    1.618981   -0.374258
     25          6           0       -3.561354    1.396635   -0.275801
     26          6           0       -4.339473    2.736247   -0.301017
     27          6           0       -3.296556    3.853024   -0.423085
     28          6           0       -1.980445    2.963914   -0.311574
     29          6           0       -5.461428    2.711988   -1.293785
     30          6           0       -3.362007    4.994354    0.614420
     31          6           0       -3.219131    4.554661    2.092405
     32          7           0        0.651440    1.644702   -0.117182
     33          6           0        0.491755    2.988403   -0.144568
     34          6           0        1.827194    3.571493   -0.024951
     35          6           0        2.780519    2.523152    0.105812
     36          6           0        2.015349    1.336847   -0.006456
     37          6           0        2.141384    5.060692    0.091115
     38          6           0        4.164317    2.208427    0.265470
     39          8           0        5.171269    2.877278    0.482387
     40          6           0        4.204544    0.545213    0.206054
     41          6           0        5.184343    0.108620   -0.866802
     42          8           0        4.917193    0.085479   -2.052257
     43          8           0        6.356183   -0.344959   -0.305083
     44          6           0        7.547397   -0.446356   -1.141910
     45          1           0       -0.455300   -4.438645   -0.099343
     46          1           0       -5.188031    0.100287    0.033754
     47          1           0       -0.865018    4.736087   -0.333267
     48          1           0        3.809731   -2.532385   -0.229744
     49          1           0        1.868610   -4.211353    0.958838
     50          1           0        1.395882   -4.348709   -1.776199
     51          1           0        2.330695   -5.509169   -0.872906
     52          1           0        3.154425   -4.215591   -1.766366
     53          1           0        2.842164   -3.022582    2.557016
     54          1           0        3.665362   -1.499620    2.251695
     55          1           0        4.636094   -4.226567    2.647519
     56          1           0        5.627056   -2.726323    2.422198
     57          1           0       -4.032424   -5.303776   -0.518310
     58          1           0       -3.331923   -5.454495    1.079339
     59          1           0       -2.333151   -5.625175   -0.262844
     60          1           0       -6.224994   -4.564098    0.851133
     61          1           0       -6.258469   -4.627274   -0.948004
     62          1           0       -7.488241   -3.878109    0.147287
     63          1           0       -4.909044    2.756059    0.627233
     64          1           0       -3.320160    4.137587   -1.475612
     65          1           0       -6.435561    2.561669   -0.828040
     66          1           0       -5.266248    1.957562   -2.056089
     67          1           0       -5.551011    3.621210   -1.889293
     68          1           0       -4.366813    5.394464    0.477332
     69          1           0       -2.624654    5.761563    0.376342
     70          1           0       -2.338897    5.080461    2.461746
     71          1           0       -3.077458    3.473891    2.085754
     72          1           0       -4.113665    4.709226    2.695945
     73          1           0        2.892284    5.272645    0.851719
     74          1           0        1.281103    5.622897    0.453221
     75          1           0        2.384003    5.432965   -0.904577
     76          1           0        4.626757    0.255825    1.168729
     77          1           0        7.215073   -0.829240   -2.107184
     78          1           0        8.313902   -1.124799   -0.767200
     79          1           0        7.978335    0.554784   -1.155021
 ---------------------------------------------------------------------

 SCF Done:  E(RwB97XD) =  -2035.31177576     A.U. after   18 cycles

 Excitation energies and oscillator strengths:

 Excited State   1:      Singlet-A      1.6019 eV  773.97 nm  f=0.4020  <S**2>=0.000
     155 ->158         0.17298
     156 ->157         0.68564
     155 <-158         0.11421
 This state for optimization and/or second-order correction.
 Total Energy, E(TD-HF/TD-DFT) =  -2035.25290606
 Copying the excited state density for this state as the 1-particle RhoCI density.

 Excited State   2:      Singlet-A      2.1364 eV  580.34 nm  f=0.1500  <S**2>=0.000
     155 ->157         0.65483
     156 ->158        -0.24832

 Excited State   3:      Singlet-A      3.2948 eV  376.30 nm  f=0.0031  <S**2>=0.000
     153 ->157         0.52480
     153 ->158         0.13541
     153 ->159        -0.34593
     153 ->160        -0.20420

 Excited State   4:      Singlet-A      3.3440 eV  370.77 nm  f=0.0002  <S**2>=0.000
     151 ->157        -0.19080
     154 ->157         0.65331

 Excited State   5:      Singlet-A      3.5163 eV  352.60 nm  f=0.0370  <S**2>=0.000
     150 ->157         0.14904
     151 ->157         0.55365
     152 ->157         0.16555
     154 ->157         0.10862
     156 ->158         0.31616

 The electronic state is 1-A.
 Alpha  occ. eigenvalues --  -46.95258 -19.29484 -19.24403 -19.24184 -19.23424
 Alpha  occ. eigenvalues --  -14.47178 -14.45984 -14.44903 -14.43957 -10.42959
 Alpha  occ. eigenvalues --  -10.39607 -10.39491 -10.35645 -10.35127 -10.34959
 Alpha  occ. eigenvalues --  -10.34799 -10.34768 -10.34552 -10.34343 -10.33835
 Alpha  occ. eigenvalues --  -10.33734 -10.33249 -10.33019 -10.32326 -10.32306
 Alpha  occ. eigenvalues --  -10.32201 -10.32108 -10.32039 -10.31821 -10.31627
 Alpha  occ. eigenvalues --  -10.31571 -10.31474 -10.31423 -10.30894 -10.30648
 Alpha  occ. eigenvalues --  -10.30581 -10.30208 -10.30128 -10.30120 -10.29437
 Alpha  occ. eigenvalues --  -10.29420 -10.29317 -10.28743  -3.21269  -1.94829
 Alpha  occ. eigenvalues --   -1.94392  -1.94249  -1.17612  -1.11679  -1.10640
 Alpha  occ. eigenvalues --   -1.09643  -1.06358  -1.05480  -1.05233  -1.04128
 Alpha  occ. eigenvalues --   -0.94148  -0.91043  -0.90412  -0.90112  -0.89279
 Alpha  occ. eigenvalues --   -0.88783  -0.87248  -0.85702  -0.85225  -0.84088
 Alpha  occ. eigenvalues --   -0.82993  -0.82576  -0.81965  -0.80671  -0.78854
 Alpha  occ. eigenvalues --   -0.78677  -0.77763  -0.76937  -0.74509  -0.73040
 Alpha  occ. eigenvalues --   -0.71824  -0.71118  -0.70325  -0.69521  -0.67209
 Alpha  occ. eigenvalues --   -0.66857  -0.66144  -0.66058  -0.63631  -0.62936
 Alpha  occ. eigenvalues --   -0.61449  -0.60794  -0.60046  -0.59393  -0.58917
 Alpha  occ. eigenvalues --   -0.57896  -0.57672  -0.56785  -0.56737  -0.55852
 Alpha  occ. eigenvalues --   -0.55398  -0.54989  -0.54681  -0.54490  -0.54275
 Alpha  occ. eigenvalues --   -0.53915  -0.53271  -0.52955  -0.52607  -0.51994
 Alpha  occ. eigenvalues --   -0.51493  -0.51160  -0.51113  -0.50932  -0.50668
 Alpha  occ. eigenvalues --   -0.50553  -0.50134  -0.49825  -0.49670  -0.49352
 Alpha  occ. eigenvalues --   -0.48610  -0.48314  -0.48255  -0.47780  -0.47386
 Alpha  occ. eigenvalues --   -0.47140  -0.46670  -0.46413  -0.46146  -0.45985
 Alpha  occ. eigenvalues --   -0.45900  -0.45385  -0.45112  -0.44963  -0.44520
 Alpha  occ. eigenvalues --   -0.44297  -0.43864  -0.43790  -0.43567  -0.43506
 Alpha  occ. eigenvalues --   -0.42647  -0.42523  -0.41986  -0.41513  -0.41150
 Alpha  occ. eigenvalues --   -0.40564  -0.39751  -0.39588  -0.38899  -0.38263
 Alpha  occ. eigenvalues --   -0.37973  -0.36032  -0.35701  -0.35250  -0.33679
 Alpha  occ. eigenvalues --   -0.32965  -0.32764  -0.32245  -0.31645  -0.26036
 Alpha  occ. eigenvalues --   -0.23188
 Alpha virt. eigenvalues --   -0.07605   0.00520   0.02007   0.04082   0.04677
 Alpha virt. eigenvalues --    0.07372   0.07770   0.08603   0.10094   0.10767
 Alpha virt. eigenvalues --    0.11532   0.12168   0.12521   0.12853   0.13994

 Mulliken charges:
               1
     1  Mg   0.971942
     2  C    0.006732
     3  C   -0.061635
     4  C   -0.063027
     5  C   -0.062947
     6  N   -0.337674
     7  C   -0.003137
     8  C   -0.035369
     9  C   -0.097935
    10  C    0.010246
    11  C    0.027411
    12  C   -0.006681
    13  C   -0.129142
    14  H    0.034099
    15  N   -0.494981
    16  C    0.189785
    17  C   -0.136828
    18  C   -0.054444
    19  C    0.137781
    20  C    0.058959
    21  C    0.036206
    22  O   -0.271614
    23  C   -0.007052
    24  N   -0.340827
    25  C    0.077673
    26  C   -0.129584
    27  C   -0.020089
    28  C    0.012661
    29  C    0.021352
    30  C   -0.019638
    31  C   -0.045870
    32  N   -0.429017
    33  C    0.150764
    34  C   -0.205213
    35  C    0.004357
    36  C    0.122965
    37  C    0.072254
    38  C    0.116730
    39  O   -0.207630
    40  C   -0.128410
    41  C    0.274757
    42  O   -0.237539
    43  O   -0.379802
    44  C    0.133616
    45  H   -0.002977
    46  H    0.023064
    47  H   -0.004410
    48  H    0.030757
    49  H    0.033136
    50  H    0.030649
    51  H    0.034881
    52  H    0.058465
    53  H    0.029799
    54  H    0.037213
    55  H    0.054517
    56  H    0.069165
    57  H    0.037180
    58  H    0.051148
    59  H    0.045664
    60  H    0.030987
    61  H    0.073531
    62  H    0.048612
    63  H    0.037204
    64  H    0.038767
    65  H    0.043480
    66  H    0.041856
    67  H    0.022292
    68  H    0.033280
    69  H    0.039432
    70  H    0.046928
    71  H    0.038544
    72  H    0.043013
    73  H    0.057616
    74  H    0.018520
    75  H    0.059402
    76  H    0.065565
    77  H    0.060227
    78  H    0.053711
    79  H    0.064580
 Sum of Mulliken charges =  -0.00000

 Dipole moment (field-independent basis, Debye):
    X=             -1.4326    Y=             -3.8720    Z=              3.1788  Tot=              5.2105
 Quadrupole moment (field-independent basis, Debye-Ang):
   XX=           -265.8910   YY=           -220.4897   ZZ=           -258.8909
   XY=            -19.7448   XZ=             -2.1006   YZ=             -2.3979

 Normal termination of Gaussian 16 at Sun Sep 19 05:42:16 2021.
