 Gaussian 16, Revision A.03,
 Gaussian 16:  ES64L-G16RevA.03 25-Dec-2016

 --------------------------------
 #p wB97XD/Def2SVP td=(nstates=5)
 --------------------------------

 --------------------------------
 TDDFT excited states in gaussian
 --------------------------------
 Symbolic Z-matrix:
 Charge =  0 Multiplicity = 1

                         Standard orientation:
 ---------------------------------------------------------------------
 Center     Atomic      Atomic             Coordinates (Angstroms)
 Number     Number       Type             X           Y           Z
 ---------------------------------------------------------------------
      1         12           0       -0.730856    0.076575    0.030670
      2          6           0        2.732108    0.174729    0.237107
      3          6           0       -0.638841   -3.288268   -0.177871
      4          6           0       -4.057382    0.123100   -0.339392
      5          6           0       -0.711987    3.577709    0.091323
      6          7           0        0.930772   -1.345794    0.067237
      7          6           0        2.210905   -1.123396    0.246267
      8          6           0        2.944421   -2.542403    0.289192
      9          6           0        1.970491   -3.311874   -0.577891
     10          6           0        0.617434   -2.637377   -0.185951
     11          6           0        2.379138   -3.209054   -2.063201
     12          6           0        3.243979   -2.973622    1.789050
     13          6           0        4.333269   -4.039850    1.940624
     14          1           0        4.843774   -4.746765    0.696903
     15          7           0       -2.148174   -1.365456   -0.042183
     16          6           0       -1.896782   -2.735463   -0.037849
     17          6           0       -3.208129   -3.432455    0.122556
     18          6           0       -4.257212   -2.423899    0.009600
     19          6           0       -3.462118   -1.186281   -0.208476
     20          6           0       -3.324098   -4.928766    0.292366
     21          6           0       -5.846850   -2.535097    0.131891
     22          8           0       -6.607857   -1.562643    0.086215
     23          6           0       -6.412171   -3.925628    0.332998
     24          7           0       -2.130487    1.581118   -0.212718
     25          6           0       -3.434644    1.365268   -0.362135
     26          6           0       -4.239346    2.676963   -0.617519
     27          6           0       -3.182185    3.719929   -0.227429
     28          6           0       -1.922509    2.933915   -0.041187
     29          6           0       -4.791906    2.828931   -2.062259
     30          6           0       -3.536405    4.766188    0.920918
     31          6           0       -2.933200    4.540016    2.268222
     32          7           0        0.685682    1.610470   -0.067761
     33          6           0        0.562935    2.955622    0.029259
     34          6           0        1.809732    3.633849    0.008222
     35          6           0        2.740141    2.551009    0.097110
     36          6           0        1.975677    1.407554    0.052069
     37          6           0        2.214244    5.083055   -0.071709
     38          6           0        4.113008    2.154560    0.199421
     39          8           0        5.141034    2.795172    0.244853
     40          6           0        4.186815    0.615018    0.452857
     41          6           0        5.139801    0.008678   -0.481643
     42          8           0        4.985628    0.049408   -1.692820
     43          8           0        6.328757   -0.459124    0.134251
     44          6           0        7.368323   -0.969339   -0.773381
     45          1           0       -0.562592   -4.368613   -0.309269
     46          1           0       -5.136089    0.103938   -0.503550
     47          1           0       -0.743165    4.668434    0.057991
     48          1           0        3.935212   -2.457997   -0.155211
     49          1           0        1.849710   -4.358290   -0.298786
     50          1           0        2.667931   -4.235571   -2.291453
     51          1           0        3.216892   -2.530363   -2.228674
     52          1           0        1.461319   -2.994472   -2.610171
     53          1           0        2.340567   -3.372158    2.251559
     54          1           0        3.629446   -2.072357    2.266317
     55          1           0        3.945444   -4.781589    2.638169
     56          1           0        5.173836   -3.559878    2.441199
     57          1           0       -2.477299   -5.333618    0.847733
     58          1           0       -3.436645   -5.524441   -0.612925
     59          1           0       -4.189404   -5.135636    0.921912
     60          1           0       -5.958763   -4.501347   -0.473543
     61          1           0       -7.490761   -4.001449    0.198247
     62          1           0       -6.179744   -4.276884    1.338467
     63          1           0       -5.107651    2.744230    0.037755
     64          1           0       -2.944328    4.246421   -1.151007
     65          1           0       -4.600087    3.868473   -2.329184
     66          1           0       -5.841390    2.584110   -2.218290
     67          1           0       -4.261596    2.118290   -2.696242
     68          1           0       -4.620299    4.873484    0.964451
     69          1           0       -3.120156    5.736919    0.652591
     70          1           0       -2.216928    5.343380    2.442061
     71          1           0       -2.264545    3.683090    2.358771
     72          1           0       -3.643314    4.576130    3.094452
     73          1           0        1.360175    5.745989   -0.214642
     74          1           0        2.999469    5.189939   -0.820669
     75          1           0        2.614492    5.527332    0.839874
     76          1           0        4.508558    0.386948    1.468665
     77          1           0        8.196346   -1.481832   -0.284278
     78          1           0        7.719005   -0.067237   -1.275452
     79          1           0        6.837871   -1.580307   -1.502802
 ---------------------------------------------------------------------

 SCF Done:  E(RwB97XD) =  -2035.31385203     A.U. after   18 cycles

 Excitation energies and oscillator strengths:

 Excited State   1:      Singlet-A      1.6905 eV  733.40 nm  f=0.3911  <S**2>=0.000
     155 ->158        -0.18180
     156 ->157         0.68420
     155 <-158        -0.11476
 This state for optimization and/or second-order correction.
 Total Energy, E(TD-HF/TD-DFT) =  -2035.25172592
 Copying the excited state density for this state as the 1-particle RhoCI density.

 Excited State   2:      Singlet-A      2.1645 eV  572.81 nm  f=0.1460  <S**2>=0.000
     155 ->157         0.65223
     156 ->158         0.26028

 Excited State   3:      Singlet-A      3.4871 eV  355.55 nm  f=0.0055  <S**2>=0.000
     151 ->157        -0.15933
     152 ->157        -0.39321
     153 ->157         0.14116
     154 ->157         0.52259

 Excited State   4:      Singlet-A      3.5865 eV  345.69 nm  f=0.0147  <S**2>=0.000
     151 ->157        -0.16262
     152 ->157        -0.10175
     153 ->157         0.47614
     153 ->159         0.16248
     153 ->160         0.22531
     154 ->157        -0.29984
     156 ->158         0.19710

 Excited State   5:      Singlet-A      3.5942 eV  344.96 nm  f=0.0608  <S**2>=0.000
     151 ->157         0.23108
     152 ->157         0.33133
     153 ->157         0.30336
     153 ->159         0.13303
     153 ->160         0.18230
     154 ->157         0.25789
     156 ->158        -0.31626

 The electronic state is 1-A.
 Alpha  occ. eigenvalues --  -46.94121 -19.29145 -19.25577 -19.24403 -19.22915
 Alpha  occ. eigenvalues --  -14.46613 -14.46033 -14.44755 -14.43195 -10.42721
 Alpha  occ. eigenvalues --  -10.41296 -10.38080 -10.35415 -10.35256 -10.35141
 Alpha  occ. eigenvalues --  -10.34789 -10.34650 -10.34579 -10.34454 -10.33800
 Alpha  occ. eigenvalues --  -10.33237 -10.32754 -10.32618 -10.32272 -10.32048
 Alpha  occ. eigenvalues --  -10.32033 -10.32022 -10.31648 -10.31595 -10.31594
 Alpha  occ. eigenvalues --  -10.31345 -10.31275 -10.31086 -10.30984 -10.30783
 Alpha  occ. eigenvalues --  -10.30236 -10.29856 -10.29640 -10.29601 -10.29588
 Alpha  occ. eigenvalues --  -10.29532 -10.28298 -10.28173  -3.20286  -1.93896
 Alpha  occ. eigenvalues --   -1.93381  -1.93311  -1.16633  -1.12770  -1.11778
 Alpha  occ. eigenvalues --   -1.08938  -1.07586  -1.06743  -1.06179  -1.05238
 Alpha  occ. eigenvalues --   -0.94091  -0.91097  -0.90449  -0.90218  -0.89275
 Alpha  occ. eigenvalues --   -0.89045  -0.88173  -0.86215  -0.85519  -0.84702
 Alpha  occ. eigenvalues --   -0.84522  -0.82890  -0.82041  -0.80592  -0.79149
 Alpha  occ. eigenvalues --   -0.78574  -0.77764  -0.77002  -0.74808  -0.73160
 Alpha  occ. eigenvalues --   -0.71131  -0.70736  -0.69895  -0.68668  -0.67026
 Alpha  occ. eigenvalues --   -0.66584  -0.66186  -0.65965  -0.63250  -0.62695
 Alpha  occ. eigenvalues --   -0.61550  -0.61124  -0.60013  -0.59956  -0.59575
 Alpha  occ. eigenvalues --   -0.57840  -0.57657  -0.57359  -0.56683  -0.55888
 Alpha  occ. eigenvalues --   -0.55573  -0.55336  -0.54951  -0.54588  -0.54243
 Alpha  occ. eigenvalues --   -0.54086  -0.53736  -0.53136  -0.52721  -0.52699
 Alpha  occ. eigenvalues --   -0.52229  -0.51818  -0.51418  -0.51110  -0.50988
 Alpha  occ. eigenvalues --   -0.50793  -0.50485  -0.50413  -0.49752  -0.49313
 Alpha  occ. eigenvalues --   -0.48796  -0.48353  -0.48176  -0.47940  -0.47705
 Alpha  occ. eigenvalues --   -0.47450  -0.46855  -0.46582  -0.46262  -0.45936
 Alpha  occ. eigenvalues --   -0.45884  -0.45440  -0.45270  -0.45158  -0.44934
 Alpha  occ. eigenvalues --   -0.44433  -0.44027  -0.43744  -0.43306  -0.42959
 Alpha  occ. eigenvalues --   -0.42862  -0.42425  -0.42093  -0.41880  -0.41106
 Alpha  occ. eigenvalues --   -0.40200  -0.39978  -0.39452  -0.38643  -0.38129
 Alpha  occ. eigenvalues --   -0.37621  -0.36443  -0.35891  -0.35441  -0.34206
 Alpha  occ. eigenvalues --   -0.33392  -0.32721  -0.32159  -0.31696  -0.25825
 Alpha  occ. eigenvalues --   -0.23217
 Alpha virt. eigenvalues --   -0.07176   0.00660   0.01999   0.04574   0.06603
 Alpha virt. eigenvalues --    0.06975   0.08038   0.08714   0.08859   0.10272
 Alpha virt. eigenvalues --    0.11197   0.12033   0.12428   0.13008   0.14203

 Mulliken charges:
               1
     1  Mg   0.985809
     2  C   -0.033949
     3  C   -0.089528
     4  C   -0.081512
     5  C   -0.112986
     6  N   -0.312404
     7  C   -0.022061
     8  C   -0.084837
     9  C   -0.106207
    10  C    0.035694
    11  C    0.056911
    12  C    0.017400
    13  C   -0.109411
    14  H    0.037452
    15  N   -0.477346
    16  C    0.190113
    17  C   -0.158467
    18  C   -0.108896
    19  C    0.127369
    20  C    0.049005
    21  C    0.101684
    22  O   -0.227655
    23  C   -0.029508
    24  N   -0.378986
    25  C    0.081091
    26  C   -0.097540
    27  C   -0.032440
    28  C    0.052898
    29  C    0.021161
    30  C   -0.006319
    31  C   -0.048440
    32  N   -0.374748
    33  C    0.116060
    34  C   -0.174764
    35  C   -0.023310
    36  C    0.102292
    37  C    0.084898
    38  C    0.096546
    39  O   -0.204588
    40  C   -0.019859
    41  C    0.245722
    42  O   -0.251771
    43  O   -0.402729
    44  C    0.147303
    45  H    0.004666
    46  H    0.017887
    47  H   -0.007226
    48  H    0.021249
    49  H    0.004270
    50  H    0.035518
    51  H    0.070930
    52  H    0.037006
    53  H    0.035386
    54  H    0.041315
    55  H    0.045564
    56  H    0.053100
    57  H    0.040776
    58  H    0.065847
    59  H    0.031039
    60  H    0.059240
    61  H    0.056230
    62  H    0.081339
    63  H    0.037167
    64  H    0.030701
    65  H    0.038438
    66  H    0.045378
    67  H    0.041237
    68  H    0.033872
    69  H    0.028044
    70  H    0.018046
    71  H    0.047801
    72  H    0.040844
    73  H    0.015380
    74  H    0.066014
    75  H    0.046093
    76  H    0.068319
    77  H    0.063915
    78  H    0.057334
    79  H    0.048136
 Sum of Mulliken charges =  -0.00000

 Dipole moment (field-independent basis, Debye):
    X=             -3.1628    Y=             -4.6817    Z=              1.4055  Tot=              5.8221
 Quadrupole moment (field-independent basis, Debye-Ang):
   XX=           -269.7447   YY=           -221.1629   ZZ=           -257.1125
   XY=            -15.5481   XZ=              3.5224   YZ=             -0.9309

 Normal termination of Gaussian 16 at Mon Sep 20 21:23:31 2021.
