 Gaussian 16, Revision A.03,
 Gaussian 16:  ES64L-G16RevA.03 25-Dec-2016

 --------------------------------
 #p wB97XD/Def2SVP td=(nstates=5)
 --------------------------------

 --------------------------------
 TDDFT excited states in gaussian
 --------------------------------
 Symbolic Z-matrix:
 Charge =  0 Multiplicity = 1

                         Standard orientation:
 ---------------------------------------------------------------------
 Center     Atomic      Atomic             Coordinates (Angstroms)
 Number     Number       Type             X           Y           Z
 ---------------------------------------------------------------------
      1         12           0      -18.278658    0.407579   -0.258523
      2          6           0      -15.925454   -1.957250    0.580454
      3          6           0      -20.393029   -0.665782    2.212253
      4          6           0      -20.570870    2.948811   -1.006395
      5          6           0      -15.939218    2.091152   -2.160840
      6          7           0      -18.000240   -1.025437    1.344672
      7          6           0      -17.044272   -2.041216    1.430742
      8          6           0      -17.294358   -2.944100    2.641333
      9          6           0      -18.767101   -2.564856    2.940027
     10          6           0      -19.087138   -1.262298    2.178421
     11          6           0      -19.752760   -3.730245    2.704591
     12          6           0      -16.323298   -2.647669    3.801304
     13          6           0      -15.733362   -3.884083    4.563535
     14          1           0      -15.432573   -3.684132    5.997576
     15          7           0      -20.189724    0.990027    0.456515
     16          6           0      -20.927832    0.373981    1.408096
     17          6           0      -22.280344    0.842739    1.456941
     18          6           0      -22.408962    1.802710    0.439726
     19          6           0      -21.003546    1.942705   -0.126081
     20          6           0      -23.370947    0.244609    2.347925
     21          6           0      -23.705851    2.597337    0.043624
     22          8           0      -24.739836    2.439688    0.741996
     23          6           0      -23.813720    3.527245   -1.240613
     24          7           0      -18.162629    2.421786   -1.183886
     25          6           0      -19.257493    3.163548   -1.480145
     26          6           0      -18.966346    4.279130   -2.450844
     27          6           0      -17.478541    4.059892   -2.800342
     28          6           0      -17.166591    2.765015   -2.045779
     29          6           0      -19.935850    4.348377   -3.677102
     30          6           0      -16.557167    5.329595   -2.472325
     31          6           0      -16.114221    6.133045   -3.700574
     32          7           0      -16.347046    0.129289   -0.768540
     33          6           0      -15.474288    0.872706   -1.593275
     34          6           0      -14.255089    0.090568   -1.836905
     35          6           0      -14.447588   -1.043484   -1.060238
     36          6           0      -15.655806   -0.887577   -0.361104
     37          6           0      -13.064904    0.404414   -2.670931
     38          6           0      -13.819138   -2.307147   -0.649512
     39          8           0      -12.847726   -2.933818   -1.103707
     40          6           0      -14.781264   -2.981478    0.408828
     41          6           0      -15.283763   -4.333326   -0.079955
     42          8           0      -15.715747   -4.616819   -1.201743
     43          8           0      -15.074913   -5.154424    0.988064
     44          6           0      -15.298480   -6.573622    0.768901
     45          1           0      -21.078502   -1.002608    2.992605
     46          1           0      -21.220716    3.740367   -1.385479
     47          1           0      -15.156714    2.566152   -2.755966
     48          1           0      -17.156183   -3.986879    2.353714
     49          1           0      -18.757980   -2.357445    4.010029
     50          1           0      -19.382051   -4.755245    2.702505
     51          1           0      -20.137849   -3.585126    1.695373
     52          1           0      -20.572281   -3.728199    3.422876
     53          1           0      -16.731857   -1.944204    4.526271
     54          1           0      -15.543359   -2.026826    3.359792
     55          1           0      -14.818190   -4.202639    4.064528
     56          1           0      -16.474453   -4.684416    4.546058
     57          1           0      -24.165559   -0.063487    1.668765
     58          1           0      -23.583962    0.923458    3.173781
     59          1           0      -22.929717   -0.674777    2.732717
     60          1           0      -23.424098    4.499463   -0.941093
     61          1           0      -24.876660    3.606894   -1.467265
     62          1           0      -23.378868    2.960090   -2.064064
     63          1           0      -19.083777    5.223763   -1.919671
     64          1           0      -17.262771    3.728302   -3.815747
     65          1           0      -19.391990    4.487906   -4.610961
     66          1           0      -20.661021    5.157622   -3.593331
     67          1           0      -20.554936    3.452305   -3.690745
     68          1           0      -15.616109    5.050135   -1.998779
     69          1           0      -17.048446    5.966758   -1.737037
     70          1           0      -16.133205    7.198083   -3.468741
     71          1           0      -16.791160    5.936875   -4.531782
     72          1           0      -15.113145    5.885852   -4.053424
     73          1           0      -13.277777    1.329592   -3.206535
     74          1           0      -12.744539   -0.486145   -3.212009
     75          1           0      -12.278798    0.689861   -1.971068
     76          1           0      -14.314384   -3.084551    1.388730
     77          1           0      -16.212362   -6.797398    0.217121
     78          1           0      -15.305060   -7.216494    1.649092
     79          1           0      -14.472483   -6.989706    0.191528
     80         12           0       18.537377    0.585571   -0.111055
     81          6           0       15.495347   -1.214209    0.034721
     82          6           0       19.491572   -1.492331   -2.465842
     83          6           0       21.604570    1.617619    0.566610
     84          6           0       17.459817    2.164237    2.884784
     85          7           0       17.426440   -1.069021   -1.187911
     86          6           0       16.250107   -1.564241   -1.056415
     87          6           0       15.910038   -2.495716   -2.238023
     88          6           0       17.363350   -2.950738   -2.769406
     89          6           0       18.196895   -1.812458   -2.046427
     90          6           0       17.835106   -4.406983   -2.378277
     91          6           0       15.139416   -1.683579   -3.404839
     92          6           0       14.066633   -2.395831   -4.290820
     93          1           0       14.260079   -3.941903   -4.507829
     94          7           0       20.285007    0.283371   -0.987067
     95          6           0       20.449868   -0.615310   -2.030304
     96          6           0       21.890804   -0.574361   -2.464213
     97          6           0       22.504499    0.394337   -1.564842
     98          6           0       21.526769    0.850328   -0.573095
     99          6           0       22.403212   -1.469369   -3.576785
    100          6           0       23.932863    0.891530   -1.601210
    101          8           0       24.422645    1.686259   -0.786765
    102          6           0       24.812001    0.439639   -2.695922
    103          7           0       19.418229    1.859119    1.499635
    104          6           0       20.723106    2.061656    1.525373
    105          6           0       21.074011    3.231343    2.548678
    106          6           0       19.652759    3.363344    3.323083
    107          6           0       18.773170    2.430189    2.495307
    108          6           0       22.315368    2.931668    3.452457
    109          6           0       19.017846    4.786475    3.455870
    110          6           0       18.963797    5.385511    4.837778
    111          7           0       16.742303    0.695326    1.128785
    112          6           0       16.509070    1.393067    2.297181
    113          6           0       15.262648    1.033113    2.832005
    114          6           0       14.851017   -0.019986    1.993355
    115          6           0       15.764183   -0.238942    0.989218
    116          6           0       14.609540    1.552742    4.012105
    117          6           0       13.746630   -0.874915    1.789400
    118          8           0       12.603646   -1.015055    2.303334
    119          6           0       14.247801   -1.881574    0.658696
    120          6           0       13.156117   -2.152922   -0.310293
    121          8           0       12.598154   -1.356156   -1.061935
    122          8           0       12.931292   -3.565723   -0.304660
    123          6           0       11.876855   -4.079214   -1.188329
    124          1           0       19.710834   -2.114087   -3.336847
    125          1           0       22.613000    1.997786    0.738964
    126          1           0       17.105840    2.712445    3.761114
    127          1           0       15.508635   -3.415009   -1.812342
    128          1           0       17.329719   -2.990018   -3.857639
    129          1           0       17.204751   -4.845464   -1.604956
    130          1           0       18.835997   -4.402736   -1.947007
    131          1           0       17.773064   -4.993054   -3.295146
    132          1           0       15.849773   -1.195683   -4.072444
    133          1           0       14.660652   -0.816907   -2.948596
    134          1           0       13.980273   -1.979654   -5.295047
    135          1           0       13.142906   -2.405025   -3.710915
    136          1           0       23.043815   -0.930466   -4.275787
    137          1           0       21.605265   -1.949060   -4.143641
    138          1           0       22.864232   -2.355541   -3.141295
    139          1           0       24.897126   -0.647320   -2.709001
    140          1           0       25.801199    0.883159   -2.582045
    141          1           0       24.511598    0.744411   -3.698408
    142          1           0       21.231808    4.189435    2.053572
    143          1           0       19.657486    2.841885    4.281379
    144          1           0       22.667543    1.913176    3.287926
    145          1           0       21.917234    3.193650    4.432950
    146          1           0       23.050932    3.706398    3.239934
    147          1           0       17.987987    4.714209    3.105503
    148          1           0       19.531491    5.475916    2.785540
    149          1           0       19.564801    4.697185    5.430523
    150          1           0       17.932593    5.320277    5.186787
    151          1           0       19.416036    6.374555    4.899747
    152          1           0       14.604726    2.638015    3.914380
    153          1           0       15.172459    1.477112    4.942475
    154          1           0       13.585103    1.182637    4.056798
    155          1           0       14.555951   -2.808269    1.143879
    156          1           0       11.733778   -5.149457   -1.037019
    157          1           0       12.238046   -4.037519   -2.216069
    158          1           0       10.936518   -3.584309   -0.947866
 ---------------------------------------------------------------------

 SCF Done:  E(RwB97XD) =  -4070.59373784     A.U. after   19 cycles

 Excitation energies and oscillator strengths:

 Excited State   1:      Singlet-A      1.6647 eV  744.80 nm  f=0.3728  <S**2>=0.000
     309 -> 316       -0.17867
     312 -> 314        0.68377
     309 <- 316       -0.11337
 This state for optimization and/or second-order correction.
 Total Energy, E(TD-HF/TD-DFT) =  -4070.53256291
 Copying the excited state density for this state as the 1-particle RhoCI density.

 Excited State   2:      Singlet-A      1.7434 eV  711.15 nm  f=0.3566  <S**2>=0.000
     310 -> 315       -0.21776
     311 -> 313        0.67301
     310 <- 315       -0.11924

 Excited State   3:      Singlet-A      2.1694 eV  571.51 nm  f=0.0786  <S**2>=0.000
     310 -> 313        0.62752
     311 -> 315        0.30968

 Excited State   4:      Singlet-A      2.1964 eV  564.48 nm  f=0.0911  <S**2>=0.000
     309 -> 314        0.62318
     312 -> 316        0.31720

 Excited State   5:      Singlet-A      3.3072 eV  374.89 nm  f=0.0360  <S**2>=0.000
     306 -> 313       -0.13295
     308 -> 313        0.60478
     311 -> 315       -0.28134

 The electronic state is 1-A.
 Alpha  occ. eigenvalues --  -46.95713 -46.95484 -19.31529 -19.29154 -19.25163
 Alpha  occ. eigenvalues --  -19.25124 -19.24755 -19.24018 -19.23512 -19.23424
 Alpha  occ. eigenvalues --  -14.46985 -14.46718 -14.46698 -14.46280 -14.44830
 Alpha  occ. eigenvalues --  -14.44595 -14.43625 -14.43165 -10.43761 -10.43135
 Alpha  occ. eigenvalues --  -10.40725 -10.39075 -10.38706 -10.38506 -10.36280
 Alpha  occ. eigenvalues --  -10.35736 -10.35699 -10.35563 -10.35195 -10.35069
 Alpha  occ. eigenvalues --  -10.35011 -10.34801 -10.34787 -10.34683 -10.34620
 Alpha  occ. eigenvalues --  -10.34479 -10.34424 -10.34389 -10.34269 -10.33597
 Alpha  occ. eigenvalues --  -10.33289 -10.32736 -10.32717 -10.32703 -10.32668
 Alpha  occ. eigenvalues --  -10.32544 -10.32514 -10.32498 -10.32368 -10.32357
 Alpha  occ. eigenvalues --  -10.32350 -10.32159 -10.32093 -10.32022 -10.31953
 Alpha  occ. eigenvalues --  -10.31951 -10.31934 -10.31862 -10.31743 -10.31727
 Alpha  occ. eigenvalues --  -10.31668 -10.31644 -10.31640 -10.31562 -10.31444
 Alpha  occ. eigenvalues --  -10.31372 -10.31350 -10.30992 -10.30957 -10.30791
 Alpha  occ. eigenvalues --  -10.30594 -10.30464 -10.30390 -10.30224 -10.30219
 Alpha  occ. eigenvalues --  -10.30156 -10.30052 -10.29896 -10.29779 -10.29742
 Alpha  occ. eigenvalues --  -10.29677 -10.29658 -10.29516 -10.29208 -10.28655
 Alpha  occ. eigenvalues --  -10.28523  -3.21625  -3.21461  -1.95216  -1.95016
 Alpha  occ. eigenvalues --   -1.94757  -1.94571  -1.94570  -1.94458  -1.18970
 Alpha  occ. eigenvalues --   -1.16084  -1.11620  -1.10871  -1.10496  -1.09902
 Alpha  occ. eigenvalues --   -1.09489  -1.08908  -1.07776  -1.07202  -1.06630
 Alpha  occ. eigenvalues --   -1.05984  -1.05548  -1.05538  -1.04128  -1.03497
 Alpha  occ. eigenvalues --   -0.94937  -0.93314  -0.91411  -0.90772  -0.90675
 Alpha  occ. eigenvalues --   -0.90521  -0.90505  -0.89786  -0.89470  -0.89250
 Alpha  occ. eigenvalues --   -0.89142  -0.88917  -0.88843  -0.88347  -0.86200
 Alpha  occ. eigenvalues --   -0.86192  -0.85858  -0.85727  -0.84633  -0.84363
 Alpha  occ. eigenvalues --   -0.83937  -0.83533  -0.83432  -0.83045  -0.82612
 Alpha  occ. eigenvalues --   -0.82093  -0.80926  -0.79823  -0.79638  -0.79393
 Alpha  occ. eigenvalues --   -0.78873  -0.78648  -0.77808  -0.77764  -0.77201
 Alpha  occ. eigenvalues --   -0.77154  -0.75208  -0.74650  -0.74232  -0.73675
 Alpha  occ. eigenvalues --   -0.71079  -0.70927  -0.70871  -0.70496  -0.69875
 Alpha  occ. eigenvalues --   -0.69787  -0.69240  -0.69190  -0.68005  -0.67874
 Alpha  occ. eigenvalues --   -0.67568  -0.67538  -0.67031  -0.66931  -0.66580
 Alpha  occ. eigenvalues --   -0.66526  -0.64620  -0.63238  -0.62533  -0.62108
 Alpha  occ. eigenvalues --   -0.61868  -0.61566  -0.61283  -0.60899  -0.60558
 Alpha  occ. eigenvalues --   -0.60336  -0.59710  -0.59652  -0.59279  -0.59174
 Alpha  occ. eigenvalues --   -0.58948  -0.57951  -0.57743  -0.57685  -0.57391
 Alpha  occ. eigenvalues --   -0.57193  -0.56917  -0.56288  -0.55726  -0.55673
 Alpha  occ. eigenvalues --   -0.55454  -0.55281  -0.55098  -0.55066  -0.54871
 Alpha  occ. eigenvalues --   -0.54727  -0.54542  -0.54497  -0.54384  -0.54172
 Alpha  occ. eigenvalues --   -0.53869  -0.53486  -0.53439  -0.53245  -0.53130
 Alpha  occ. eigenvalues --   -0.53067  -0.52995  -0.52830  -0.52737  -0.52495
 Alpha  occ. eigenvalues --   -0.52252  -0.51821  -0.51821  -0.51480  -0.51335
 Alpha  occ. eigenvalues --   -0.51198  -0.51088  -0.50981  -0.50723  -0.50602
 Alpha  occ. eigenvalues --   -0.50387  -0.50297  -0.50204  -0.50043  -0.49941
 Alpha  occ. eigenvalues --   -0.49716  -0.49707  -0.49646  -0.49547  -0.49356
 Alpha  occ. eigenvalues --   -0.49227  -0.49074  -0.48992  -0.48777  -0.48713
 Alpha  occ. eigenvalues --   -0.48468  -0.48245  -0.48231  -0.48038  -0.47936
 Alpha  occ. eigenvalues --   -0.47506  -0.47408  -0.47278  -0.47104  -0.46856
 Alpha  occ. eigenvalues --   -0.46692  -0.46308  -0.46171  -0.46032  -0.45884
 Alpha  occ. eigenvalues --   -0.45838  -0.45658  -0.45612  -0.45480  -0.45412
 Alpha  occ. eigenvalues --   -0.45226  -0.45162  -0.44905  -0.44890  -0.44537
 Alpha  occ. eigenvalues --   -0.44472  -0.44329  -0.44053  -0.43872  -0.43851
 Alpha  occ. eigenvalues --   -0.43605  -0.43555  -0.43445  -0.43091  -0.43033
 Alpha  occ. eigenvalues --   -0.42935  -0.42675  -0.42648  -0.42520  -0.42461
 Alpha  occ. eigenvalues --   -0.42221  -0.41960  -0.41566  -0.41230  -0.40933
 Alpha  occ. eigenvalues --   -0.40637  -0.40410  -0.40246  -0.40028  -0.39894
 Alpha  occ. eigenvalues --   -0.39394  -0.39373  -0.38871  -0.38380  -0.38344
 Alpha  occ. eigenvalues --   -0.38071  -0.37589  -0.36806  -0.36733  -0.36565
 Alpha  occ. eigenvalues --   -0.35874  -0.35622  -0.35236  -0.34000  -0.33706
 Alpha  occ. eigenvalues --   -0.33268  -0.33215  -0.32653  -0.32604  -0.32359
 Alpha  occ. eigenvalues --   -0.32292  -0.31897  -0.31451  -0.26091  -0.26076
 Alpha  occ. eigenvalues --   -0.23478  -0.22859
 Alpha virt. eigenvalues --   -0.06951  -0.06874  -0.00721  -0.00081   0.01832
 Alpha virt. eigenvalues --    0.02281   0.04106   0.04372   0.04856   0.05448
 Alpha virt. eigenvalues --    0.06765   0.07199   0.07456   0.07877   0.08150

 Mulliken charges:
               1
     1  Mg   0.973437
     2  C   -0.080630
     3  C   -0.110107
     4  C   -0.086288
     5  C   -0.082904
     6  N   -0.403968
     7  C   -0.008543
     8  C   -0.052690
     9  C   -0.092033
    10  C    0.125936
    11  C    0.014011
    12  C    0.023099
    13  C   -0.127703
    14  H    0.043654
    15  N   -0.430212
    16  C    0.152970
    17  C   -0.190578
    18  C   -0.078607
    19  C    0.194647
    20  C    0.116376
    21  C    0.044381
    22  O   -0.256311
    23  C   -0.009231
    24  N   -0.325089
    25  C    0.022917
    26  C   -0.076371
    27  C   -0.052199
    28  C    0.038448
    29  C    0.010498
    30  C   -0.007634
    31  C   -0.058076
    32  N   -0.440865
    33  C    0.101331
    34  C   -0.206399
    35  C   -0.044025
    36  C    0.153193
    37  C    0.107370
    38  C    0.155659
    39  O   -0.229581
    40  C   -0.059896
    41  C    0.289167
    42  O   -0.247499
    43  O   -0.356416
    44  C    0.133510
    45  H    0.007760
    46  H   -0.019781
    47  H   -0.011039
    48  H    0.025028
    49  H    0.032685
    50  H    0.036811
    51  H    0.034799
    52  H    0.038363
    53  H    0.030655
    54  H    0.030222
    55  H    0.066521
    56  H    0.049549
    57  H    0.065547
    58  H    0.072096
    59  H    0.012118
    60  H    0.080671
    61  H    0.058220
    62  H    0.060680
    63  H    0.046711
    64  H    0.034027
    65  H    0.046848
    66  H    0.033511
    67  H    0.037691
    68  H    0.033060
    69  H    0.028776
    70  H    0.039088
    71  H    0.028555
    72  H    0.041193
    73  H    0.021198
    74  H    0.075412
    75  H    0.050677
    76  H    0.064518
    77  H    0.055180
    78  H    0.052200
    79  H    0.053700
    80  Mg   0.950508
    81  C   -0.001413
    82  C   -0.092544
    83  C   -0.057170
    84  C   -0.097718
    85  N   -0.289104
    86  C   -0.080040
    87  C   -0.022168
    88  C   -0.152108
    89  C    0.044774
    90  C    0.020213
    91  C    0.019310
    92  C   -0.121953
    93  H   -0.003134
    94  N   -0.573458
    95  C    0.230569
    96  C   -0.157434
    97  C   -0.064064
    98  C    0.176371
    99  C    0.067633
   100  C    0.056999
   101  O   -0.243316
   102  C   -0.029292
   103  N   -0.281878
   104  C    0.040605
   105  C   -0.118732
   106  C   -0.082454
   107  C    0.022909
   108  C    0.039323
   109  C   -0.018067
   110  C   -0.035001
   111  N   -0.420990
   112  C    0.154686
   113  C   -0.152073
   114  C   -0.029658
   115  C    0.146344
   116  C    0.092549
   117  C    0.133350
   118  O   -0.250548
   119  C   -0.095355
   120  C    0.288853
   121  O   -0.246487
   122  O   -0.409278
   123  C    0.146534
   124  H   -0.006521
   125  H    0.019204
   126  H   -0.015428
   127  H    0.025016
   128  H    0.044112
   129  H    0.036972
   130  H    0.039578
   131  H    0.044117
   132  H    0.028247
   133  H    0.057675
   134  H    0.065771
   135  H    0.078919
   136  H    0.055741
   137  H    0.031560
   138  H    0.060647
   139  H    0.053825
   140  H    0.050803
   141  H    0.060023
   142  H    0.047683
   143  H    0.033920
   144  H    0.061753
   145  H    0.028974
   146  H    0.039229
   147  H    0.034213
   148  H    0.025043
   149  H    0.022679
   150  H    0.040444
   151  H    0.046527
   152  H    0.029859
   153  H    0.045534
   154  H    0.072003
   155  H    0.082488
   156  H    0.044171
   157  H    0.042324
   158  H    0.066806
 Sum of Mulliken charges =  -0.00000

 Dipole moment (field-independent basis, Debye):
    X=              1.9758    Y=              1.1240    Z=             -2.4825  Tot=              3.3660
 Quadrupole moment (field-independent basis, Debye-Ang):
   XX=           -388.5632   YY=           -461.1003   ZZ=           -480.4070
   XY=            -37.9200   XZ=            -36.7607   YZ=            -11.3793

 Normal termination of Gaussian 16 at Mon Sep 20 16:07:48 2021.
