 Gaussian 16, Revision A.03,
 Gaussian 16:  ES64L-G16RevA.03 25-Dec-2016

 --------------------------------
 #p wB97XD/Def2SVP td=(nstates=5)
 --------------------------------

 --------------------------------
 TDDFT excited states in gaussian
 --------------------------------
 Symbolic Z-matrix:
 Charge =  0 Multiplicity = 1

                         Standard orientation:
 ---------------------------------------------------------------------
 Center     Atomic      Atomic             Coordinates (Angstroms)
 Number     Number       Type             X           Y           Z
 ---------------------------------------------------------------------
      1         12           0       -5.060647   -0.266224    0.983522
      2          6           0       -4.571141    3.008051   -0.209157
      3          6           0       -2.492771    0.321336    3.253187
      4          6           0       -5.338769   -3.459782    1.850355
      5          6           0       -7.033078   -0.971918   -1.932297
      6          7           0       -3.692729    1.432726    1.443102
      7          6           0       -3.783522    2.716781    0.887734
      8          6           0       -3.073682    3.703021    1.796709
      9          6           0       -2.189219    2.826900    2.728828
     10          6           0       -2.834855    1.433274    2.464626
     11          6           0       -0.645902    2.927429    2.517156
     12          6           0       -4.022816    4.695156    2.554076
     13          6           0       -3.377612    6.121589    2.843427
     14          1           0       -1.925410    6.349436    2.415401
     15          7           0       -4.170202   -1.331461    2.401330
     16          6           0       -3.195964   -0.902457    3.286184
     17          6           0       -2.897308   -1.924238    4.247689
     18          6           0       -3.610264   -3.080399    3.795391
     19          6           0       -4.427882   -2.635377    2.681001
     20          6           0       -1.850870   -1.755957    5.391302
     21          6           0       -3.564336   -4.475535    4.327216
     22          8           0       -4.127098   -5.423715    3.729529
     23          6           0       -2.807138   -5.029137    5.570081
     24          7           0       -5.811805   -2.048659   -0.036625
     25          6           0       -5.897850   -3.232690    0.598634
     26          6           0       -6.864700   -4.182140   -0.152639
     27          6           0       -7.390197   -3.409634   -1.367897
     28          6           0       -6.720931   -1.997879   -1.061094
     29          6           0       -6.253595   -5.529754   -0.388112
     30          6           0       -8.921604   -3.341722   -1.550979
     31          6           0       -9.701099   -2.700584   -0.376454
     32          7           0       -5.666512    0.745296   -0.800095
     33          6           0       -6.559151    0.377305   -1.748547
     34          6           0       -6.872306    1.580242   -2.518337
     35          6           0       -6.155552    2.680671   -1.970370
     36          6           0       -5.377296    2.111273   -0.933301
     37          6           0       -7.909676    1.678610   -3.633723
     38          6           0       -5.895407    4.080959   -2.075034
     39          8           0       -6.377301    4.989837   -2.745918
     40          6           0       -4.740919    4.360459   -0.908644
     41          6           0       -3.540632    5.033817   -1.547033
     42          8           0       -2.684142    4.434395   -2.166974
     43          8           0       -3.510296    6.375167   -1.239904
     44          6           0       -2.681060    7.265444   -2.045712
     45          1           0       -1.769916    0.655772    3.999991
     46          1           0       -5.462243   -4.471717    2.241034
     47          1           0       -7.747314   -1.229442   -2.716777
     48          1           0       -2.421678    4.338914    1.198028
     49          1           0       -2.417804    3.123709    3.752020
     50          1           0       -0.368421    1.889173    2.338262
     51          1           0       -0.148712    3.218562    3.443219
     52          1           0       -0.249963    3.528385    1.698541
     53          1           0       -4.267389    4.329413    3.550849
     54          1           0       -4.954655    4.777275    1.996057
     55          1           0       -3.315090    6.234254    3.925896
     56          1           0       -4.025773    6.867446    2.383979
     57          1           0       -1.321692   -2.704220    5.493093
     58          1           0       -2.313579   -1.547215    6.355299
     59          1           0       -1.089290   -0.977232    5.353119
     60          1           0       -3.089791   -4.479693    6.468480
     61          1           0       -1.725953   -5.034546    5.432097
     62          1           0       -3.181039   -5.985513    5.933733
     63          1           0       -7.631346   -4.446847    0.574435
     64          1           0       -6.806584   -3.788129   -2.207828
     65          1           0       -6.615555   -6.286217    0.308449
     66          1           0       -5.166438   -5.454168   -0.360950
     67          1           0       -6.430138   -5.932335   -1.386161
     68          1           0       -9.208986   -4.391513   -1.613179
     69          1           0       -9.166414   -2.837044   -2.486046
     70          1           0      -10.215654   -1.843647   -0.810717
     71          1           0       -8.960383   -2.400628    0.364859
     72          1           0      -10.357619   -3.388723    0.156265
     73          1           0       -8.519670    2.578535   -3.560683
     74          1           0       -8.655115    0.887673   -3.556153
     75          1           0       -7.393833    1.554146   -4.586230
     76          1           0       -5.206552    5.088680   -0.244089
     77          1           0       -1.755599    6.725921   -2.248763
     78          1           0       -2.412775    8.204480   -1.561506
     79          1           0       -3.284521    7.511602   -2.919442
     80         12           0        4.261715   -0.682284   -1.117648
     81          6           0        7.168198    0.782381   -0.048686
     82          6           0        2.663195    2.243347   -0.826470
     83          6           0        1.434010   -2.319417   -1.946521
     84          6           0        5.923880   -3.909173   -0.908665
     85          7           0        4.834423    1.264469   -0.226558
     86          6           0        6.080424    1.677904    0.034429
     87          6           0        6.094924    3.251170    0.395424
     88          6           0        4.590878    3.609789    0.098405
     89          6           0        3.930576    2.279724   -0.317193
     90          6           0        3.896504    4.368303    1.246207
     91          6           0        7.110112    4.078391   -0.443272
     92          6           0        6.970762    5.635773   -0.450841
     93          1           0        7.983816    6.465584    0.425759
     94          7           0        2.287542   -0.115505   -1.308339
     95          6           0        1.843938    1.123117   -1.253545
     96          6           0        0.422204    1.121326   -1.563148
     97          6           0       -0.023335   -0.214794   -1.794558
     98          6           0        1.254867   -0.952895   -1.693712
     99          6           0       -0.500266    2.326290   -1.480931
    100          6           0       -1.423460   -0.770937   -2.032111
    101          8           0       -1.655223   -1.971356   -1.921162
    102          6           0       -2.515226    0.172199   -2.399093
    103          7           0        3.749148   -2.829521   -1.343471
    104          6           0        2.539217   -3.213791   -1.732342
    105          6           0        2.487428   -4.715066   -2.060967
    106          6           0        3.960152   -5.089902   -1.917131
    107          6           0        4.564397   -3.873152   -1.322033
    108          6           0        1.521938   -5.597060   -1.255378
    109          6           0        4.565233   -5.698443   -3.156851
    110          6           0        5.063145   -7.182291   -3.029153
    111          7           0        6.110719   -1.423375   -0.657741
    112          6           0        6.689321   -2.736463   -0.689463
    113          6           0        8.110204   -2.687892   -0.423402
    114          6           0        8.291034   -1.296274   -0.189524
    115          6           0        7.078554   -0.609733   -0.331408
    116          6           0        9.170910   -3.726609   -0.524764
    117          6           0        9.373323   -0.357200   -0.035547
    118          8           0       10.608335   -0.440414   -0.110871
    119          6           0        8.755260    0.999304    0.194134
    120          6           0        8.950774    1.378659    1.678637
    121          8           0        8.813301    0.647614    2.671462
    122          8           0        9.302897    2.694937    1.722994
    123          6           0        9.586336    3.295219    3.065108
    124          1           0        2.060123    3.151321   -0.892521
    125          1           0        0.545471   -2.950222   -2.017548
    126          1           0        6.386591   -4.893401   -1.000982
    127          1           0        6.305780    3.268132    1.464086
    128          1           0        4.574650    4.232807   -0.795819
    129          1           0        3.313096    5.166726    0.788962
    130          1           0        4.614585    4.848278    1.911191
    131          1           0        3.252989    3.701544    1.820289
    132          1           0        6.884415    3.832375   -1.480871
    133          1           0        8.127138    3.859875   -0.117879
    134          1           0        6.014239    5.867593    0.018714
    135          1           0        7.083354    5.990407   -1.474790
    136          1           0        0.044010    3.224717   -1.189997
    137          1           0       -1.279156    2.139971   -0.741928
    138          1           0       -0.997230    2.522609   -2.430129
    139          1           0       -2.108201    0.774839   -3.211523
    140          1           0       -2.950859    0.879936   -1.694458
    141          1           0       -3.413802   -0.336698   -2.746257
    142          1           0        2.190809   -4.812201   -3.104767
    143          1           0        4.019096   -5.874387   -1.162880
    144          1           0        1.121055   -6.289943   -1.994767
    145          1           0        0.780425   -4.985331   -0.741728
    146          1           0        1.979188   -6.106453   -0.407178
    147          1           0        5.470974   -5.113129   -3.312195
    148          1           0        3.903004   -5.678110   -4.021900
    149          1           0        4.906646   -7.541391   -2.011624
    150          1           0        6.135721   -7.179704   -3.225669
    151          1           0        4.661342   -7.876270   -3.767565
    152          1           0        8.771947   -4.625588   -0.993881
    153          1           0        9.381521   -4.018254    0.503515
    154          1           0        9.963270   -3.257432   -1.109767
    155          1           0        9.310294    1.660148   -0.471959
    156          1           0        8.853578    3.067063    3.839517
    157          1           0        9.750267    4.372221    3.050808
    158          1           0       10.500199    2.810920    3.408795
 ---------------------------------------------------------------------

 SCF Done:  E(RwB97XD) =  -4070.63676933     A.U. after   19 cycles

 Excitation energies and oscillator strengths:

 Excited State   1:      Singlet-A      1.6067 eV  771.67 nm  f=0.2722  <S**2>=0.000
     309 -> 315       -0.16541
     311 -> 313        0.67099
     312 -> 314        0.13655
     309 <- 315       -0.11003
 This state for optimization and/or second-order correction.
 Total Energy, E(TD-HF/TD-DFT) =  -4070.57772409
 Copying the excited state density for this state as the 1-particle RhoCI density.

 Excited State   2:      Singlet-A      1.6682 eV  743.22 nm  f=0.5293  <S**2>=0.000
     310 -> 316        0.17943
     311 -> 313       -0.13802
     312 -> 314        0.66748
     310 <- 316        0.11152

 Excited State   3:      Singlet-A      2.1321 eV  581.52 nm  f=0.1156  <S**2>=0.000
     309 -> 313        0.65355
     311 -> 315        0.24531

 Excited State   4:      Singlet-A      2.2387 eV  553.82 nm  f=0.1043  <S**2>=0.000
     310 -> 314        0.63192
     312 -> 316       -0.29789

 Excited State   5:      Singlet-A      2.4187 eV  512.60 nm  f=0.0001  <S**2>=0.000
     312 -> 313        0.70417

 The electronic state is 1-A.
 Alpha  occ. eigenvalues --  -46.95586 -46.95037 -19.30598 -19.30393 -19.25360
 Alpha  occ. eigenvalues --  -19.24879 -19.24117 -19.23680 -19.23545 -19.22243
 Alpha  occ. eigenvalues --  -14.47621 -14.46254 -14.46176 -14.45811 -14.45199
 Alpha  occ. eigenvalues --  -14.44401 -14.44131 -14.43376 -10.43990 -10.43125
 Alpha  occ. eigenvalues --  -10.40120 -10.39726 -10.38934 -10.36876 -10.36025
 Alpha  occ. eigenvalues --  -10.35900 -10.35765 -10.35455 -10.35233 -10.35226
 Alpha  occ. eigenvalues --  -10.35087 -10.34997 -10.34641 -10.34553 -10.34130
 Alpha  occ. eigenvalues --  -10.34119 -10.34077 -10.33915 -10.33852 -10.33672
 Alpha  occ. eigenvalues --  -10.33431 -10.33395 -10.33388 -10.33155 -10.32941
 Alpha  occ. eigenvalues --  -10.32837 -10.32620 -10.32475 -10.32324 -10.32221
 Alpha  occ. eigenvalues --  -10.32131 -10.32051 -10.32003 -10.31963 -10.31911
 Alpha  occ. eigenvalues --  -10.31841 -10.31759 -10.31712 -10.31595 -10.31555
 Alpha  occ. eigenvalues --  -10.31518 -10.31042 -10.31041 -10.30869 -10.30854
 Alpha  occ. eigenvalues --  -10.30786 -10.30637 -10.30455 -10.30452 -10.30451
 Alpha  occ. eigenvalues --  -10.30354 -10.30243 -10.30104 -10.29973 -10.29807
 Alpha  occ. eigenvalues --  -10.29789 -10.29737 -10.29725 -10.29678 -10.29573
 Alpha  occ. eigenvalues --  -10.29210 -10.29118 -10.29101 -10.28756 -10.28431
 Alpha  occ. eigenvalues --  -10.27852  -3.21603  -3.21006  -1.95160  -1.94725
 Alpha  occ. eigenvalues --   -1.94589  -1.94583  -1.94122  -1.93988  -1.18599
 Alpha  occ. eigenvalues --   -1.17474  -1.12171  -1.11551  -1.10879  -1.10706
 Alpha  occ. eigenvalues --   -1.09723  -1.08447  -1.07246  -1.06744  -1.05902
 Alpha  occ. eigenvalues --   -1.05869  -1.05535  -1.05385  -1.04511  -1.04490
 Alpha  occ. eigenvalues --   -0.94655  -0.92762  -0.91345  -0.91206  -0.90848
 Alpha  occ. eigenvalues --   -0.90450  -0.90289  -0.89635  -0.89584  -0.89087
 Alpha  occ. eigenvalues --   -0.88744  -0.88456  -0.88255  -0.87613  -0.86041
 Alpha  occ. eigenvalues --   -0.85669  -0.85596  -0.84810  -0.84526  -0.83778
 Alpha  occ. eigenvalues --   -0.83338  -0.83040  -0.82789  -0.82619  -0.82202
 Alpha  occ. eigenvalues --   -0.81430  -0.80933  -0.79783  -0.79192  -0.79097
 Alpha  occ. eigenvalues --   -0.78759  -0.78226  -0.78179  -0.77684  -0.77220
 Alpha  occ. eigenvalues --   -0.76723  -0.74865  -0.74056  -0.73359  -0.73226
 Alpha  occ. eigenvalues --   -0.72034  -0.71452  -0.70937  -0.70747  -0.70541
 Alpha  occ. eigenvalues --   -0.69889  -0.69248  -0.68805  -0.67643  -0.67321
 Alpha  occ. eigenvalues --   -0.67268  -0.66564  -0.66453  -0.66238  -0.66053
 Alpha  occ. eigenvalues --   -0.65483  -0.64313  -0.64236  -0.63215  -0.61912
 Alpha  occ. eigenvalues --   -0.61776  -0.61214  -0.61150  -0.60413  -0.60359
 Alpha  occ. eigenvalues --   -0.60103  -0.59991  -0.59494  -0.59373  -0.58980
 Alpha  occ. eigenvalues --   -0.58213  -0.58098  -0.57635  -0.57319  -0.57124
 Alpha  occ. eigenvalues --   -0.56822  -0.56748  -0.56576  -0.56086  -0.55868
 Alpha  occ. eigenvalues --   -0.55757  -0.55453  -0.55312  -0.54938  -0.54834
 Alpha  occ. eigenvalues --   -0.54646  -0.54562  -0.54268  -0.53966  -0.53767
 Alpha  occ. eigenvalues --   -0.53665  -0.53514  -0.53305  -0.53162  -0.53027
 Alpha  occ. eigenvalues --   -0.52693  -0.52560  -0.52245  -0.52186  -0.51876
 Alpha  occ. eigenvalues --   -0.51830  -0.51674  -0.51420  -0.51356  -0.51267
 Alpha  occ. eigenvalues --   -0.51136  -0.51046  -0.50928  -0.50898  -0.50581
 Alpha  occ. eigenvalues --   -0.50463  -0.50295  -0.50124  -0.50085  -0.50009
 Alpha  occ. eigenvalues --   -0.49846  -0.49628  -0.49361  -0.49292  -0.49008
 Alpha  occ. eigenvalues --   -0.48789  -0.48702  -0.48590  -0.48436  -0.48232
 Alpha  occ. eigenvalues --   -0.48138  -0.47790  -0.47782  -0.47567  -0.47529
 Alpha  occ. eigenvalues --   -0.47470  -0.47080  -0.46687  -0.46611  -0.46332
 Alpha  occ. eigenvalues --   -0.46312  -0.46173  -0.46122  -0.46011  -0.45873
 Alpha  occ. eigenvalues --   -0.45817  -0.45501  -0.45484  -0.45401  -0.45189
 Alpha  occ. eigenvalues --   -0.45177  -0.44779  -0.44636  -0.44606  -0.44388
 Alpha  occ. eigenvalues --   -0.44203  -0.44121  -0.44043  -0.43818  -0.43768
 Alpha  occ. eigenvalues --   -0.43705  -0.43468  -0.43347  -0.43174  -0.43025
 Alpha  occ. eigenvalues --   -0.42873  -0.42746  -0.42614  -0.42340  -0.42250
 Alpha  occ. eigenvalues --   -0.41960  -0.41701  -0.41538  -0.40759  -0.40749
 Alpha  occ. eigenvalues --   -0.40622  -0.40154  -0.39946  -0.39804  -0.39275
 Alpha  occ. eigenvalues --   -0.39225  -0.38909  -0.38767  -0.38614  -0.38413
 Alpha  occ. eigenvalues --   -0.37966  -0.37478  -0.36917  -0.36062  -0.35850
 Alpha  occ. eigenvalues --   -0.35720  -0.35608  -0.35088  -0.34047  -0.33311
 Alpha  occ. eigenvalues --   -0.33257  -0.32843  -0.32800  -0.32482  -0.32051
 Alpha  occ. eigenvalues --   -0.31982  -0.31473  -0.31308  -0.26394  -0.25369
 Alpha  occ. eigenvalues --   -0.23585  -0.22384
 Alpha virt. eigenvalues --   -0.07937  -0.06303   0.00109   0.00681   0.01641
 Alpha virt. eigenvalues --    0.03330   0.03720   0.04359   0.05244   0.05532
 Alpha virt. eigenvalues --    0.06381   0.07342   0.07696   0.08129   0.08142

 Mulliken charges:
               1
     1  Mg   0.964113
     2  C    0.009390
     3  C   -0.054910
     4  C   -0.060713
     5  C   -0.062148
     6  N   -0.339538
     7  C   -0.024719
     8  C   -0.026969
     9  C   -0.099683
    10  C    0.009826
    11  C    0.025892
    12  C   -0.006548
    13  C   -0.128729
    14  H    0.032742
    15  N   -0.496514
    16  C    0.193293
    17  C   -0.134957
    18  C   -0.052315
    19  C    0.143036
    20  C    0.058304
    21  C    0.037080
    22  O   -0.269563
    23  C   -0.007432
    24  N   -0.338862
    25  C    0.086719
    26  C   -0.131652
    27  C   -0.020574
    28  C    0.015763
    29  C    0.019501
    30  C   -0.020115
    31  C   -0.045887
    32  N   -0.427033
    33  C    0.145419
    34  C   -0.209031
    35  C    0.006472
    36  C    0.099561
    37  C    0.073010
    38  C    0.117502
    39  O   -0.206318
    40  C   -0.133013
    41  C    0.280482
    42  O   -0.239159
    43  O   -0.376943
    44  C    0.132682
    45  H   -0.001750
    46  H    0.024366
    47  H   -0.003835
    48  H    0.023526
    49  H    0.034129
    50  H    0.038376
    51  H    0.036722
    52  H    0.051535
    53  H    0.031298
    54  H    0.037623
    55  H    0.055972
    56  H    0.069214
    57  H    0.039822
    58  H    0.051959
    59  H    0.048294
    60  H    0.031339
    61  H    0.075368
    62  H    0.049361
    63  H    0.037167
    64  H    0.042227
    65  H    0.042648
    66  H    0.047780
    67  H    0.023174
    68  H    0.033912
    69  H    0.039376
    70  H    0.046735
    71  H    0.038281
    72  H    0.043380
    73  H    0.057630
    74  H    0.019581
    75  H    0.058220
    76  H    0.067408
    77  H    0.058128
    78  H    0.056374
    79  H    0.067055
    80  Mg   0.966880
    81  C   -0.074589
    82  C   -0.082957
    83  C   -0.049522
    84  C   -0.067631
    85  N   -0.355544
    86  C   -0.028705
    87  C   -0.008793
    88  C   -0.152500
    89  C    0.120349
    90  C    0.023470
    91  C   -0.009237
    92  C   -0.130562
    93  H    0.013093
    94  N   -0.439292
    95  C    0.118541
    96  C   -0.190059
    97  C   -0.054631
    98  C    0.130815
    99  C    0.079362
   100  C    0.084118
   101  O   -0.231075
   102  C   -0.027492
   103  N   -0.274109
   104  C   -0.006664
   105  C   -0.115168
   106  C   -0.054120
   107  C    0.007361
   108  C    0.036156
   109  C    0.001045
   110  C   -0.067762
   111  N   -0.456291
   112  C    0.121223
   113  C   -0.172718
   114  C   -0.078248
   115  C    0.204459
   116  C    0.109290
   117  C    0.101543
   118  O   -0.242519
   119  C   -0.055444
   120  C    0.292989
   121  O   -0.267437
   122  O   -0.365025
   123  C    0.139189
   124  H   -0.020317
   125  H    0.029929
   126  H    0.002079
   127  H    0.038258
   128  H    0.037549
   129  H    0.033251
   130  H    0.040230
   131  H    0.046838
   132  H    0.032600
   133  H    0.073179
   134  H    0.047188
   135  H    0.065604
   136  H    0.020573
   137  H    0.043526
   138  H    0.064248
   139  H    0.048116
   140  H    0.079955
   141  H    0.058362
   142  H    0.038664
   143  H    0.019877
   144  H    0.045839
   145  H    0.045783
   146  H    0.028443
   147  H    0.030464
   148  H    0.036151
   149  H    0.032351
   150  H    0.032860
   151  H    0.040995
   152  H    0.018204
   153  H    0.063255
   154  H    0.079948
   155  H    0.068453
   156  H    0.057078
   157  H    0.062811
   158  H    0.056017
 Sum of Mulliken charges =  -0.00000

 Dipole moment (field-independent basis, Debye):
    X=             -5.6887    Y=              2.1864    Z=              3.1374  Tot=              6.8546
 Quadrupole moment (field-independent basis, Debye-Ang):
   XX=           -569.1422   YY=           -478.8082   ZZ=           -483.7201
   XY=             22.7557   XZ=            -19.5319   YZ=             29.8185

 Normal termination of Gaussian 16 at Sun Sep 19 04:50:29 2021.
