 Gaussian 16, Revision A.03,
 Gaussian 16:  ES64L-G16RevA.03 25-Dec-2016

 --------------------------------
 #p wB97XD/Def2SVP td=(nstates=5)
 --------------------------------

 --------------------------------
 TDDFT excited states in gaussian
 --------------------------------
 Symbolic Z-matrix:
 Charge =  0 Multiplicity = 1

                         Standard orientation:
 ---------------------------------------------------------------------
 Center     Atomic      Atomic             Coordinates (Angstroms)
 Number     Number       Type             X           Y           Z
 ---------------------------------------------------------------------
      1         12           0       11.052965    0.071050   -0.050913
      2          6           0        8.053570    0.835412    1.491466
      3          6           0       10.287833   -3.370909    0.349480
      4          6           0       13.695073   -0.773398   -2.062962
      5          6           0       11.554207    3.392036   -0.856406
      6          7           0        9.413846   -1.078324    0.943345
      7          6           0        8.239074   -0.532458    1.416323
      8          6           0        7.136250   -1.599286    1.770297
      9          6           0        8.011499   -2.940200    1.777357
     10          6           0        9.376825   -2.487819    1.013210
     11          6           0        8.315942   -3.654988    3.148777
     12          6           0        5.994914   -1.673399    0.818054
     13          6           0        4.578798   -1.387962    1.279926
     14          1           0        3.460168   -2.108133    0.510006
     15          7           0       11.937343   -1.833156   -0.685714
     16          6           0       11.456503   -3.108873   -0.335396
     17          6           0       12.341256   -4.109869   -0.840826
     18          6           0       13.289328   -3.361699   -1.707499
     19          6           0       13.007453   -1.902629   -1.537676
     20          6           0       12.098722   -5.617112   -0.709976
     21          6           0       14.346377   -4.092736   -2.553496
     22          8           0       14.518097   -5.304969   -2.643651
     23          6           0       15.030156   -3.300531   -3.610928
     24          7           0       12.389623    1.181757   -1.489491
     25          6           0       13.474704    0.596332   -2.014389
     26          6           0       14.064263    1.591181   -3.013109
     27          6           0       13.461388    3.015813   -2.605213
     28          6           0       12.384710    2.531643   -1.534587
     29          6           0       15.624558    1.641857   -2.847939
     30          6           0       12.819234    3.946592   -3.714188
     31          6           0       13.459391    5.280026   -4.070234
     32          7           0       10.050211    1.836270    0.318122
     33          6           0       10.387775    3.144786   -0.041479
     34          6           0        9.363041    4.047579    0.385846
     35          6           0        8.389015    3.204272    1.004454
     36          6           0        8.926204    1.858974    0.956916
     37          6           0        9.294113    5.531677    0.208556
     38          6           0        7.171356    3.141716    1.702018
     39          8           0        6.432505    4.058548    2.000545
     40          6           0        6.856541    1.620028    1.975630
     41          6           0        6.405492    1.477788    3.368822
     42          8           0        5.233763    1.299991    3.681977
     43          8           0        7.481783    1.601304    4.234754
     44          6           0        7.091403    1.512388    5.659786
     45          1           0       10.182397   -4.452672    0.450774
     46          1           0       14.568529   -1.127901   -2.614924
     47          1           0       11.708642    4.430238   -1.157225
     48          1           0        6.757248   -1.407913    2.773606
     49          1           0        7.523132   -3.629469    1.087579
     50          1           0        7.653447   -3.212678    3.892729
     51          1           0        9.352410   -3.582763    3.478619
     52          1           0        8.124681   -4.717139    3.000571
     53          1           0        5.951396   -2.707566    0.473122
     54          1           0        6.151251   -0.975766   -0.004027
     55          1           0        4.382730   -0.330020    1.107976
     56          1           0        4.398832   -1.665850    2.318181
     57          1           0       11.188336   -6.008249   -0.256311
     58          1           0       13.004220   -5.946167   -0.200773
     59          1           0       12.290678   -5.985184   -1.717327
     60          1           0       15.952789   -2.771237   -3.376712
     61          1           0       14.344371   -2.635879   -4.136538
     62          1           0       15.369892   -4.025033   -4.351983
     63          1           0       13.817357    1.350079   -4.047288
     64          1           0       14.186040    3.574322   -2.013753
     65          1           0       16.048736    1.526121   -3.845315
     66          1           0       16.050436    0.897866   -2.173551
     67          1           0       15.981844    2.581106   -2.425106
     68          1           0       11.802916    4.112013   -3.357331
     69          1           0       12.866167    3.361530   -4.633713
     70          1           0       12.649177    5.878739   -4.487169
     71          1           0       14.191442    5.119222   -4.861959
     72          1           0       13.910196    5.894322   -3.291517
     73          1           0        8.360523    5.844142    0.677128
     74          1           0        9.348849    5.730987   -0.861240
     75          1           0       10.090041    6.095495    0.695419
     76          1           0        5.997617    1.419207    1.334412
     77          1           0        6.855323    2.503928    6.045925
     78          1           0        7.908391    0.991857    6.159417
     79          1           0        6.230597    0.860169    5.804406
     80         12           0      -10.917744   -0.094371   -0.614682
     81          6           0       -8.040804   -0.880852    1.212230
     82          6           0      -10.255352    3.225019    0.147474
     83          6           0      -13.803030    0.615225   -1.934859
     84          6           0      -11.475561   -3.565022   -1.047234
     85          7           0       -9.516227    1.032997    0.913601
     86          6           0       -8.375901    0.505822    1.370946
     87          6           0       -7.592992    1.602767    2.011583
     88          6           0       -8.548871    2.820726    2.032577
     89          6           0       -9.504352    2.375262    0.943346
     90          6           0       -9.253709    3.214087    3.331974
     91          6           0       -6.275598    1.911679    1.231899
     92          6           0       -4.930708    2.003772    2.022704
     93          1           0       -4.952354    2.484310    3.507297
     94          7           0      -11.845422    1.732147   -0.998090
     95          6           0      -11.283620    2.978348   -0.754118
     96          6           0      -12.184602    3.942496   -1.296549
     97          6           0      -13.328249    3.212128   -1.814409
     98          6           0      -13.047104    1.797615   -1.619485
     99          6           0      -11.997915    5.472259   -1.196198
    100          6           0      -14.663440    3.743990   -2.410153
    101          8           0      -15.553898    3.052725   -2.791797
    102          6           0      -14.771952    5.249071   -2.556238
    103          7           0      -12.384976   -1.324482   -1.378081
    104          6           0      -13.540143   -0.777215   -1.817932
    105          6           0      -14.567600   -1.814830   -2.348273
    106          6           0      -13.676701   -3.129626   -2.297970
    107          6           0      -12.419811   -2.681426   -1.561639
    108          6           0      -15.913095   -1.822187   -1.417563
    109          6           0      -13.477423   -3.807344   -3.690016
    110          6           0      -12.189646   -3.520780   -4.441321
    111          7           0       -9.971860   -1.927999   -0.094540
    112          6           0      -10.265881   -3.226222   -0.413484
    113          6           0       -9.184805   -4.104431    0.156907
    114          6           0       -8.302190   -3.204667    0.796147
    115          6           0       -8.826548   -1.876191    0.664963
    116          6           0       -9.151275   -5.607675    0.211034
    117          6           0       -7.067487   -3.097899    1.569563
    118          8           0       -6.323595   -4.009775    1.941959
    119          6           0       -6.796471   -1.602747    1.707869
    120          6           0       -6.532088   -1.370990    3.168026
    121          8           0       -7.385402   -1.307001    4.033920
    122          8           0       -5.219578   -1.450062    3.313273
    123          6           0       -4.687487   -1.676461    4.647871
    124          1           0      -10.133855    4.250290    0.501841
    125          1           0      -14.683959    0.838638   -2.539740
    126          1           0      -11.641052   -4.634596   -1.194548
    127          1           0       -7.316487    1.289682    3.017872
    128          1           0       -7.934555    3.687115    1.787105
    129          1           0       -9.005697    2.625109    4.215157
    130          1           0      -10.335413    3.173618    3.200975
    131          1           0       -8.974155    4.249998    3.522628
    132          1           0       -6.351192    2.779014    0.576399
    133          1           0       -6.257055    1.040134    0.577703
    134          1           0       -4.344722    2.715013    1.439222
    135          1           0       -4.446308    1.027990    1.997070
    136          1           0      -12.861740    5.984829   -0.772790
    137          1           0      -11.920972    5.944888   -2.175505
    138          1           0      -11.111980    5.783930   -0.641372
    139          1           0      -13.918525    5.686296   -3.074916
    140          1           0      -14.923500    5.672183   -1.563130
    141          1           0      -15.712508    5.515739   -3.038222
    142          1           0      -14.885442   -1.604446   -3.369309
    143          1           0      -14.137624   -3.935786   -1.727395
    144          1           0      -15.854596   -2.762233   -0.868771
    145          1           0      -16.836034   -1.924299   -1.988833
    146          1           0      -15.933334   -1.039779   -0.658087
    147          1           0      -14.246152   -3.349034   -4.312353
    148          1           0      -13.656666   -4.881925   -3.661186
    149          1           0      -12.048390   -2.446212   -4.319102
    150          1           0      -12.465651   -3.818130   -5.452734
    151          1           0      -11.241222   -3.938731   -4.104793
    152          1           0      -10.023004   -6.163333   -0.134693
    153          1           0       -8.995168   -5.924581    1.242297
    154          1           0       -8.242609   -5.888174   -0.320713
    155          1           0       -5.863610   -1.263649    1.257011
    156          1           0       -5.363298   -1.872751    5.479633
    157          1           0       -4.228664   -0.715910    4.884238
    158          1           0       -3.740501   -2.207238    4.549144
 ---------------------------------------------------------------------

 SCF Done:  E(RwB97XD) =  -4070.59218804     A.U. after   19 cycles

 Excitation energies and oscillator strengths:

 Excited State   1:      Singlet-A      1.6658 eV  744.28 nm  f=0.2948  <S**2>=0.000
     309 -> 315       -0.17734
     311 -> 313        0.67970
     309 <- 315       -0.11268
 This state for optimization and/or second-order correction.
 Total Energy, E(TD-HF/TD-DFT) =  -4070.53097001
 Copying the excited state density for this state as the 1-particle RhoCI density.

 Excited State   2:      Singlet-A      1.6771 eV  739.27 nm  f=0.4759  <S**2>=0.000
     310 -> 316       -0.19044
     312 -> 314        0.67705
     310 <- 316       -0.11776

 Excited State   3:      Singlet-A      2.1185 eV  585.25 nm  f=0.1622  <S**2>=0.000
     309 -> 313        0.64869
     311 -> 315        0.25624

 Excited State   4:      Singlet-A      2.1601 eV  573.97 nm  f=0.0959  <S**2>=0.000
     310 -> 314        0.63984
     312 -> 316        0.28459

 Excited State   5:      Singlet-A      3.3076 eV  374.85 nm  f=0.0000  <S**2>=0.000
     312 -> 313        0.70696

 The electronic state is 1-A.
 Alpha  occ. eigenvalues --  -46.96894 -46.94980 -19.31292 -19.30437 -19.24875
 Alpha  occ. eigenvalues --  -19.24444 -19.24398 -19.24255 -19.23435 -19.23377
 Alpha  occ. eigenvalues --  -14.48226 -14.46623 -14.46217 -14.46028 -14.44771
 Alpha  occ. eigenvalues --  -14.44489 -14.43806 -14.43152 -10.43076 -10.42845
 Alpha  occ. eigenvalues --  -10.39403 -10.39363 -10.38261 -10.38234 -10.37350
 Alpha  occ. eigenvalues --  -10.36297 -10.35825 -10.35756 -10.35582 -10.35333
 Alpha  occ. eigenvalues --  -10.35158 -10.35001 -10.34852 -10.34647 -10.34626
 Alpha  occ. eigenvalues --  -10.34613 -10.34167 -10.34152 -10.33596 -10.33537
 Alpha  occ. eigenvalues --  -10.33484 -10.33390 -10.33198 -10.33163 -10.33098
 Alpha  occ. eigenvalues --  -10.32848 -10.32813 -10.32796 -10.32764 -10.32648
 Alpha  occ. eigenvalues --  -10.32411 -10.32389 -10.32372 -10.32317 -10.32309
 Alpha  occ. eigenvalues --  -10.32246 -10.32207 -10.32005 -10.31988 -10.31607
 Alpha  occ. eigenvalues --  -10.31503 -10.31392 -10.31023 -10.30980 -10.30930
 Alpha  occ. eigenvalues --  -10.30899 -10.30867 -10.30849 -10.30577 -10.30471
 Alpha  occ. eigenvalues --  -10.30456 -10.30303 -10.30242 -10.30195 -10.30161
 Alpha  occ. eigenvalues --  -10.30126 -10.29961 -10.29803 -10.29797 -10.29769
 Alpha  occ. eigenvalues --  -10.29693 -10.29390 -10.29027 -10.28968 -10.28915
 Alpha  occ. eigenvalues --  -10.28786  -3.22589  -3.20887  -1.96198  -1.95680
 Alpha  occ. eigenvalues --   -1.95550  -1.94482  -1.94044  -1.93816  -1.20355
 Alpha  occ. eigenvalues --   -1.17790  -1.13390  -1.12393  -1.12040  -1.11765
 Alpha  occ. eigenvalues --   -1.10698  -1.09781  -1.06869  -1.06859  -1.06129
 Alpha  occ. eigenvalues --   -1.05640  -1.04709  -1.04531  -1.03882  -1.03712
 Alpha  occ. eigenvalues --   -0.95244  -0.94620  -0.91542  -0.91329  -0.90464
 Alpha  occ. eigenvalues --   -0.90274  -0.90110  -0.89786  -0.89719  -0.89155
 Alpha  occ. eigenvalues --   -0.88886  -0.88094  -0.87904  -0.87280  -0.86514
 Alpha  occ. eigenvalues --   -0.86207  -0.85794  -0.85435  -0.84895  -0.84369
 Alpha  occ. eigenvalues --   -0.84244  -0.83167  -0.82908  -0.82805  -0.82560
 Alpha  occ. eigenvalues --   -0.81817  -0.79856  -0.79725  -0.79213  -0.79134
 Alpha  occ. eigenvalues --   -0.79014  -0.78731  -0.78225  -0.78076  -0.77528
 Alpha  occ. eigenvalues --   -0.76891  -0.75570  -0.74547  -0.74359  -0.73543
 Alpha  occ. eigenvalues --   -0.71407  -0.71337  -0.71043  -0.70730  -0.70064
 Alpha  occ. eigenvalues --   -0.69773  -0.69175  -0.67900  -0.67608  -0.67526
 Alpha  occ. eigenvalues --   -0.67358  -0.67058  -0.66856  -0.66774  -0.66468
 Alpha  occ. eigenvalues --   -0.66176  -0.65076  -0.64633  -0.62372  -0.61803
 Alpha  occ. eigenvalues --   -0.61683  -0.61527  -0.61493  -0.61142  -0.61020
 Alpha  occ. eigenvalues --   -0.60327  -0.59925  -0.59868  -0.59149  -0.58988
 Alpha  occ. eigenvalues --   -0.58676  -0.58622  -0.58005  -0.57850  -0.57491
 Alpha  occ. eigenvalues --   -0.56778  -0.56756  -0.56609  -0.56485  -0.55848
 Alpha  occ. eigenvalues --   -0.55570  -0.55424  -0.55256  -0.55021  -0.54874
 Alpha  occ. eigenvalues --   -0.54759  -0.54596  -0.54476  -0.54300  -0.54120
 Alpha  occ. eigenvalues --   -0.53904  -0.53764  -0.53477  -0.53340  -0.53177
 Alpha  occ. eigenvalues --   -0.52990  -0.52913  -0.52837  -0.52414  -0.52223
 Alpha  occ. eigenvalues --   -0.51969  -0.51775  -0.51526  -0.51483  -0.51239
 Alpha  occ. eigenvalues --   -0.51161  -0.50973  -0.50918  -0.50622  -0.50598
 Alpha  occ. eigenvalues --   -0.50460  -0.50292  -0.50155  -0.49918  -0.49850
 Alpha  occ. eigenvalues --   -0.49843  -0.49741  -0.49209  -0.49124  -0.49031
 Alpha  occ. eigenvalues --   -0.48683  -0.48673  -0.48592  -0.48183  -0.48156
 Alpha  occ. eigenvalues --   -0.47996  -0.47862  -0.47764  -0.47716  -0.47685
 Alpha  occ. eigenvalues --   -0.47657  -0.47451  -0.47356  -0.47287  -0.47180
 Alpha  occ. eigenvalues --   -0.47144  -0.46787  -0.46722  -0.46614  -0.46562
 Alpha  occ. eigenvalues --   -0.46247  -0.46137  -0.45730  -0.45642  -0.45535
 Alpha  occ. eigenvalues --   -0.45170  -0.45042  -0.45035  -0.44862  -0.44821
 Alpha  occ. eigenvalues --   -0.44726  -0.44475  -0.44415  -0.44242  -0.43935
 Alpha  occ. eigenvalues --   -0.43649  -0.43536  -0.43503  -0.43362  -0.43305
 Alpha  occ. eigenvalues --   -0.42953  -0.42826  -0.42445  -0.42409  -0.41988
 Alpha  occ. eigenvalues --   -0.41954  -0.41693  -0.41448  -0.41316  -0.41064
 Alpha  occ. eigenvalues --   -0.40324  -0.40169  -0.40008  -0.39480  -0.39278
 Alpha  occ. eigenvalues --   -0.38992  -0.38887  -0.38874  -0.38577  -0.38210
 Alpha  occ. eigenvalues --   -0.37993  -0.37913  -0.36603  -0.36412  -0.36233
 Alpha  occ. eigenvalues --   -0.35933  -0.35544  -0.35186  -0.34071  -0.33292
 Alpha  occ. eigenvalues --   -0.33267  -0.32854  -0.32559  -0.32374  -0.32148
 Alpha  occ. eigenvalues --   -0.32009  -0.31907  -0.30932  -0.26614  -0.25573
 Alpha  occ. eigenvalues --   -0.24046  -0.22732
 Alpha virt. eigenvalues --   -0.08159  -0.06685  -0.00486   0.00544   0.01994
 Alpha virt. eigenvalues --    0.02369   0.04254   0.05129   0.05406   0.06044
 Alpha virt. eigenvalues --    0.06981   0.07336   0.07973   0.08069   0.08363

 Mulliken charges:
               1
     1  Mg   0.930551
     2  C    0.060715
     3  C   -0.053544
     4  C   -0.067719
     5  C   -0.064544
     6  N   -0.367865
     7  C   -0.017631
     8  C   -0.066942
     9  C   -0.122739
    10  C    0.087926
    11  C    0.030117
    12  C    0.037194
    13  C   -0.149457
    14  H    0.025734
    15  N   -0.454837
    16  C    0.135317
    17  C   -0.149475
    18  C   -0.136647
    19  C    0.177620
    20  C    0.084139
    21  C    0.092311
    22  O   -0.239610
    23  C   -0.062659
    24  N   -0.335631
    25  C    0.120532
    26  C   -0.138928
    27  C   -0.048735
    28  C    0.022565
    29  C    0.006309
    30  C   -0.011666
    31  C   -0.052418
    32  N   -0.425318
    33  C    0.118241
    34  C   -0.169533
    35  C   -0.018398
    36  C    0.076869
    37  C    0.078427
    38  C    0.069126
    39  O   -0.202888
    40  C   -0.060204
    41  C    0.246556
    42  O   -0.246308
    43  O   -0.383981
    44  C    0.135028
    45  H   -0.012563
    46  H   -0.019618
    47  H   -0.002632
    48  H    0.034730
    49  H    0.040831
    50  H    0.043191
    51  H    0.048444
    52  H    0.043286
    53  H    0.040010
    54  H    0.043233
    55  H    0.068391
    56  H    0.058755
    57  H    0.057100
    58  H    0.057949
    59  H    0.063892
    60  H    0.068525
    61  H    0.055825
    62  H    0.048767
    63  H    0.055279
    64  H    0.030197
    65  H    0.036296
    66  H    0.039846
    67  H    0.031133
    68  H    0.041335
    69  H    0.028858
    70  H    0.036940
    71  H    0.037632
    72  H    0.038406
    73  H    0.062774
    74  H    0.045495
    75  H    0.046968
    76  H    0.066327
    77  H    0.069594
    78  H    0.052701
    79  H    0.054507
    80  Mg   0.943498
    81  C   -0.009828
    82  C   -0.053386
    83  C   -0.050095
    84  C   -0.089870
    85  N   -0.281449
    86  C    0.032823
    87  C   -0.102331
    88  C   -0.079089
    89  C   -0.023224
    90  C    0.044037
    91  C   -0.008258
    92  C   -0.109003
    93  H    0.035340
    94  N   -0.486494
    95  C    0.194282
    96  C   -0.161984
    97  C   -0.110993
    98  C    0.127488
    99  C    0.066624
   100  C    0.057433
   101  O   -0.198203
   102  C   -0.024890
   103  N   -0.388306
   104  C    0.068064
   105  C   -0.106232
   106  C   -0.051966
   107  C    0.081479
   108  C    0.015038
   109  C   -0.034285
   110  C   -0.035085
   111  N   -0.430878
   112  C    0.126679
   113  C   -0.181812
   114  C   -0.031518
   115  C    0.144755
   116  C    0.072017
   117  C    0.142830
   118  O   -0.214017
   119  C   -0.092665
   120  C    0.223868
   121  O   -0.248152
   122  O   -0.326757
   123  C    0.146019
   124  H   -0.006058
   125  H    0.024432
   126  H   -0.006906
   127  H    0.040600
   128  H    0.021540
   129  H    0.046995
   130  H    0.041069
   131  H    0.030186
   132  H    0.038526
   133  H    0.025250
   134  H    0.054300
   135  H    0.060974
   136  H    0.037034
   137  H    0.040592
   138  H    0.034464
   139  H    0.057417
   140  H    0.052068
   141  H    0.039634
   142  H    0.049826
   143  H    0.031201
   144  H    0.018958
   145  H    0.045628
   146  H    0.058982
   147  H    0.022576
   148  H    0.029381
   149  H    0.030221
   150  H    0.044028
   151  H    0.041697
   152  H    0.038127
   153  H    0.061703
   154  H    0.059224
   155  H    0.074123
   156  H    0.084909
   157  H    0.028280
   158  H    0.057520
 Sum of Mulliken charges =  -0.00000

 Dipole moment (field-independent basis, Debye):
    X=              6.3200    Y=              1.0249    Z=             -1.5164  Tot=              6.5797
 Quadrupole moment (field-independent basis, Debye-Ang):
   XX=           -488.9836   YY=           -500.9408   ZZ=           -495.4937
   XY=             40.2027   XZ=              6.7845   YZ=            -11.1467

 Normal termination of Gaussian 16 at Mon Sep 20 08:05:28 2021.
