 Gaussian 16, Revision A.03,
 Gaussian 16:  ES64L-G16RevA.03 25-Dec-2016

 --------------------------------
 #p wB97XD/Def2SVP td=(nstates=5)
 --------------------------------

 --------------------------------
 TDDFT excited states in gaussian
 --------------------------------
 Symbolic Z-matrix:
 Charge =  0 Multiplicity = 1

                         Standard orientation:
 ---------------------------------------------------------------------
 Center     Atomic      Atomic             Coordinates (Angstroms)
 Number     Number       Type             X           Y           Z
 ---------------------------------------------------------------------
      1         12           0      -23.283022    0.624785    0.166197
      2          6           0      -21.271075   -2.036500    1.237214
      3          6           0      -25.490369   -1.752907   -1.251616
      4          6           0      -25.068340    3.178692   -1.182758
      5          6           0      -20.707582    2.791872    0.935529
      6          7           0      -23.411272   -1.587730    0.181943
      7          6           0      -22.529585   -2.434464    0.859929
      8          6           0      -23.201424   -3.844066    1.034056
      9          6           0      -24.459169   -3.722871    0.165882
     10          6           0      -24.441623   -2.256269   -0.390194
     11          6           0      -24.431512   -4.773460   -0.976805
     12          6           0      -23.427498   -4.094844    2.519990
     13          6           0      -23.441366   -5.534322    3.007737
     14          1           0      -23.545123   -6.661974    1.956059
     15          7           0      -25.040227    0.752682   -1.037677
     16          6           0      -25.777378   -0.337688   -1.537449
     17          6           0      -26.884273    0.126032   -2.355464
     18          6           0      -26.866233    1.575996   -2.325291
     19          6           0      -25.615387    1.889685   -1.509814
     20          6           0      -27.966215   -0.787784   -2.945024
     21          6           0      -27.813005    2.593986   -2.931554
     22          8           0      -27.620397    3.791286   -2.767004
     23          6           0      -29.076873    2.115349   -3.535960
     24          7           0      -22.930906    2.720105   -0.012109
     25          6           0      -23.867475    3.564057   -0.527854
     26          6           0      -23.426705    5.034347   -0.304250
     27          6           0      -22.040527    4.929446    0.442383
     28          6           0      -21.892140    3.392302    0.582452
     29          6           0      -23.356115    5.782458   -1.647553
     30          6           0      -22.001687    5.591867    1.845167
     31          6           0      -21.296237    6.940654    1.743046
     32          7           0      -21.304288    0.499724    0.834491
     33          6           0      -20.333287    1.421434    1.043276
     34          6           0      -19.075384    0.684642    1.316373
     35          6           0      -19.398794   -0.626935    1.506439
     36          6           0      -20.770841   -0.689187    1.152588
     37          6           0      -17.761255    1.413740    1.540459
     38          6           0      -18.926432   -1.961036    1.900131
     39          8           0      -17.798832   -2.320704    2.216355
     40          6           0      -20.145239   -2.859406    1.815186
     41          6           0      -19.722677   -4.020423    1.016060
     42          8           0      -19.579666   -4.140273   -0.208244
     43          8           0      -19.409229   -5.035512    1.896626
     44          6           0      -18.899525   -6.261343    1.321586
     45          1           0      -26.188113   -2.515356   -1.603509
     46          1           0      -25.755014    3.940995   -1.556785
     47          1           0      -19.914357    3.530679    1.068054
     48          1           0      -22.435792   -4.480854    0.589227
     49          1           0      -25.286787   -4.047542    0.796472
     50          1           0      -24.302408   -4.360750   -1.977501
     51          1           0      -25.453520   -5.138847   -1.073192
     52          1           0      -23.647607   -5.517023   -0.834221
     53          1           0      -24.350370   -3.558317    2.742412
     54          1           0      -22.684384   -3.535441    3.087056
     55          1           0      -24.237476   -5.643610    3.742952
     56          1           0      -22.493495   -5.581862    3.544970
     57          1           0      -27.755186   -1.851612   -2.834585
     58          1           0      -28.079951   -0.587133   -4.011181
     59          1           0      -28.928002   -0.505230   -2.518599
     60          1           0      -29.691895    1.675795   -2.750300
     61          1           0      -28.884787    1.526979   -4.433161
     62          1           0      -29.694149    2.940929   -3.890340
     63          1           0      -24.204736    5.523706    0.281217
     64          1           0      -21.305993    5.302120   -0.272729
     65          1           0      -22.398995    6.235516   -1.904308
     66          1           0      -24.059108    6.586619   -1.431295
     67          1           0      -23.560813    5.165682   -2.522195
     68          1           0      -21.300270    5.064122    2.491632
     69          1           0      -22.985097    5.722765    2.297087
     70          1           0      -21.955238    7.615632    2.288930
     71          1           0      -21.297378    7.372265    0.742434
     72          1           0      -20.286646    6.974033    2.153520
     73          1           0      -17.759227    2.467767    1.261534
     74          1           0      -16.925921    0.939746    1.026506
     75          1           0      -17.595931    1.491340    2.615629
     76          1           0      -20.420522   -3.139021    2.831592
     77          1           0      -18.080887   -5.994943    0.652542
     78          1           0      -19.644504   -6.818885    0.753489
     79          1           0      -18.321762   -6.719316    2.123707
     80         12           0       23.103101    0.568527    0.100387
     81          6           0       22.465918   -2.393266   -1.446506
     82          6           0       23.178601   -0.978565    3.172470
     83          6           0       23.553038    3.610162    1.516997
     84          6           0       22.543834    2.176835   -2.996761
     85          7           0       22.627078   -1.439606    0.803937
     86          6           0       22.724694   -2.501635   -0.039636
     87          6           0       22.924180   -3.801579    0.663121
     88          6           0       22.887309   -3.286010    2.194086
     89          6           0       22.899050   -1.797168    2.076814
     90          6           0       21.605822   -3.806803    2.989444
     91          6           0       24.355202   -4.392020    0.260134
     92          6           0       24.560551   -5.900501    0.414823
     93          1           0       23.615067   -6.835090    1.209873
     94          7           0       23.437046    1.263415    2.044612
     95          6           0       23.404807    0.446525    3.186601
     96          6           0       23.629423    1.305350    4.326191
     97          6           0       23.769441    2.628311    3.859789
     98          6           0       23.632995    2.510135    2.414577
     99          6           0       23.741719    0.724685    5.755187
    100          6           0       23.936544    3.973917    4.741855
    101          8           0       24.193933    5.074879    4.238766
    102          6           0       23.834362    4.020832    6.257471
    103          7           0       23.116765    2.634374   -0.694647
    104          6           0       23.290285    3.686334    0.140731
    105          6           0       22.974911    5.009489   -0.554922
    106          6           0       22.971464    4.559326   -2.127761
    107          6           0       22.979182    3.028271   -1.995744
    108          6           0       21.695754    5.800091   -0.017035
    109          6           0       24.287179    4.928273   -2.983530
    110          6           0       24.143754    5.606396   -4.333614
    111          7           0       22.654785    0.074931   -1.879062
    112          6           0       22.447802    0.788492   -2.999690
    113          6           0       22.239777   -0.136076   -4.157927
    114          6           0       22.303643   -1.409750   -3.544623
    115          6           0       22.430582   -1.186068   -2.151853
    116          6           0       22.059166    0.140388   -5.608617
    117          6           0       22.218869   -2.781367   -3.881262
    118          8           0       22.048482   -3.331411   -4.988688
    119          6           0       22.315812   -3.489540   -2.532334
    120          6           0       21.107030   -4.251843   -2.318040
    121          8           0       19.963765   -3.917153   -2.324937
    122          8           0       21.516064   -5.533355   -1.961294
    123          6           0       20.531697   -6.621729   -1.592731
    124          1           0       23.438740   -1.418894    4.136889
    125          1           0       23.602117    4.592035    1.993087
    126          1           0       22.172267    2.604649   -3.929586
    127          1           0       22.226603   -4.629976    0.541247
    128          1           0       23.769426   -3.614015    2.743947
    129          1           0       21.762701   -4.044093    4.041417
    130          1           0       21.141975   -4.616359    2.426123
    131          1           0       20.889063   -2.984990    2.983001
    132          1           0       25.158414   -3.906979    0.815171
    133          1           0       24.484200   -4.127008   -0.789567
    134          1           0       25.567362   -6.017040    0.817883
    135          1           0       24.633034   -6.342512   -0.578166
    136          1           0       23.691305   -0.363029    5.802764
    137          1           0       22.943738    1.182341    6.338953
    138          1           0       24.685771    1.079389    6.169415
    139          1           0       24.720805    3.491435    6.604876
    140          1           0       23.066760    3.351003    6.645566
    141          1           0       23.599247    5.030900    6.592384
    142          1           0       23.835113    5.665979   -0.418541
    143          1           0       22.107666    4.971852   -2.649452
    144          1           0       20.967454    5.962727   -0.811886
    145          1           0       21.999878    6.750992    0.418966
    146          1           0       21.163437    5.207864    0.727663
    147          1           0       24.947171    4.069156   -3.102753
    148          1           0       24.880220    5.587689   -2.350549
    149          1           0       24.652014    4.967102   -5.054630
    150          1           0       24.539226    6.621684   -4.344611
    151          1           0       23.094674    5.609080   -4.632759
    152          1           0       22.153101    1.188738   -5.891405
    153          1           0       21.071387   -0.176111   -5.944613
    154          1           0       22.808260   -0.427100   -6.160446
    155          1           0       23.170861   -4.164277   -2.481637
    156          1           0       19.513877   -6.231135   -1.599633
    157          1           0       20.723719   -6.957699   -0.572857
    158          1           0       20.670983   -7.402009   -2.340923
 ---------------------------------------------------------------------

 SCF Done:  E(RwB97XD) =  -4070.60280584     A.U. after   19 cycles

 Excitation energies and oscillator strengths:

 Excited State   1:      Singlet-A      1.6258 eV  762.61 nm  f=0.3931  <S**2>=0.000
     310 -> 316        0.17889
     312 -> 313        0.68467
     310 <- 316        0.11345
 This state for optimization and/or second-order correction.
 Total Energy, E(TD-HF/TD-DFT) =  -4070.54305955
 Copying the excited state density for this state as the 1-particle RhoCI density.

 Excited State   2:      Singlet-A      1.6817 eV  737.25 nm  f=0.3941  <S**2>=0.000
     309 -> 315        0.19777
     311 -> 314        0.68064
     309 <- 315        0.11936

 Excited State   3:      Singlet-A      2.1420 eV  578.82 nm  f=0.1173  <S**2>=0.000
     310 -> 313        0.64310
     312 -> 316       -0.27656

 Excited State   4:      Singlet-A      2.1739 eV  570.34 nm  f=0.0992  <S**2>=0.000
     309 -> 314        0.63669
     311 -> 315       -0.29859

 Excited State   5:      Singlet-A      3.4351 eV  360.93 nm  f=0.0957  <S**2>=0.000
     305 -> 313       -0.35768
     308 -> 313        0.46947
     310 -> 313       -0.10474
     312 -> 316       -0.35074

 The electronic state is 1-A.
 Alpha  occ. eigenvalues --  -46.95703 -46.95444 -19.29663 -19.28907 -19.24718
 Alpha  occ. eigenvalues --  -19.24500 -19.24303 -19.24273 -19.24185 -19.23876
 Alpha  occ. eigenvalues --  -14.47021 -14.46780 -14.46321 -14.46257 -14.44751
 Alpha  occ. eigenvalues --  -14.44104 -14.43957 -14.43740 -10.43193 -10.42460
 Alpha  occ. eigenvalues --  -10.40196 -10.39475 -10.39372 -10.38507 -10.36071
 Alpha  occ. eigenvalues --  -10.35772 -10.35636 -10.35303 -10.35263 -10.35104
 Alpha  occ. eigenvalues --  -10.34672 -10.34651 -10.34648 -10.34638 -10.34186
 Alpha  occ. eigenvalues --  -10.34032 -10.34016 -10.33866 -10.33771 -10.33701
 Alpha  occ. eigenvalues --  -10.33284 -10.33036 -10.32996 -10.32966 -10.32772
 Alpha  occ. eigenvalues --  -10.32527 -10.32409 -10.32360 -10.32317 -10.32306
 Alpha  occ. eigenvalues --  -10.32281 -10.32265 -10.32236 -10.31998 -10.31991
 Alpha  occ. eigenvalues --  -10.31839 -10.31818 -10.31800 -10.31751 -10.31631
 Alpha  occ. eigenvalues --  -10.31599 -10.31587 -10.31574 -10.31431 -10.31406
 Alpha  occ. eigenvalues --  -10.31378 -10.31289 -10.30706 -10.30514 -10.30496
 Alpha  occ. eigenvalues --  -10.30446 -10.30389 -10.30322 -10.30197 -10.30093
 Alpha  occ. eigenvalues --  -10.30023 -10.29998 -10.29933 -10.29890 -10.29391
 Alpha  occ. eigenvalues --  -10.29313 -10.29141 -10.29115 -10.28811 -10.28795
 Alpha  occ. eigenvalues --  -10.28744  -3.21560  -3.21294  -1.95170  -1.94895
 Alpha  occ. eigenvalues --   -1.94663  -1.94539  -1.94374  -1.94293  -1.17936
 Alpha  occ. eigenvalues --   -1.17761  -1.12710  -1.12199  -1.11694  -1.10570
 Alpha  occ. eigenvalues --   -1.09391  -1.09032  -1.07597  -1.06446  -1.06289
 Alpha  occ. eigenvalues --   -1.05562  -1.04785  -1.04631  -1.04625  -1.03690
 Alpha  occ. eigenvalues --   -0.95489  -0.95314  -0.91107  -0.90620  -0.90516
 Alpha  occ. eigenvalues --   -0.90106  -0.89898  -0.89409  -0.89028  -0.88966
 Alpha  occ. eigenvalues --   -0.88791  -0.88768  -0.88135  -0.87505  -0.86250
 Alpha  occ. eigenvalues --   -0.86242  -0.85742  -0.85329  -0.84612  -0.84327
 Alpha  occ. eigenvalues --   -0.84225  -0.83496  -0.83104  -0.82827  -0.82243
 Alpha  occ. eigenvalues --   -0.81982  -0.80346  -0.80089  -0.79379  -0.79178
 Alpha  occ. eigenvalues --   -0.79034  -0.78697  -0.78101  -0.77844  -0.77080
 Alpha  occ. eigenvalues --   -0.76475  -0.74581  -0.74501  -0.73933  -0.72978
 Alpha  occ. eigenvalues --   -0.71253  -0.71028  -0.70540  -0.70391  -0.70136
 Alpha  occ. eigenvalues --   -0.69861  -0.69073  -0.67938  -0.67315  -0.67226
 Alpha  occ. eigenvalues --   -0.67140  -0.66821  -0.66638  -0.66489  -0.66223
 Alpha  occ. eigenvalues --   -0.65876  -0.64096  -0.63811  -0.62440  -0.62145
 Alpha  occ. eigenvalues --   -0.61864  -0.61590  -0.61151  -0.61046  -0.60776
 Alpha  occ. eigenvalues --   -0.60738  -0.60411  -0.60327  -0.59714  -0.59636
 Alpha  occ. eigenvalues --   -0.57993  -0.57841  -0.57705  -0.57487  -0.57210
 Alpha  occ. eigenvalues --   -0.57009  -0.56709  -0.56117  -0.55679  -0.55554
 Alpha  occ. eigenvalues --   -0.55481  -0.55308  -0.55231  -0.54933  -0.54873
 Alpha  occ. eigenvalues --   -0.54844  -0.54745  -0.54679  -0.54086  -0.54053
 Alpha  occ. eigenvalues --   -0.53800  -0.53652  -0.53568  -0.53528  -0.53323
 Alpha  occ. eigenvalues --   -0.53306  -0.52735  -0.52685  -0.52457  -0.52314
 Alpha  occ. eigenvalues --   -0.51823  -0.51702  -0.51581  -0.51544  -0.51342
 Alpha  occ. eigenvalues --   -0.51211  -0.51184  -0.51041  -0.50947  -0.50791
 Alpha  occ. eigenvalues --   -0.50552  -0.50218  -0.50067  -0.50063  -0.49858
 Alpha  occ. eigenvalues --   -0.49780  -0.49526  -0.49335  -0.49217  -0.49098
 Alpha  occ. eigenvalues --   -0.48847  -0.48632  -0.48475  -0.48369  -0.48295
 Alpha  occ. eigenvalues --   -0.48121  -0.48062  -0.47947  -0.47814  -0.47490
 Alpha  occ. eigenvalues --   -0.47155  -0.47108  -0.46889  -0.46689  -0.46611
 Alpha  occ. eigenvalues --   -0.46372  -0.46303  -0.46245  -0.46207  -0.46122
 Alpha  occ. eigenvalues --   -0.45880  -0.45803  -0.45626  -0.45518  -0.45347
 Alpha  occ. eigenvalues --   -0.45131  -0.45046  -0.44965  -0.44791  -0.44608
 Alpha  occ. eigenvalues --   -0.44564  -0.44294  -0.44240  -0.43741  -0.43653
 Alpha  occ. eigenvalues --   -0.43540  -0.43419  -0.43275  -0.43183  -0.43040
 Alpha  occ. eigenvalues --   -0.42986  -0.42898  -0.42727  -0.42301  -0.42081
 Alpha  occ. eigenvalues --   -0.41858  -0.41627  -0.41316  -0.40811  -0.40337
 Alpha  occ. eigenvalues --   -0.40298  -0.39901  -0.39876  -0.39720  -0.39665
 Alpha  occ. eigenvalues --   -0.39502  -0.38739  -0.38601  -0.38545  -0.38294
 Alpha  occ. eigenvalues --   -0.38093  -0.37753  -0.36438  -0.36291  -0.36201
 Alpha  occ. eigenvalues --   -0.36042  -0.35382  -0.34864  -0.33547  -0.33499
 Alpha  occ. eigenvalues --   -0.33378  -0.33362  -0.33109  -0.32995  -0.32449
 Alpha  occ. eigenvalues --   -0.32337  -0.32203  -0.32163  -0.25726  -0.25718
 Alpha  occ. eigenvalues --   -0.22912  -0.22730
 Alpha virt. eigenvalues --   -0.07008  -0.06838   0.00217   0.00470   0.02065
 Alpha virt. eigenvalues --    0.02242   0.03998   0.04466   0.05540   0.05849
 Alpha virt. eigenvalues --    0.07344   0.07396   0.07795   0.08036   0.08224

 Mulliken charges:
               1
     1  Mg   0.955720
     2  C   -0.016168
     3  C   -0.071831
     4  C   -0.061441
     5  C   -0.075443
     6  N   -0.370253
     7  C   -0.076292
     8  C   -0.019335
     9  C   -0.128230
    10  C    0.112443
    11  C    0.004225
    12  C    0.005653
    13  C   -0.087395
    14  H    0.044127
    15  N   -0.442634
    16  C    0.155472
    17  C   -0.170725
    18  C   -0.084760
    19  C    0.094696
    20  C    0.080229
    21  C    0.058989
    22  O   -0.231355
    23  C   -0.015717
    24  N   -0.372850
    25  C    0.091442
    26  C   -0.107454
    27  C   -0.062915
    28  C    0.055636
    29  C    0.009026
    30  C    0.009723
    31  C   -0.064289
    32  N   -0.405583
    33  C    0.114605
    34  C   -0.207784
    35  C   -0.016124
    36  C    0.137362
    37  C    0.069662
    38  C    0.119915
    39  O   -0.196938
    40  C   -0.033160
    41  C    0.261347
    42  O   -0.260785
    43  O   -0.368889
    44  C    0.150852
    45  H   -0.002617
    46  H    0.022722
    47  H   -0.005017
    48  H    0.035195
    49  H    0.041281
    50  H    0.033199
    51  H    0.028431
    52  H    0.050187
    53  H    0.018832
    54  H    0.026480
    55  H    0.050735
    56  H    0.056878
    57  H    0.044913
    58  H    0.041637
    59  H    0.050576
    60  H    0.068902
    61  H    0.058663
    62  H    0.044873
    63  H    0.042163
    64  H    0.041185
    65  H    0.028418
    66  H    0.042380
    67  H    0.055150
    68  H    0.035726
    69  H    0.040877
    70  H    0.024668
    71  H    0.026479
    72  H    0.047223
    73  H    0.017842
    74  H    0.060248
    75  H    0.049670
    76  H    0.082156
    77  H    0.044846
    78  H    0.059121
    79  H    0.053201
    80  Mg   0.950910
    81  C   -0.080187
    82  C   -0.065144
    83  C   -0.054552
    84  C   -0.099696
    85  N   -0.357705
    86  C    0.029322
    87  C   -0.079442
    88  C   -0.109834
    89  C    0.090108
    90  C    0.022794
    91  C   -0.013534
    92  C   -0.098896
    93  H    0.035630
    94  N   -0.438820
    95  C    0.108666
    96  C   -0.179359
    97  C   -0.083538
    98  C    0.122293
    99  C    0.062455
   100  C    0.076029
   101  O   -0.249672
   102  C    0.010360
   103  N   -0.332204
   104  C    0.030780
   105  C   -0.062516
   106  C   -0.122919
   107  C    0.111048
   108  C    0.017297
   109  C   -0.023485
   110  C   -0.037694
   111  N   -0.390557
   112  C    0.092482
   113  C   -0.157305
   114  C   -0.058393
   115  C    0.195221
   116  C    0.082442
   117  C    0.129110
   118  O   -0.229532
   119  C   -0.055348
   120  C    0.260442
   121  O   -0.202678
   122  O   -0.416621
   123  C    0.130286
   124  H   -0.007799
   125  H    0.015249
   126  H    0.000070
   127  H    0.042246
   128  H    0.032242
   129  H    0.044439
   130  H    0.033017
   131  H    0.038559
   132  H    0.033219
   133  H    0.032463
   134  H    0.042977
   135  H    0.053466
   136  H    0.042709
   137  H    0.051405
   138  H    0.048429
   139  H    0.054880
   140  H    0.026345
   141  H    0.075592
   142  H    0.037479
   143  H    0.035327
   144  H    0.033708
   145  H    0.050441
   146  H    0.045498
   147  H    0.038387
   148  H    0.020828
   149  H    0.037093
   150  H    0.048322
   151  H    0.024444
   152  H    0.023624
   153  H    0.065379
   154  H    0.063717
   155  H    0.069641
   156  H    0.065985
   157  H    0.053355
   158  H    0.069222
 Sum of Mulliken charges =  -0.00000

 Dipole moment (field-independent basis, Debye):
    X=             -3.2310    Y=             -0.7326    Z=              4.7531  Tot=              5.7938
 Quadrupole moment (field-independent basis, Debye-Ang):
   XX=           -216.8824   YY=           -480.6973   ZZ=           -503.1869
   XY=              8.9535   XZ=             49.4389   YZ=            -27.3666

 Normal termination of Gaussian 16 at Sun Sep 19 23:28:53 2021.
