 Gaussian 16, Revision A.03,
 Gaussian 16:  ES64L-G16RevA.03 25-Dec-2016

 --------------------------------
 #p wB97XD/Def2SVP td=(nstates=5)
 --------------------------------

 --------------------------------
 TDDFT excited states in gaussian
 --------------------------------
 Symbolic Z-matrix:
 Charge =  0 Multiplicity = 1

                         Standard orientation:
 ---------------------------------------------------------------------
 Center     Atomic      Atomic             Coordinates (Angstroms)
 Number     Number       Type             X           Y           Z
 ---------------------------------------------------------------------
      1         12           0      -26.489639   -0.453888   -0.315038
      2          6           0      -24.949211    2.692715   -0.373469
      3          6           0      -27.362464    0.153118    3.062197
      4          6           0      -27.683250   -3.626584   -0.118127
      5          6           0      -24.950573   -1.187338   -3.317429
      6          7           0      -26.316604    1.281422    1.052688
      7          6           0      -25.787495    2.526521    0.700880
      8          6           0      -26.264766    3.601401    1.742760
      9          6           0      -26.926046    2.743063    2.827333
     10          6           0      -26.826707    1.266330    2.307868
     11          6           0      -26.194930    2.927638    4.184402
     12          6           0      -27.165908    4.602647    1.030407
     13          6           0      -27.231616    6.019564    1.576500
     14          1           0      -26.648341    6.289541    2.981951
     15          7           0      -27.412589   -1.615068    1.218999
     16          6           0      -27.652026   -1.192560    2.540448
     17          6           0      -28.254035   -2.261796    3.317443
     18          6           0      -28.444178   -3.389792    2.425759
     19          6           0      -27.819712   -2.907701    1.119754
     20          6           0      -28.767434   -2.103372    4.754302
     21          6           0      -29.087311   -4.743309    2.659444
     22          8           0      -29.161590   -5.557330    1.748645
     23          6           0      -29.806422   -4.976659    3.932309
     24          7           0      -26.374420   -2.142077   -1.612299
     25          6           0      -27.031034   -3.303725   -1.338725
     26          6           0      -26.957936   -4.247903   -2.567225
     27          6           0      -26.128171   -3.444908   -3.642697
     28          6           0      -25.868759   -2.115277   -2.888220
     29          6           0      -26.326475   -5.594490   -2.170895
     30          6           0      -26.880871   -3.159005   -4.969277
     31          6           0      -26.402679   -4.137393   -6.037642
     32          7           0      -25.110361    0.445358   -1.606003
     33          6           0      -24.503360    0.039381   -2.747369
     34          6           0      -23.464544    1.045105   -3.077740
     35          6           0      -23.664030    2.124981   -2.268404
     36          6           0      -24.655416    1.682181   -1.355890
     37          6           0      -22.545785    0.872963   -4.275648
     38          6           0      -23.280017    3.507222   -1.952352
     39          8           0      -22.423927    4.211250   -2.474172
     40          6           0      -24.164162    3.913247   -0.789078
     41          6           0      -23.251267    4.465289    0.224329
     42          8           0      -22.502954    3.889924    1.026027
     43          8           0      -23.287955    5.839755    0.107923
     44          6           0      -22.403509    6.589778    0.972996
     45          1           0      -27.684907    0.408689    4.073493
     46          1           0      -28.185577   -4.589679   -0.005707
     47          1           0      -24.433895   -1.529536   -4.216623
     48          1           0      -25.303278    4.013155    2.051896
     49          1           0      -27.906844    3.186451    2.998936
     50          1           0      -25.639941    2.055241    4.529798
     51          1           0      -26.974764    2.946284    4.945198
     52          1           0      -25.496423    3.763980    4.165886
     53          1           0      -28.138163    4.109892    0.999774
     54          1           0      -26.885103    4.640686   -0.021456
     55          1           0      -28.265848    6.358782    1.536863
     56          1           0      -26.680696    6.564750    0.809300
     57          1           0      -28.501782   -1.152564    5.216745
     58          1           0      -28.360077   -2.896441    5.382783
     59          1           0      -29.841302   -2.286345    4.760327
     60          1           0      -30.667185   -4.308616    3.971385
     61          1           0      -29.117449   -4.983205    4.776891
     62          1           0      -30.267380   -5.964007    3.961625
     63          1           0      -27.980745   -4.464969   -2.874344
     64          1           0      -25.191344   -3.994353   -3.744075
     65          1           0      -25.437826   -5.898378   -2.723358
     66          1           0      -27.142395   -6.256447   -2.460260
     67          1           0      -25.985060   -5.649385   -1.137582
     68          1           0      -26.532477   -2.222793   -5.405794
     69          1           0      -27.966041   -3.211770   -4.879375
     70          1           0      -27.328150   -4.499077   -6.485475
     71          1           0      -25.961838   -5.052218   -5.642335
     72          1           0      -25.746341   -3.715832   -6.799472
     73          1           0      -22.543607   -0.121503   -4.722645
     74          1           0      -21.511518    1.130870   -4.051200
     75          1           0      -22.949992    1.461572   -5.099966
     76          1           0      -24.869749    4.658298   -1.155263
     77          1           0      -21.403589    6.168669    0.865368
     78          1           0      -22.685643    6.549282    2.025298
     79          1           0      -22.247813    7.533656    0.451650
     80         12           0       25.482824   -0.782744    0.125635
     81          6           0       26.479520    2.420434   -0.981672
     82          6           0       24.805793    0.432676    3.115423
     83          6           0       25.432525   -3.999525    1.275688
     84          6           0       27.253381   -2.091605   -2.845426
     85          7           0       25.698297    1.221145    0.949277
     86          6           0       25.878959    2.376928    0.277851
     87          6           0       25.487919    3.556758    1.189256
     88          6           0       24.948984    2.940401    2.440254
     89          6           0       25.187269    1.418152    2.204382
     90          6           0       25.529659    3.604169    3.755362
     91          6           0       24.571191    4.681697    0.602328
     92          6           0       23.479472    5.434794    1.476972
     93          1           0       23.373019    6.962241    1.358685
     94          7           0       24.917123   -1.641897    1.898455
     95          6           0       24.662921   -0.935415    3.052286
     96          6           0       24.255863   -1.875509    4.057583
     97          6           0       24.457800   -3.229718    3.582374
     98          6           0       25.002984   -2.997694    2.226624
     99          6           0       23.881851   -1.353021    5.385313
    100          6           0       24.134768   -4.592916    4.242508
    101          8           0       24.422209   -5.605291    3.693897
    102          6           0       23.244529   -4.660015    5.440476
    103          7           0       26.305055   -2.753850   -0.683920
    104          6           0       25.987665   -3.883724   -0.012754
    105          6           0       26.456272   -5.167386   -0.769789
    106          6           0       27.005368   -4.584310   -2.107706
    107          6           0       26.879796   -3.054375   -1.901947
    108          6           0       27.477831   -6.010061   -0.053443
    109          6           0       26.316478   -5.026809   -3.445846
    110          6           0       25.010020   -4.417826   -3.828449
    111          7           0       26.631610   -0.109595   -1.610513
    112          6           0       27.193848   -0.739564   -2.683596
    113          6           0       27.664110    0.247916   -3.624233
    114          6           0       27.425571    1.516541   -3.033142
    115          6           0       26.835811    1.235832   -1.783900
    116          6           0       28.433294    0.019826   -4.877431
    117          6           0       27.580694    2.936661   -3.169525
    118          8           0       28.018823    3.653974   -4.061586
    119          6           0       26.930861    3.593545   -1.870071
    120          6           0       27.836183    4.617629   -1.206624
    121          8           0       28.891739    4.348389   -0.693934
    122          8           0       27.228651    5.862228   -1.255063
    123          6           0       28.044413    6.926544   -0.669298
    124          1           0       24.368659    0.767439    4.058861
    125          1           0       25.337118   -5.002020    1.697373
    126          1           0       27.682597   -2.471640   -3.774733
    127          1           0       26.476877    4.002230    1.297137
    128          1           0       23.885254    3.175188    2.487271
    129          1           0       26.113446    4.484882    3.488208
    130          1           0       26.033532    2.822085    4.323236
    131          1           0       24.736001    4.043441    4.360004
    132          1           0       24.027319    4.234291   -0.229979
    133          1           0       25.152996    5.478559    0.138322
    134          1           0       23.720971    5.157613    2.503300
    135          1           0       22.498365    5.013801    1.256885
    136          1           0       24.248713   -2.088159    6.101258
    137          1           0       22.793587   -1.357804    5.433873
    138          1           0       24.197904   -0.367815    5.728615
    139          1           0       23.959758   -4.615129    6.260737
    140          1           0       22.609780   -5.543232    5.362662
    141          1           0       22.609345   -3.787413    5.594406
    142          1           0       25.613894   -5.786151   -1.079683
    143          1           0       28.068801   -4.660311   -2.332321
    144          1           0       27.595162   -5.697802    0.985073
    145          1           0       28.470183   -5.920664   -0.496215
    146          1           0       27.100436   -7.031047   -0.104884
    147          1           0       26.163922   -6.106114   -3.439111
    148          1           0       27.057551   -4.940262   -4.240787
    149          1           0       24.506689   -4.038213   -2.939053
    150          1           0       24.219738   -5.017111   -4.281118
    151          1           0       25.261574   -3.664826   -4.575993
    152          1           0       29.383539   -0.496468   -4.744225
    153          1           0       28.827774    0.998234   -5.152801
    154          1           0       27.820615   -0.444841   -5.650461
    155          1           0       26.009590    4.066828   -2.210320
    156          1           0       27.332185    7.026383    0.149180
    157          1           0       27.981393    7.724151   -1.409158
    158          1           0       29.050798    6.601150   -0.404961
 ---------------------------------------------------------------------

 SCF Done:  E(RwB97XD) =  -4070.58997643     A.U. after   19 cycles

 Excitation energies and oscillator strengths:

 Excited State   1:      Singlet-A      1.6258 eV  762.59 nm  f=0.3882  <S**2>=0.000
     309 -> 316       -0.17888
     312 -> 313        0.68466
     309 <- 316       -0.11343
 This state for optimization and/or second-order correction.
 Total Energy, E(TD-HF/TD-DFT) =  -4070.53022827
 Copying the excited state density for this state as the 1-particle RhoCI density.

 Excited State   2:      Singlet-A      1.6417 eV  755.22 nm  f=0.3884  <S**2>=0.000
     310 -> 315        0.19301
     311 -> 314        0.68165
     310 <- 315        0.12002

 Excited State   3:      Singlet-A      2.1319 eV  581.56 nm  f=0.1047  <S**2>=0.000
     310 -> 314        0.64022
     311 -> 315       -0.28532

 Excited State   4:      Singlet-A      2.1420 eV  578.82 nm  f=0.1192  <S**2>=0.000
     309 -> 313        0.64309
     312 -> 316        0.27657

 Excited State   5:      Singlet-A      3.3484 eV  370.28 nm  f=0.0010  <S**2>=0.000
     307 -> 314       -0.21674
     308 -> 314        0.65062

 The electronic state is 1-A.
 Alpha  occ. eigenvalues --  -46.96312 -46.95468 -19.29960 -19.29692 -19.24933
 Alpha  occ. eigenvalues --  -19.24747 -19.24579 -19.24330 -19.24299 -19.23658
 Alpha  occ. eigenvalues --  -14.46809 -14.46772 -14.46356 -14.46346 -14.44776
 Alpha  occ. eigenvalues --  -14.44088 -14.43768 -14.43368 -10.43222 -10.42942
 Alpha  occ. eigenvalues --  -10.39668 -10.39500 -10.39400 -10.38792 -10.36098
 Alpha  occ. eigenvalues --  -10.35656 -10.35330 -10.35289 -10.35130 -10.35122
 Alpha  occ. eigenvalues --  -10.34972 -10.34947 -10.34723 -10.34702 -10.34678
 Alpha  occ. eigenvalues --  -10.34330 -10.34058 -10.33798 -10.33585 -10.33461
 Alpha  occ. eigenvalues --  -10.33311 -10.33022 -10.33008 -10.32809 -10.32554
 Alpha  occ. eigenvalues --  -10.32535 -10.32435 -10.32307 -10.32298 -10.32262
 Alpha  occ. eigenvalues --  -10.32060 -10.32048 -10.31857 -10.31845 -10.31827
 Alpha  occ. eigenvalues --  -10.31778 -10.31675 -10.31657 -10.31650 -10.31626
 Alpha  occ. eigenvalues --  -10.31613 -10.31458 -10.31381 -10.31296 -10.30947
 Alpha  occ. eigenvalues --  -10.30737 -10.30733 -10.30732 -10.30541 -10.30425
 Alpha  occ. eigenvalues --  -10.30414 -10.30412 -10.30398 -10.30349 -10.30236
 Alpha  occ. eigenvalues --  -10.30222 -10.30028 -10.29418 -10.29342 -10.29244
 Alpha  occ. eigenvalues --  -10.29141 -10.28926 -10.28892 -10.28820 -10.28771
 Alpha  occ. eigenvalues --  -10.28752  -3.22105  -3.21319  -1.95658  -1.95229
 Alpha  occ. eigenvalues --   -1.95055  -1.94920  -1.94398  -1.94318  -1.18434
 Alpha  occ. eigenvalues --   -1.17965  -1.15106  -1.12735  -1.12227  -1.11420
 Alpha  occ. eigenvalues --   -1.10720  -1.09061  -1.06316  -1.06194  -1.05113
 Alpha  occ. eigenvalues --   -1.04811  -1.04658  -1.04494  -1.03851  -1.03716
 Alpha  occ. eigenvalues --   -0.95341  -0.93551  -0.91138  -0.91134  -0.90716
 Alpha  occ. eigenvalues --   -0.90645  -0.90168  -0.89924  -0.89283  -0.89093
 Alpha  occ. eigenvalues --   -0.89055  -0.88818  -0.88012  -0.87533  -0.86269
 Alpha  occ. eigenvalues --   -0.85857  -0.85768  -0.85572  -0.84639  -0.84430
 Alpha  occ. eigenvalues --   -0.84353  -0.83881  -0.82854  -0.82759  -0.82343
 Alpha  occ. eigenvalues --   -0.82009  -0.80243  -0.80116  -0.79205  -0.79038
 Alpha  occ. eigenvalues --   -0.78990  -0.78725  -0.77871  -0.77783  -0.76577
 Alpha  occ. eigenvalues --   -0.76502  -0.74528  -0.74297  -0.73409  -0.73005
 Alpha  occ. eigenvalues --   -0.71704  -0.71168  -0.71055  -0.70417  -0.70187
 Alpha  occ. eigenvalues --   -0.69887  -0.69100  -0.68912  -0.67341  -0.66906
 Alpha  occ. eigenvalues --   -0.66848  -0.66665  -0.66207  -0.66065  -0.65982
 Alpha  occ. eigenvalues --   -0.65903  -0.64124  -0.63665  -0.62171  -0.62022
 Alpha  occ. eigenvalues --   -0.61618  -0.61485  -0.61074  -0.60780  -0.60766
 Alpha  occ. eigenvalues --   -0.60354  -0.60295  -0.59955  -0.59663  -0.59365
 Alpha  occ. eigenvalues --   -0.58025  -0.57868  -0.57824  -0.57732  -0.57309
 Alpha  occ. eigenvalues --   -0.57036  -0.56969  -0.56737  -0.56505  -0.55975
 Alpha  occ. eigenvalues --   -0.55651  -0.55580  -0.55507  -0.55334  -0.55273
 Alpha  occ. eigenvalues --   -0.55257  -0.54872  -0.54771  -0.54688  -0.54270
 Alpha  occ. eigenvalues --   -0.53828  -0.53678  -0.53653  -0.53333  -0.53118
 Alpha  occ. eigenvalues --   -0.52854  -0.52738  -0.52712  -0.52495  -0.52340
 Alpha  occ. eigenvalues --   -0.52212  -0.51931  -0.51850  -0.51572  -0.51408
 Alpha  occ. eigenvalues --   -0.51237  -0.51211  -0.51085  -0.50974  -0.50913
 Alpha  occ. eigenvalues --   -0.50644  -0.50579  -0.50499  -0.50271  -0.50089
 Alpha  occ. eigenvalues --   -0.49806  -0.49624  -0.49362  -0.49154  -0.49124
 Alpha  occ. eigenvalues --   -0.49049  -0.48704  -0.48660  -0.48322  -0.47974
 Alpha  occ. eigenvalues --   -0.47944  -0.47841  -0.47731  -0.47440  -0.47348
 Alpha  occ. eigenvalues --   -0.47182  -0.46917  -0.46716  -0.46534  -0.46488
 Alpha  occ. eigenvalues --   -0.46399  -0.46329  -0.46226  -0.46149  -0.45983
 Alpha  occ. eigenvalues --   -0.45622  -0.45549  -0.45544  -0.45374  -0.45198
 Alpha  occ. eigenvalues --   -0.45157  -0.44991  -0.44956  -0.44884  -0.44818
 Alpha  occ. eigenvalues --   -0.44635  -0.44497  -0.44309  -0.44267  -0.43942
 Alpha  occ. eigenvalues --   -0.43766  -0.43747  -0.43445  -0.43395  -0.43209
 Alpha  occ. eigenvalues --   -0.43015  -0.42784  -0.42460  -0.42327  -0.42000
 Alpha  occ. eigenvalues --   -0.41885  -0.41078  -0.40838  -0.40822  -0.40362
 Alpha  occ. eigenvalues --   -0.40018  -0.39927  -0.39903  -0.39823  -0.39691
 Alpha  occ. eigenvalues --   -0.39313  -0.38977  -0.38628  -0.38324  -0.37896
 Alpha  occ. eigenvalues --   -0.37780  -0.37644  -0.36576  -0.36319  -0.36070
 Alpha  occ. eigenvalues --   -0.35540  -0.35350  -0.34891  -0.33732  -0.33573
 Alpha  occ. eigenvalues --   -0.33526  -0.33405  -0.33010  -0.32609  -0.32475
 Alpha  occ. eigenvalues --   -0.32190  -0.31994  -0.31485  -0.25745  -0.25716
 Alpha  occ. eigenvalues --   -0.22829  -0.22757
 Alpha virt. eigenvalues --   -0.07034  -0.06979   0.00314   0.00443   0.02215
 Alpha virt. eigenvalues --    0.02491   0.03972   0.04270   0.04659   0.05515
 Alpha virt. eigenvalues --    0.07032   0.07367   0.07768   0.07819   0.08197

 Mulliken charges:
               1
     1  Mg   0.955676
     2  C   -0.016163
     3  C   -0.072005
     4  C   -0.061393
     5  C   -0.075400
     6  N   -0.370293
     7  C   -0.076376
     8  C   -0.019298
     9  C   -0.128219
    10  C    0.112580
    11  C    0.004207
    12  C    0.005639
    13  C   -0.087393
    14  H    0.044114
    15  N   -0.442657
    16  C    0.155549
    17  C   -0.170758
    18  C   -0.084762
    19  C    0.094734
    20  C    0.080152
    21  C    0.058981
    22  O   -0.231350
    23  C   -0.015670
    24  N   -0.372734
    25  C    0.091458
    26  C   -0.107444
    27  C   -0.062934
    28  C    0.055568
    29  C    0.009041
    30  C    0.009697
    31  C   -0.064273
    32  N   -0.405519
    33  C    0.114628
    34  C   -0.207811
    35  C   -0.016107
    36  C    0.137133
    37  C    0.069646
    38  C    0.119895
    39  O   -0.196968
    40  C   -0.032906
    41  C    0.261256
    42  O   -0.260824
    43  O   -0.368871
    44  C    0.150875
    45  H   -0.002605
    46  H    0.022731
    47  H   -0.005014
    48  H    0.035172
    49  H    0.041303
    50  H    0.033181
    51  H    0.028451
    52  H    0.050182
    53  H    0.018863
    54  H    0.026450
    55  H    0.050772
    56  H    0.056868
    57  H    0.044946
    58  H    0.041659
    59  H    0.050606
    60  H    0.068908
    61  H    0.058644
    62  H    0.044884
    63  H    0.042188
    64  H    0.041169
    65  H    0.028395
    66  H    0.042400
    67  H    0.055126
    68  H    0.035733
    69  H    0.040907
    70  H    0.024693
    71  H    0.026458
    72  H    0.047218
    73  H    0.017843
    74  H    0.060206
    75  H    0.049694
    76  H    0.082144
    77  H    0.044800
    78  H    0.059115
    79  H    0.053211
    80  Mg   0.948328
    81  C   -0.025736
    82  C   -0.065363
    83  C   -0.063853
    84  C   -0.102276
    85  N   -0.370863
    86  C   -0.015756
    87  C   -0.028576
    88  C   -0.134514
    89  C    0.098592
    90  C    0.020631
    91  C   -0.030001
    92  C   -0.123606
    93  H    0.053536
    94  N   -0.508312
    95  C    0.144528
    96  C   -0.142003
    97  C   -0.082454
    98  C    0.112962
    99  C    0.032886
   100  C    0.056454
   101  O   -0.199131
   102  C   -0.017891
   103  N   -0.306748
   104  C    0.065591
   105  C   -0.068788
   106  C   -0.048012
   107  C    0.007324
   108  C    0.036423
   109  C   -0.047560
   110  C   -0.031081
   111  N   -0.393475
   112  C    0.166113
   113  C   -0.184903
   114  C   -0.031399
   115  C    0.106194
   116  C    0.061926
   117  C    0.130820
   118  O   -0.210231
   119  C   -0.060744
   120  C    0.252907
   121  O   -0.228681
   122  O   -0.379453
   123  C    0.117894
   124  H   -0.017327
   125  H    0.026210
   126  H   -0.005182
   127  H    0.048841
   128  H    0.042223
   129  H    0.042679
   130  H    0.050097
   131  H    0.032137
   132  H    0.030200
   133  H    0.046357
   134  H    0.034855
   135  H    0.055860
   136  H    0.037175
   137  H    0.055424
   138  H    0.058303
   139  H    0.064528
   140  H    0.073669
   141  H    0.037392
   142  H    0.039942
   143  H    0.035209
   144  H    0.044165
   145  H    0.034838
   146  H    0.041319
   147  H    0.023713
   148  H    0.022405
   149  H    0.035763
   150  H    0.033359
   151  H    0.037204
   152  H    0.045441
   153  H    0.051364
   154  H    0.052645
   155  H    0.070936
   156  H    0.051494
   157  H    0.068789
   158  H    0.086274
 Sum of Mulliken charges =  -0.00000

 Dipole moment (field-independent basis, Debye):
    X=             -9.0704    Y=             -0.9242    Z=              4.9804  Tot=             10.3890
 Quadrupole moment (field-independent basis, Debye-Ang):
   XX=           -496.5001   YY=           -505.0035   ZZ=           -471.9121
   XY=            -39.6016   XZ=             30.5377   YZ=             42.7550

 Normal termination of Gaussian 16 at Sun Sep 19 22:38:03 2021.
