 Gaussian 16, Revision A.03,
 Gaussian 16:  ES64L-G16RevA.03 25-Dec-2016

 --------------------------------
 #p wB97XD/Def2SVP td=(nstates=5)
 --------------------------------

 --------------------------------
 TDDFT excited states in gaussian
 --------------------------------
 Symbolic Z-matrix:
 Charge =  0 Multiplicity = 1

                         Standard orientation:
 ---------------------------------------------------------------------
 Center     Atomic      Atomic             Coordinates (Angstroms)
 Number     Number       Type             X           Y           Z
 ---------------------------------------------------------------------
      1         12           0      -21.804562    0.331948   -0.264734
      2          6           0      -18.421417    0.493563    0.355342
      3          6           0      -21.118769   -1.270150   -3.201955
      4          6           0      -24.880866   -0.867288   -0.160325
      5          6           0      -22.327428    1.950179    2.806979
      6          7           0      -19.953777   -0.699689   -1.023272
      7          6           0      -18.690635   -0.288867   -0.740944
      8          6           0      -17.676053   -0.826441   -1.706374
      9          6           0      -18.572305   -0.979876   -2.977687
     10          6           0      -19.974657   -0.906613   -2.391909
     11          6           0      -18.254574    0.072634   -4.078268
     12          6           0      -17.075922   -2.244129   -1.233145
     13          6           0      -15.536974   -2.491123   -1.589694
     14          1           0      -15.455515   -3.709033   -2.476318
     15          7           0      -22.900245   -0.739282   -1.623113
     16          6           0      -22.477810   -1.397746   -2.724717
     17          6           0      -23.580975   -2.116135   -3.350123
     18          6           0      -24.690037   -1.978223   -2.490361
     19          6           0      -24.168645   -1.165285   -1.355830
     20          6           0      -23.381377   -2.899152   -4.670471
     21          6           0      -25.969884   -2.743676   -2.679991
     22          8           0      -26.101731   -3.448201   -3.646688
     23          6           0      -27.147158   -2.741749   -1.686202
     24          7           0      -23.479214    0.602318    1.064631
     25          6           0      -24.574473    0.007536    0.890117
     26          6           0      -25.524271    0.174182    2.018132
     27          6           0      -24.719491    1.108923    3.004306
     28          6           0      -23.447741    1.240812    2.285277
     29          6           0      -26.919810    0.690864    1.529940
     30          6           0      -24.543359    0.448095    4.449282
     31          6           0      -24.178631    1.401759    5.642101
     32          7           0      -20.674607    1.156653    1.252645
     33          6           0      -21.033781    1.870720    2.381367
     34          6           0      -19.871786    2.420297    3.023001
     35          6           0      -18.786531    1.935362    2.212204
     36          6           0      -19.320629    1.108160    1.243142
     37          6           0      -19.819207    3.287740    4.239195
     38          6           0      -17.374346    1.984862    2.051135
     39          8           0      -16.441729    2.524339    2.660434
     40          6           0      -17.061375    0.902453    0.965566
     41          6           0      -16.067614    1.509737    0.032385
     42          8           0      -14.838980    1.377934    0.123468
     43          8           0      -16.714497    2.275674   -0.897771
     44          6           0      -15.703729    2.911248   -1.788983
     45          1           0      -21.015555   -1.662674   -4.216096
     46          1           0      -25.870662   -1.325982   -0.125033
     47          1           0      -22.485226    2.330782    3.819013
     48          1           0      -16.968891   -0.006573   -1.825718
     49          1           0      -18.362472   -1.941895   -3.445516
     50          1           0      -17.876692   -0.436613   -4.964349
     51          1           0      -17.430359    0.683122   -3.707935
     52          1           0      -19.153795    0.668998   -4.229508
     53          1           0      -17.646302   -3.128371   -1.517147
     54          1           0      -17.134287   -2.335263   -0.149008
     55          1           0      -15.082664   -2.748520   -0.632786
     56          1           0      -14.931209   -1.669986   -1.973119
     57          1           0      -23.608325   -3.963602   -4.612149
     58          1           0      -22.391125   -2.781393   -5.111910
     59          1           0      -24.027123   -2.430493   -5.412335
     60          1           0      -27.618881   -1.765462   -1.579553
     61          1           0      -26.889474   -3.129848   -0.700448
     62          1           0      -27.810588   -3.527010   -2.049870
     63          1           0      -25.593378   -0.830712    2.434468
     64          1           0      -25.051637    2.139183    3.129880
     65          1           0      -27.654960   -0.053545    1.834949
     66          1           0      -26.942027    0.846115    0.451131
     67          1           0      -27.299328    1.546002    2.089014
     68          1           0      -23.770818   -0.320442    4.416441
     69          1           0      -25.492138   -0.046084    4.653155
     70          1           0      -24.832627    1.495145    6.508657
     71          1           0      -24.115564    2.433801    5.299837
     72          1           0      -23.202796    1.137671    6.049695
     73          1           0      -20.770730    3.668050    4.610253
     74          1           0      -19.164585    4.072819    3.862897
     75          1           0      -19.249767    2.638599    4.904493
     76          1           0      -16.681272   -0.037966    1.366036
     77          1           0      -15.151552    3.664648   -1.228112
     78          1           0      -16.155223    3.531070   -2.563658
     79          1           0      -15.089487    2.114850   -2.209690
     80         12           0       20.943185   -0.852437    0.024428
     81          6           0       21.685478    2.362979   -1.061847
     82          6           0       17.636914    0.183485    0.182909
     83          6           0       20.260361   -3.806367    1.565300
     84          6           0       24.313867   -1.620505   -0.042389
     85          7           0       19.808004    1.077881   -0.342253
     86          6           0       20.309680    2.277121   -0.824705
     87          6           0       19.231905    3.427557   -0.918350
     88          6           0       18.023483    2.722832   -0.188450
     89          6           0       18.510609    1.232416   -0.061106
     90          6           0       17.535788    3.207023    1.180206
     91          6           0       18.997772    3.843089   -2.382298
     92          6           0       19.546480    5.177861   -2.812952
     93          1           0       18.697597    5.988104   -3.808678
     94          7           0       19.197058   -1.808131    0.604358
     95          6           0       17.976577   -1.217414    0.498736
     96          6           0       17.016283   -2.201832    1.034600
     97          6           0       17.729085   -3.305269    1.529098
     98          6           0       19.088849   -3.047586    1.252544
     99          6           0       15.562424   -1.998123    0.892534
    100          6           0       17.241182   -4.529411    2.246988
    101          8           0       17.985030   -5.505723    2.542145
    102          6           0       15.897368   -4.705499    2.700444
    103          7           0       22.073275   -2.473278    0.581762
    104          6           0       21.575256   -3.592296    1.175327
    105          6           0       22.606218   -4.602208    1.494463
    106          6           0       23.916957   -3.946144    0.929336
    107          6           0       23.418660   -2.607554    0.532228
    108          6           0       22.835758   -5.164279    2.928311
    109          6           0       24.683894   -4.797253   -0.199317
    110          6           0       24.306537   -4.741498   -1.709493
    111          7           0       22.683568    0.112980   -0.399039
    112          6           0       23.975039   -0.328978   -0.421694
    113          6           0       24.802685    0.631672   -1.009371
    114          6           0       23.912101    1.758873   -1.191183
    115          6           0       22.638227    1.369097   -0.828540
    116          6           0       26.280887    0.504334   -1.372876
    117          6           0       23.878390    3.075318   -1.760678
    118          8           0       24.679029    3.768211   -2.355002
    119          6           0       22.430466    3.606636   -1.472858
    120          6           0       22.472780    4.625837   -0.405571
    121          8           0       21.994187    4.517775    0.744874
    122          8           0       23.123871    5.761079   -0.740790
    123          6           0       23.035688    6.962037    0.158221
    124          1           0       16.609237    0.534582    0.291505
    125          1           0       20.112246   -4.753136    2.089247
    126          1           0       25.362548   -1.841894   -0.253837
    127          1           0       19.421469    4.227110   -0.201427
    128          1           0       17.197121    2.756903   -0.898359
    129          1           0       17.777726    2.471122    1.947396
    130          1           0       16.448356    3.159741    1.145777
    131          1           0       17.894622    4.190096    1.486960
    132          1           0       17.914577    3.921034   -2.482744
    133          1           0       19.323252    3.023690   -3.023193
    134          1           0       20.514460    4.996064   -3.280669
    135          1           0       19.783649    5.871772   -2.006394
    136          1           0       15.226118   -2.826298    0.270071
    137          1           0       15.186443   -1.066065    0.468653
    138          1           0       15.085167   -2.087979    1.868335
    139          1           0       15.624614   -3.755400    3.159059
    140          1           0       15.797194   -5.631455    3.265250
    141          1           0       15.203900   -4.762086    1.861358
    142          1           0       22.258379   -5.410186    0.851480
    143          1           0       24.612702   -3.770111    1.748889
    144          1           0       22.591277   -6.224354    2.996506
    145          1           0       22.190788   -4.667731    3.654054
    146          1           0       23.845064   -4.995397    3.303480
    147          1           0       24.480330   -5.821047    0.115265
    148          1           0       25.716866   -4.524269    0.016963
    149          1           0       23.589363   -3.968330   -1.983914
    150          1           0       24.061868   -5.695324   -2.177746
    151          1           0       25.254115   -4.515692   -2.196818
    152          1           0       26.884851    1.279659   -0.900331
    153          1           0       26.368898    0.671971   -2.446183
    154          1           0       26.707855   -0.483337   -1.196814
    155          1           0       22.118727    4.182775   -2.344224
    156          1           0       23.410415    7.689660   -0.561809
    157          1           0       23.636192    6.905429    1.065531
    158          1           0       21.997340    7.130240    0.445626
 ---------------------------------------------------------------------

 SCF Done:  E(RwB97XD) =  -4070.60355234     A.U. after   19 cycles

 Excitation energies and oscillator strengths:

 Excited State   1:      Singlet-A      1.6446 eV  753.90 nm  f=0.3981  <S**2>=0.000
     310 -> 316        0.18296
     312 -> 314        0.68225
     310 <- 316        0.11713
 This state for optimization and/or second-order correction.
 Total Energy, E(TD-HF/TD-DFT) =  -4070.54311550
 Copying the excited state density for this state as the 1-particle RhoCI density.

 Excited State   2:      Singlet-A      1.6577 eV  747.91 nm  f=0.3486  <S**2>=0.000
     309 -> 315        0.16756
     311 -> 313        0.68530
     309 <- 315        0.10875

 Excited State   3:      Singlet-A      2.1516 eV  576.25 nm  f=0.1383  <S**2>=0.000
     310 -> 314        0.64866
     312 -> 316       -0.26448

 Excited State   4:      Singlet-A      2.1685 eV  571.75 nm  f=0.1039  <S**2>=0.000
     309 -> 313        0.63811
     311 -> 315       -0.28224

 Excited State   5:      Singlet-A      3.3484 eV  370.28 nm  f=0.0040  <S**2>=0.000
     304 -> 314       -0.19164
     307 -> 314        0.65636

 The electronic state is 1-A.
 Alpha  occ. eigenvalues --  -46.95595 -46.93836 -19.30767 -19.29223 -19.24627
 Alpha  occ. eigenvalues --  -19.24011 -19.23232 -19.23153 -19.22954 -19.22911
 Alpha  occ. eigenvalues --  -14.46708 -14.46568 -14.46525 -14.46408 -14.44991
 Alpha  occ. eigenvalues --  -14.44110 -14.43161 -14.42911 -10.42524 -10.42317
 Alpha  occ. eigenvalues --  -10.39816 -10.38424 -10.38145 -10.38046 -10.36477
 Alpha  occ. eigenvalues --  -10.35904 -10.35712 -10.35474 -10.35186 -10.34960
 Alpha  occ. eigenvalues --  -10.34753 -10.34717 -10.34628 -10.34446 -10.34192
 Alpha  occ. eigenvalues --  -10.34092 -10.34042 -10.33954 -10.33674 -10.32835
 Alpha  occ. eigenvalues --  -10.32763 -10.32495 -10.32470 -10.32465 -10.32290
 Alpha  occ. eigenvalues --  -10.32276 -10.32228 -10.32198 -10.32177 -10.32138
 Alpha  occ. eigenvalues --  -10.31880 -10.31878 -10.31839 -10.31821 -10.31770
 Alpha  occ. eigenvalues --  -10.31713 -10.31669 -10.31532 -10.31417 -10.31381
 Alpha  occ. eigenvalues --  -10.31326 -10.31311 -10.31285 -10.31276 -10.31083
 Alpha  occ. eigenvalues --  -10.31052 -10.30913 -10.30792 -10.30766 -10.30756
 Alpha  occ. eigenvalues --  -10.30732 -10.30695 -10.30681 -10.30622 -10.30615
 Alpha  occ. eigenvalues --  -10.30157 -10.30128 -10.30119 -10.30039 -10.29915
 Alpha  occ. eigenvalues --  -10.29803 -10.29742 -10.29498 -10.29466 -10.28614
 Alpha  occ. eigenvalues --  -10.28404  -3.21606  -3.19964  -1.95183  -1.94744
 Alpha  occ. eigenvalues --   -1.94568  -1.93569  -1.93099  -1.92942  -1.18112
 Alpha  occ. eigenvalues --   -1.17247  -1.14268  -1.11720  -1.10290  -1.10103
 Alpha  occ. eigenvalues --   -1.09082  -1.08630  -1.07216  -1.06840  -1.06713
 Alpha  occ. eigenvalues --   -1.06074  -1.06001  -1.05209  -1.04836  -1.04240
 Alpha  occ. eigenvalues --   -0.95027  -0.94449  -0.91632  -0.90842  -0.90637
 Alpha  occ. eigenvalues --   -0.90292  -0.90162  -0.90162  -0.89492  -0.89269
 Alpha  occ. eigenvalues --   -0.88962  -0.88887  -0.88549  -0.88004  -0.86239
 Alpha  occ. eigenvalues --   -0.86236  -0.85701  -0.85522  -0.84684  -0.84302
 Alpha  occ. eigenvalues --   -0.84203  -0.83771  -0.82884  -0.82855  -0.82453
 Alpha  occ. eigenvalues --   -0.82310  -0.80479  -0.80373  -0.79845  -0.79382
 Alpha  occ. eigenvalues --   -0.78745  -0.78731  -0.78090  -0.77899  -0.77471
 Alpha  occ. eigenvalues --   -0.77189  -0.75048  -0.74670  -0.74244  -0.73272
 Alpha  occ. eigenvalues --   -0.72408  -0.71984  -0.71355  -0.70680  -0.70162
 Alpha  occ. eigenvalues --   -0.69923  -0.69707  -0.69060  -0.68773  -0.67332
 Alpha  occ. eigenvalues --   -0.67093  -0.66976  -0.66888  -0.66581  -0.66488
 Alpha  occ. eigenvalues --   -0.66325  -0.64413  -0.63433  -0.62602  -0.61912
 Alpha  occ. eigenvalues --   -0.61595  -0.61564  -0.61212  -0.61101  -0.60797
 Alpha  occ. eigenvalues --   -0.60546  -0.60018  -0.59682  -0.59247  -0.58995
 Alpha  occ. eigenvalues --   -0.58613  -0.58134  -0.58108  -0.57673  -0.57515
 Alpha  occ. eigenvalues --   -0.56958  -0.56829  -0.56303  -0.56098  -0.55727
 Alpha  occ. eigenvalues --   -0.55575  -0.55146  -0.54956  -0.54793  -0.54688
 Alpha  occ. eigenvalues --   -0.54408  -0.54361  -0.54335  -0.53966  -0.53922
 Alpha  occ. eigenvalues --   -0.53766  -0.53636  -0.53143  -0.53134  -0.52962
 Alpha  occ. eigenvalues --   -0.52752  -0.52558  -0.52439  -0.52248  -0.52196
 Alpha  occ. eigenvalues --   -0.52049  -0.51874  -0.51685  -0.51669  -0.51524
 Alpha  occ. eigenvalues --   -0.51323  -0.51087  -0.50866  -0.50864  -0.50675
 Alpha  occ. eigenvalues --   -0.50629  -0.50317  -0.50264  -0.50052  -0.49789
 Alpha  occ. eigenvalues --   -0.49730  -0.49661  -0.49598  -0.49383  -0.49129
 Alpha  occ. eigenvalues --   -0.48910  -0.48766  -0.48653  -0.48417  -0.48233
 Alpha  occ. eigenvalues --   -0.48188  -0.48118  -0.47878  -0.47836  -0.47705
 Alpha  occ. eigenvalues --   -0.47566  -0.47354  -0.47263  -0.47140  -0.47108
 Alpha  occ. eigenvalues --   -0.47047  -0.46659  -0.46591  -0.46376  -0.46272
 Alpha  occ. eigenvalues --   -0.46160  -0.46131  -0.45964  -0.45855  -0.45777
 Alpha  occ. eigenvalues --   -0.45655  -0.45314  -0.45306  -0.45133  -0.44901
 Alpha  occ. eigenvalues --   -0.44795  -0.44649  -0.44546  -0.44355  -0.44109
 Alpha  occ. eigenvalues --   -0.43856  -0.43840  -0.43479  -0.43369  -0.43369
 Alpha  occ. eigenvalues --   -0.43137  -0.42991  -0.42686  -0.42647  -0.42192
 Alpha  occ. eigenvalues --   -0.42003  -0.41964  -0.41552  -0.41532  -0.40783
 Alpha  occ. eigenvalues --   -0.40605  -0.40250  -0.40092  -0.39766  -0.39642
 Alpha  occ. eigenvalues --   -0.38914  -0.38805  -0.38794  -0.38498  -0.38435
 Alpha  occ. eigenvalues --   -0.38347  -0.37567  -0.36998  -0.36262  -0.35829
 Alpha  occ. eigenvalues --   -0.35406  -0.35359  -0.34716  -0.33996  -0.33611
 Alpha  occ. eigenvalues --   -0.33172  -0.32817  -0.32502  -0.32114  -0.32035
 Alpha  occ. eigenvalues --   -0.31887  -0.31446  -0.31053  -0.26169  -0.25511
 Alpha  occ. eigenvalues --   -0.23008  -0.22874
 Alpha virt. eigenvalues --   -0.07138  -0.07003   0.00114   0.00652   0.02271
 Alpha virt. eigenvalues --    0.02794   0.04127   0.04503   0.05116   0.06673
 Alpha virt. eigenvalues --    0.06943   0.07533   0.08099   0.08128   0.08461

 Mulliken charges:
               1
     1  Mg   0.966785
     2  C    0.016028
     3  C   -0.089511
     4  C   -0.073410
     5  C   -0.081617
     6  N   -0.340805
     7  C   -0.050103
     8  C   -0.024598
     9  C   -0.146457
    10  C    0.111124
    11  C    0.045237
    12  C    0.022933
    13  C   -0.129964
    14  H    0.028874
    15  N   -0.460604
    16  C    0.119285
    17  C   -0.139224
    18  C   -0.060685
    19  C    0.168452
    20  C    0.086702
    21  C    0.018700
    22  O   -0.211039
    23  C   -0.019713
    24  N   -0.295302
    25  C    0.031337
    26  C   -0.087953
    27  C   -0.051353
    28  C    0.005471
    29  C    0.018775
    30  C   -0.018598
    31  C   -0.065317
    32  N   -0.450961
    33  C    0.151166
    34  C   -0.200764
    35  C   -0.007553
    36  C    0.106043
    37  C    0.098599
    38  C    0.085815
    39  O   -0.226271
    40  C   -0.061186
    41  C    0.241312
    42  O   -0.258139
    43  O   -0.370072
    44  C    0.138478
    45  H    0.002881
    46  H   -0.045434
    47  H   -0.027240
    48  H    0.026004
    49  H    0.042450
    50  H    0.041609
    51  H    0.029806
    52  H    0.040839
    53  H    0.040698
    54  H    0.032343
    55  H    0.057533
    56  H    0.062887
    57  H    0.069825
    58  H    0.019232
    59  H    0.052855
    60  H    0.067242
    61  H    0.060715
    62  H    0.051564
    63  H    0.046699
    64  H    0.041969
    65  H    0.030608
    66  H    0.057224
    67  H    0.038753
    68  H    0.041075
    69  H    0.036583
    70  H    0.040130
    71  H    0.033023
    72  H    0.044187
    73  H    0.043268
    74  H    0.064989
    75  H    0.064721
    76  H    0.078432
    77  H    0.064856
    78  H    0.047307
    79  H    0.060452
    80  Mg   0.984064
    81  C   -0.026459
    82  C   -0.065000
    83  C   -0.072393
    84  C   -0.099260
    85  N   -0.335769
    86  C   -0.019344
    87  C   -0.045866
    88  C   -0.130720
    89  C    0.025601
    90  C    0.037415
    91  C    0.055275
    92  C   -0.144154
    93  H    0.038418
    94  N   -0.481687
    95  C    0.183413
    96  C   -0.191540
    97  C   -0.022592
    98  C    0.131791
    99  C    0.056739
   100  C    0.038537
   101  O   -0.281153
   102  C    0.024495
   103  N   -0.375202
   104  C    0.076529
   105  C   -0.094249
   106  C   -0.054972
   107  C    0.063465
   108  C    0.027623
   109  C   -0.032310
   110  C   -0.043680
   111  N   -0.452894
   112  C    0.130555
   113  C   -0.169553
   114  C   -0.056339
   115  C    0.216002
   116  C    0.092233
   117  C    0.091519
   118  O   -0.190149
   119  C   -0.123855
   120  C    0.263204
   121  O   -0.290769
   122  O   -0.356986
   123  C    0.146680
   124  H   -0.008920
   125  H    0.021555
   126  H   -0.013585
   127  H    0.038402
   128  H    0.026816
   129  H    0.047607
   130  H    0.032213
   131  H    0.052293
   132  H    0.035841
   133  H    0.047001
   134  H    0.065109
   135  H    0.052666
   136  H    0.057350
   137  H    0.043397
   138  H    0.035791
   139  H    0.042716
   140  H    0.066661
   141  H    0.043788
   142  H    0.047286
   143  H    0.036166
   144  H    0.044649
   145  H    0.039235
   146  H    0.036201
   147  H    0.035217
   148  H    0.040125
   149  H    0.056380
   150  H    0.040391
   151  H    0.028939
   152  H    0.060674
   153  H    0.053734
   154  H    0.024451
   155  H    0.056485
   156  H    0.065999
   157  H    0.067005
   158  H    0.053700
 Sum of Mulliken charges =  -0.00000

 Dipole moment (field-independent basis, Debye):
    X=             -9.0026    Y=             -0.2543    Z=             -0.7983  Tot=              9.0415
 Quadrupole moment (field-independent basis, Debye-Ang):
   XX=           -372.4871   YY=           -508.7194   ZZ=           -509.3989
   XY=            -60.8519   XZ=            -14.6619   YZ=             -0.1683

 Normal termination of Gaussian 16 at Mon Sep 20 05:38:36 2021.
