 Gaussian 16, Revision A.03,
 Gaussian 16:  ES64L-G16RevA.03 25-Dec-2016

 --------------------------------
 #p wB97XD/Def2SVP td=(nstates=5)
 --------------------------------

 --------------------------------
 TDDFT excited states in gaussian
 --------------------------------
 Symbolic Z-matrix:
 Charge =  0 Multiplicity = 1

                         Standard orientation:
 ---------------------------------------------------------------------
 Center     Atomic      Atomic             Coordinates (Angstroms)
 Number     Number       Type             X           Y           Z
 ---------------------------------------------------------------------
      1         12           0        5.072883   -0.806711   -0.394854
      2          6           0        3.065840    2.177134   -1.106082
      3          6           0        7.677032    1.395529    0.407939
      4          6           0        7.028097   -3.396762   -0.084441
      5          6           0        2.333395   -2.762654   -1.051681
      6          7           0        5.401016    1.476065   -0.552551
      7          6           0        4.412330    2.530470   -0.741309
      8          6           0        4.994535    3.956360   -0.635994
      9          6           0        6.560430    3.579975   -0.341358
     10          6           0        6.600648    2.050483   -0.155345
     11          6           0        7.519255    4.074060   -1.407117
     12          6           0        4.237208    4.779988    0.449187
     13          6           0        4.892950    6.066185    0.853151
     14          1           0        4.058017    7.317263    1.012398
     15          7           0        7.113920   -1.012056    0.077677
     16          6           0        8.026086    0.003594    0.385886
     17          6           0        9.322432   -0.583759    0.719336
     18          6           0        9.158303   -2.023402    0.587338
     19          6           0        7.721610   -2.238620    0.176609
     20          6           0       10.577957    0.224010    1.213962
     21          6           0       10.125811   -3.141639    0.737213
     22          8           0        9.848766   -4.328654    0.627709
     23          6           0       11.509901   -2.867471    1.158516
     24          7           0        4.725663   -2.740431   -0.451330
     25          6           0        5.706898   -3.643959   -0.417960
     26          6           0        5.189124   -5.094019   -0.564777
     27          6           0        3.695961   -4.883950   -0.422032
     28          6           0        3.537759   -3.343896   -0.726718
     29          6           0        5.577291   -5.740825   -1.889351
     30          6           0        2.932922   -5.250916    0.824375
     31          6           0        3.343293   -4.474243    2.057217
     32          7           0        3.132949   -0.434188   -1.054882
     33          6           0        2.087514   -1.366935   -1.179401
     34          6           0        0.888404   -0.672553   -1.579183
     35          6           0        1.271081    0.689138   -1.470016
     36          6           0        2.641178    0.798853   -1.164990
     37          6           0       -0.481724   -1.233451   -1.825532
     38          6           0        0.678793    2.059637   -1.559663
     39          8           0       -0.506256    2.431761   -1.696492
     40          6           0        1.843381    3.026428   -1.357238
     41          6           0        1.942084    3.983759   -2.546813
     42          8           0        2.196911    3.750757   -3.765276
     43          8           0        1.846370    5.248182   -2.045382
     44          6           0        2.002846    6.343182   -3.029428
     45          1           0        8.410622    2.073209    0.847372
     46          1           0        7.678045   -4.273478   -0.048453
     47          1           0        1.428964   -3.322088   -1.300123
     48          1           0        4.762491    4.427016   -1.591323
     49          1           0        6.829455    3.948315    0.648639
     50          1           0        8.250250    4.731799   -0.936004
     51          1           0        6.921148    4.649247   -2.112998
     52          1           0        7.909564    3.341503   -2.113271
     53          1           0        4.033830    4.076891    1.257640
     54          1           0        3.246867    5.026402    0.066099
     55          1           0        5.661984    6.459726    0.188861
     56          1           0        5.305601    5.956678    1.855648
     57          1           0       10.765077   -0.148755    2.221419
     58          1           0       10.409744    1.299619    1.265354
     59          1           0       11.385460   -0.020700    0.523804
     60          1           0       11.963093   -2.013046    0.655426
     61          1           0       12.042984   -3.777418    0.885228
     62          1           0       11.405039   -2.548045    2.194927
     63          1           0        5.635512   -5.673661    0.243297
     64          1           0        3.130188   -5.448190   -1.163939
     65          1           0        5.853612   -6.777178   -1.698593
     66          1           0        6.428663   -5.233698   -2.342067
     67          1           0        4.703217   -5.829581   -2.535503
     68          1           0        2.998833   -6.332020    0.949781
     69          1           0        1.886190   -4.958950    0.741098
     70          1           0        3.473906   -5.121892    2.923385
     71          1           0        2.585115   -3.758732    2.376296
     72          1           0        4.283122   -3.931620    1.954543
     73          1           0       -1.212713   -0.686190   -1.230838
     74          1           0       -0.693114   -2.287452   -1.645428
     75          1           0       -0.702405   -1.072031   -2.880891
     76          1           0        1.611954    3.659332   -0.500039
     77          1           0        3.012476    6.749188   -2.970459
     78          1           0        1.187842    6.984066   -2.693039
     79          1           0        1.721432    6.040073   -4.038724
     80         12           0       -5.164949   -0.656917    0.186569
     81          6           0       -3.109283    2.034452    1.142466
     82          6           0       -7.785902    1.613269   -0.073148
     83          6           0       -7.132493   -3.269014   -0.390747
     84          6           0       -2.627655   -2.925767    1.328911
     85          7           0       -5.420424    1.532536    0.518031
     86          6           0       -4.382858    2.435750    0.788467
     87          6           0       -4.836398    3.837469    0.424787
     88          6           0       -6.384458    3.742654    0.309763
     89          6           0       -6.545279    2.194015    0.241247
     90          6           0       -7.208842    4.477217    1.413187
     91          6           0       -4.132204    4.446499   -0.836952
     92          6           0       -3.968117    6.029444   -0.791272
     93          1           0       -4.546370    6.773558    0.415346
     94          7           0       -7.087194   -0.781707   -0.290094
     95          6           0       -7.987645    0.260955   -0.424976
     96          6           0       -9.250188   -0.217452   -0.909578
     97          6           0       -9.138735   -1.644637   -0.891969
     98          6           0       -7.756021   -1.933610   -0.555801
     99          6           0      -10.477724    0.704842   -1.181108
    100          6           0      -10.191982   -2.668929   -1.161871
    101          8           0       -9.987771   -3.889106   -0.955858
    102          6           0      -11.664158   -2.465957   -1.626671
    103          7           0       -5.036770   -2.783307    0.680587
    104          6           0       -5.952992   -3.661253    0.230440
    105          6           0       -5.402875   -5.107549    0.309578
    106          6           0       -3.981675   -5.011420    0.875895
    107          6           0       -3.850512   -3.425358    0.923872
    108          6           0       -6.366246   -6.035498    0.984699
    109          6           0       -2.856314   -5.701441    0.075414
    110          6           0       -2.677693   -5.203238   -1.379945
    111          7           0       -3.249351   -0.544177    1.129598
    112          6           0       -2.334166   -1.514484    1.359210
    113          6           0       -1.075362   -0.838260    1.668778
    114          6           0       -1.271824    0.568514    1.583126
    115          6           0       -2.650573    0.713456    1.294250
    116          6           0        0.269257   -1.522411    1.900809
    117          6           0       -0.652429    1.849542    1.704598
    118          8           0        0.506815    2.224902    1.858300
    119          6           0       -1.904529    2.921690    1.471844
    120          6           0       -1.970763    3.873847    2.651103
    121          8           0       -2.487837    3.592389    3.714411
    122          8           0       -1.464401    5.108338    2.313317
    123          6           0       -1.084768    6.031209    3.378089
    124          1           0       -8.496160    2.424382   -0.245522
    125          1           0       -7.798103   -4.082279   -0.686470
    126          1           0       -1.861845   -3.677522    1.529561
    127          1           0       -4.590799    4.517824    1.240071
    128          1           0       -6.655507    4.160048   -0.659559
    129          1           0       -7.827801    3.674644    1.812863
    130          1           0       -7.896476    5.195697    0.965421
    131          1           0       -6.693158    4.952974    2.247316
    132          1           0       -4.722867    4.286678   -1.738459
    133          1           0       -3.176156    3.943611   -0.976695
    134          1           0       -4.555881    6.438960   -1.612960
    135          1           0       -2.904854    6.246059   -0.891565
    136          1           0      -11.369320    0.167659   -0.855403
    137          1           0      -10.610476    0.924872   -2.239847
    138          1           0      -10.542289    1.704298   -0.751232
    139          1           0      -11.699029   -1.891486   -2.552775
    140          1           0      -12.286913   -2.013072   -0.855244
    141          1           0      -12.124241   -3.353521   -2.059397
    142          1           0       -5.453312   -5.491051   -0.708673
    143          1           0       -4.084670   -5.287768    1.925833
    144          1           0       -6.916411   -6.660027    0.280617
    145          1           0       -7.043176   -5.467551    1.623105
    146          1           0       -5.903060   -6.721183    1.695077
    147          1           0       -3.182361   -6.741071    0.038253
    148          1           0       -1.912338   -5.630841    0.616622
    149          1           0       -1.656894   -4.824579   -1.427678
    150          1           0       -3.414333   -4.414710   -1.534100
    151          1           0       -2.910631   -5.947428   -2.141695
    152          1           0        1.089931   -1.017144    1.392387
    153          1           0        0.295008   -2.514492    1.450931
    154          1           0        0.405162   -1.643535    2.975850
    155          1           0       -1.597464    3.502867    0.601961
    156          1           0       -1.848567    5.942000    4.151036
    157          1           0       -1.040309    7.079210    3.081545
    158          1           0       -0.078363    5.734499    3.673511
 ---------------------------------------------------------------------

 SCF Done:  E(RwB97XD) =  -4070.65327607     A.U. after   20 cycles

 Excitation energies and oscillator strengths:

 Excited State   1:      Singlet-A      1.5407 eV  804.73 nm  f=0.9432  <S**2>=0.000
     310 -> 316       -0.11869
     311 -> 313        0.42920
     311 -> 314       -0.14336
     312 -> 313        0.15793
     312 -> 314        0.49459
 This state for optimization and/or second-order correction.
 Total Energy, E(TD-HF/TD-DFT) =  -4070.59665681
 Copying the excited state density for this state as the 1-particle RhoCI density.

 Excited State   2:      Singlet-A      1.6369 eV  757.45 nm  f=0.0173  <S**2>=0.000
     309 -> 315       -0.13154
     310 -> 316        0.11909
     311 -> 313        0.50642
     312 -> 314       -0.44938

 Excited State   3:      Singlet-A      2.0962 eV  591.48 nm  f=0.0306  <S**2>=0.000
     309 -> 313        0.60151
     310 -> 314       -0.25743
     311 -> 315        0.22329

 Excited State   4:      Singlet-A      2.1357 eV  580.54 nm  f=0.2106  <S**2>=0.000
     309 -> 313        0.24028
     310 -> 314        0.59915
     312 -> 316        0.21610

 Excited State   5:      Singlet-A      2.6246 eV  472.39 nm  f=0.0000  <S**2>=0.000
     311 -> 313       -0.17099
     312 -> 313        0.67538

 The electronic state is 1-A.
 Alpha  occ. eigenvalues --  -46.94785 -46.93872 -19.30844 -19.29065 -19.24460
 Alpha  occ. eigenvalues --  -19.24164 -19.23730 -19.23707 -19.23691 -19.23059
 Alpha  occ. eigenvalues --  -14.46912 -14.46683 -14.46572 -14.45563 -14.44461
 Alpha  occ. eigenvalues --  -14.44400 -14.43546 -14.43237 -10.43631 -10.42431
 Alpha  occ. eigenvalues --  -10.39248 -10.39134 -10.38743 -10.38577 -10.35705
 Alpha  occ. eigenvalues --  -10.35613 -10.35336 -10.35309 -10.35224 -10.34996
 Alpha  occ. eigenvalues --  -10.34876 -10.34623 -10.34573 -10.34458 -10.34441
 Alpha  occ. eigenvalues --  -10.34383 -10.34214 -10.34089 -10.34018 -10.33429
 Alpha  occ. eigenvalues --  -10.33320 -10.33025 -10.32691 -10.32679 -10.32593
 Alpha  occ. eigenvalues --  -10.32564 -10.32514 -10.32438 -10.32433 -10.32337
 Alpha  occ. eigenvalues --  -10.32259 -10.32162 -10.31754 -10.31684 -10.31615
 Alpha  occ. eigenvalues --  -10.31591 -10.31453 -10.31437 -10.31423 -10.31388
 Alpha  occ. eigenvalues --  -10.31326 -10.31276 -10.31195 -10.30935 -10.30864
 Alpha  occ. eigenvalues --  -10.30830 -10.30646 -10.30618 -10.30270 -10.30223
 Alpha  occ. eigenvalues --  -10.30219 -10.29927 -10.29899 -10.29836 -10.29688
 Alpha  occ. eigenvalues --  -10.29631 -10.29592 -10.29581 -10.29500 -10.29414
 Alpha  occ. eigenvalues --  -10.29349 -10.28996 -10.28865 -10.28523 -10.28511
 Alpha  occ. eigenvalues --  -10.28290  -3.20804  -3.20029  -1.94362  -1.93926
 Alpha  occ. eigenvalues --   -1.93784  -1.93627  -1.93166  -1.93009  -1.18043
 Alpha  occ. eigenvalues --   -1.17171  -1.12491  -1.11392  -1.10281  -1.10156
 Alpha  occ. eigenvalues --   -1.09194  -1.07816  -1.06888  -1.05891  -1.05001
 Alpha  occ. eigenvalues --   -1.04821  -1.04592  -1.04153  -1.03691  -1.02350
 Alpha  occ. eigenvalues --   -0.93949  -0.93543  -0.91476  -0.90848  -0.90642
 Alpha  occ. eigenvalues --   -0.90195  -0.89695  -0.89661  -0.89074  -0.88876
 Alpha  occ. eigenvalues --   -0.88801  -0.88376  -0.87624  -0.86783  -0.86439
 Alpha  occ. eigenvalues --   -0.85798  -0.85299  -0.84799  -0.84650  -0.84104
 Alpha  occ. eigenvalues --   -0.83596  -0.83203  -0.82465  -0.82171  -0.81809
 Alpha  occ. eigenvalues --   -0.81580  -0.80331  -0.80271  -0.79055  -0.78572
 Alpha  occ. eigenvalues --   -0.78442  -0.78090  -0.77685  -0.77301  -0.77291
 Alpha  occ. eigenvalues --   -0.76551  -0.74532  -0.74053  -0.73720  -0.72640
 Alpha  occ. eigenvalues --   -0.72086  -0.71597  -0.71182  -0.70684  -0.69797
 Alpha  occ. eigenvalues --   -0.69333  -0.69001  -0.68886  -0.66839  -0.66722
 Alpha  occ. eigenvalues --   -0.66477  -0.66198  -0.65996  -0.65824  -0.65682
 Alpha  occ. eigenvalues --   -0.65651  -0.63764  -0.63206  -0.62549  -0.62092
 Alpha  occ. eigenvalues --   -0.60992  -0.60923  -0.60889  -0.60280  -0.60035
 Alpha  occ. eigenvalues --   -0.59658  -0.59453  -0.59179  -0.58917  -0.58380
 Alpha  occ. eigenvalues --   -0.58118  -0.57694  -0.57502  -0.57348  -0.57258
 Alpha  occ. eigenvalues --   -0.57122  -0.56539  -0.56432  -0.56296  -0.55974
 Alpha  occ. eigenvalues --   -0.55482  -0.55262  -0.54871  -0.54814  -0.54687
 Alpha  occ. eigenvalues --   -0.54544  -0.54386  -0.54356  -0.54078  -0.53877
 Alpha  occ. eigenvalues --   -0.53778  -0.53403  -0.53272  -0.52784  -0.52669
 Alpha  occ. eigenvalues --   -0.52509  -0.52466  -0.52334  -0.52043  -0.51964
 Alpha  occ. eigenvalues --   -0.51597  -0.51440  -0.51377  -0.51211  -0.51013
 Alpha  occ. eigenvalues --   -0.50795  -0.50660  -0.50619  -0.50474  -0.50352
 Alpha  occ. eigenvalues --   -0.50270  -0.50211  -0.49894  -0.49807  -0.49649
 Alpha  occ. eigenvalues --   -0.49483  -0.49450  -0.49369  -0.49174  -0.48953
 Alpha  occ. eigenvalues --   -0.48656  -0.48590  -0.48404  -0.48212  -0.47895
 Alpha  occ. eigenvalues --   -0.47744  -0.47685  -0.47625  -0.47491  -0.47343
 Alpha  occ. eigenvalues --   -0.47239  -0.46925  -0.46764  -0.46708  -0.46369
 Alpha  occ. eigenvalues --   -0.46187  -0.46178  -0.46032  -0.45880  -0.45787
 Alpha  occ. eigenvalues --   -0.45576  -0.45545  -0.45453  -0.45217  -0.45013
 Alpha  occ. eigenvalues --   -0.44964  -0.44582  -0.44446  -0.44400  -0.44309
 Alpha  occ. eigenvalues --   -0.44189  -0.43988  -0.43839  -0.43718  -0.43608
 Alpha  occ. eigenvalues --   -0.43552  -0.43246  -0.43180  -0.43152  -0.43033
 Alpha  occ. eigenvalues --   -0.42668  -0.42293  -0.42253  -0.42065  -0.41506
 Alpha  occ. eigenvalues --   -0.41470  -0.41234  -0.40902  -0.40877  -0.40673
 Alpha  occ. eigenvalues --   -0.40466  -0.40213  -0.39211  -0.39083  -0.38998
 Alpha  occ. eigenvalues --   -0.38932  -0.38599  -0.38355  -0.38293  -0.37830
 Alpha  occ. eigenvalues --   -0.37757  -0.37573  -0.36103  -0.35889  -0.35572
 Alpha  occ. eigenvalues --   -0.35277  -0.35086  -0.34792  -0.33502  -0.33218
 Alpha  occ. eigenvalues --   -0.33097  -0.32550  -0.32433  -0.32383  -0.32323
 Alpha  occ. eigenvalues --   -0.31883  -0.31256  -0.31049  -0.25936  -0.25572
 Alpha  occ. eigenvalues --   -0.23098  -0.22715
 Alpha virt. eigenvalues --   -0.07466  -0.07170   0.00455   0.00991   0.02389
 Alpha virt. eigenvalues --    0.02513   0.04361   0.04520   0.05264   0.06582
 Alpha virt. eigenvalues --    0.06875   0.07824   0.07992   0.08300   0.08860

 Mulliken charges:
               1
     1  Mg   0.975061
     2  C   -0.014010
     3  C   -0.089893
     4  C   -0.092896
     5  C   -0.076533
     6  N   -0.366517
     7  C   -0.003674
     8  C   -0.067974
     9  C   -0.112530
    10  C    0.089656
    11  C    0.052139
    12  C   -0.007145
    13  C   -0.126342
    14  H    0.024384
    15  N   -0.467426
    16  C    0.162708
    17  C   -0.170063
    18  C   -0.057878
    19  C    0.153231
    20  C    0.067208
    21  C    0.021939
    22  O   -0.243968
    23  C    0.001962
    24  N   -0.422745
    25  C    0.104921
    26  C   -0.088592
    27  C   -0.064762
    28  C    0.113534
    29  C    0.043307
    30  C    0.013211
    31  C   -0.069794
    32  N   -0.447420
    33  C    0.054252
    34  C   -0.150009
    35  C   -0.098843
    36  C    0.173588
    37  C    0.076580
    38  C    0.171347
    39  O   -0.252627
    40  C   -0.054506
    41  C    0.273967
    42  O   -0.288713
    43  O   -0.364503
    44  C    0.126193
    45  H   -0.007122
    46  H    0.020866
    47  H   -0.005325
    48  H    0.049857
    49  H    0.035696
    50  H    0.045068
    51  H    0.021198
    52  H    0.047206
    53  H    0.046870
    54  H    0.060087
    55  H    0.050227
    56  H    0.055344
    57  H    0.061561
    58  H    0.044271
    59  H    0.066547
    60  H    0.026918
    61  H    0.066082
    62  H    0.059872
    63  H    0.041443
    64  H    0.012008
    65  H    0.035231
    66  H    0.048479
    67  H    0.035852
    68  H    0.034275
    69  H    0.022546
    70  H    0.028922
    71  H    0.036119
    72  H    0.043199
    73  H    0.071937
    74  H    0.016392
    75  H    0.048570
    76  H    0.086123
    77  H    0.066514
    78  H    0.058247
    79  H    0.074294
    80  Mg   0.970321
    81  C    0.024191
    82  C   -0.061247
    83  C   -0.064580
    84  C   -0.066915
    85  N   -0.338049
    86  C   -0.003865
    87  C   -0.037730
    88  C   -0.097217
    89  C    0.010982
    90  C    0.028060
    91  C   -0.015456
    92  C   -0.128328
    93  H    0.025999
    94  N   -0.494495
    95  C    0.189928
    96  C   -0.136754
    97  C   -0.055470
    98  C    0.138193
    99  C    0.059194
   100  C    0.036180
   101  O   -0.272801
   102  C   -0.006930
   103  N   -0.341327
   104  C    0.078143
   105  C   -0.130304
   106  C   -0.018312
   107  C    0.011606
   108  C    0.022013
   109  C   -0.020139
   110  C   -0.051137
   111  N   -0.426612
   112  C    0.142154
   113  C   -0.211706
   114  C    0.018993
   115  C    0.119529
   116  C    0.071556
   117  C    0.123015
   118  O   -0.221315
   119  C   -0.117616
   120  C    0.269519
   121  O   -0.239573
   122  O   -0.377677
   123  C    0.134939
   124  H   -0.003202
   125  H    0.021686
   126  H   -0.008677
   127  H    0.028403
   128  H    0.033186
   129  H    0.028991
   130  H    0.033687
   131  H    0.057280
   132  H    0.028546
   133  H    0.064295
   134  H    0.051845
   135  H    0.069455
   136  H    0.036169
   137  H    0.050942
   138  H    0.045246
   139  H    0.030836
   140  H    0.072876
   141  H    0.047717
   142  H    0.036560
   143  H    0.038131
   144  H    0.043026
   145  H    0.042054
   146  H    0.020933
   147  H    0.033063
   148  H    0.037124
   149  H    0.047346
   150  H    0.042302
   151  H    0.043975
   152  H    0.074917
   153  H    0.006429
   154  H    0.055730
   155  H    0.072042
   156  H    0.059726
   157  H    0.052431
   158  H    0.060769
 Sum of Mulliken charges =  -0.00000

 Dipole moment (field-independent basis, Debye):
    X=              2.2199    Y=              3.6767    Z=             -1.1728  Tot=              4.4521
 Quadrupole moment (field-independent basis, Debye-Ang):
   XX=           -452.5110   YY=           -465.0890   ZZ=           -529.3508
   XY=              3.9003   XZ=             29.2294   YZ=             -0.4232

 Normal termination of Gaussian 16 at Sun Sep 19 01:32:38 2021.
