 Gaussian 16, Revision A.03,
 Gaussian 16:  ES64L-G16RevA.03 25-Dec-2016

 --------------------------------
 #p wB97XD/Def2SVP td=(nstates=5)
 --------------------------------

 --------------------------------
 TDDFT excited states in gaussian
 --------------------------------
 Symbolic Z-matrix:
 Charge =  0 Multiplicity = 1

                         Standard orientation:
 ---------------------------------------------------------------------
 Center     Atomic      Atomic             Coordinates (Angstroms)
 Number     Number       Type             X           Y           Z
 ---------------------------------------------------------------------
      1         12           0      -27.129408   -0.398382    0.106615
      2          6           0      -23.723957   -0.114090   -0.774557
      3          6           0      -26.160072   -1.272502    3.341424
      4          6           0      -30.296197    0.341136    1.125901
      5          6           0      -27.864645    1.013830   -3.101958
      6          7           0      -25.198053   -0.683886    1.106051
      7          6           0      -23.972208   -0.490643    0.574748
      8          6           0      -22.858340   -0.646060    1.660716
      9          6           0      -23.687589   -1.375321    2.815373
     10          6           0      -25.174881   -1.135934    2.398540
     11          6           0      -23.534251   -2.893058    3.063718
     12          6           0      -22.321337    0.783545    2.048126
     13          6           0      -20.798967    0.826102    2.356759
     14          1           0      -20.374622    1.740897    3.576896
     15          7           0      -28.186254   -0.650782    1.977538
     16          6           0      -27.580041   -1.065969    3.133450
     17          6           0      -28.596619   -1.163004    4.110873
     18          6           0      -29.811594   -0.648006    3.568893
     19          6           0      -29.502524   -0.328263    2.134956
     20          6           0      -28.391788   -1.642642    5.528421
     21          6           0      -31.065437   -0.342564    4.315096
     22          8           0      -31.138932   -0.457272    5.528021
     23          6           0      -32.271920    0.172262    3.721649
     24          7           0      -28.813202    0.666146   -0.872903
     25          6           0      -30.065870    0.665516   -0.241672
     26          6           0      -31.129879    1.136066   -1.183352
     27          6           0      -30.371262    1.424291   -2.531449
     28          6           0      -28.946186    1.028058   -2.185930
     29          6           0      -32.217206    0.058859   -1.286347
     30          6           0      -30.675134    2.845442   -3.138931
     31          6           0      -31.223036    2.883094   -4.533341
     32          7           0      -26.045497    0.297713   -1.664080
     33          6           0      -26.507914    0.775958   -2.865493
     34          6           0      -25.394503    0.910646   -3.830329
     35          6           0      -24.292825    0.622304   -2.981787
     36          6           0      -24.742730    0.186421   -1.749590
     37          6           0      -25.409346    1.428988   -5.259833
     38          6           0      -22.856102    0.679955   -2.930073
     39          8           0      -22.042958    1.056285   -3.788579
     40          6           0      -22.389985    0.203632   -1.554567
     41          6           0      -21.446733   -0.924188   -1.670344
     42          8           0      -20.350626   -0.879537   -1.242395
     43          8           0      -22.020569   -2.072643   -2.133749
     44          6           0      -21.098431   -3.218438   -1.977783
     45          1           0      -25.895377   -1.623375    4.341524
     46          1           0      -31.315514    0.464575    1.495124
     47          1           0      -27.887913    1.469761   -4.094518
     48          1           0      -22.062081   -1.261638    1.241862
     49          1           0      -23.751046   -0.830731    3.757301
     50          1           0      -23.214412   -3.396516    2.150683
     51          1           0      -24.408220   -3.410451    3.459554
     52          1           0      -22.721225   -2.991186    3.782275
     53          1           0      -22.892666    1.199764    2.878339
     54          1           0      -22.534295    1.399553    1.174411
     55          1           0      -20.366786    1.204226    1.430125
     56          1           0      -20.546615   -0.230038    2.454101
     57          1           0      -29.277320   -2.009597    6.047499
     58          1           0      -27.991302   -0.765216    6.035477
     59          1           0      -27.541453   -2.302030    5.702426
     60          1           0      -32.609479   -0.573092    3.000371
     61          1           0      -32.103924    1.151711    3.272893
     62          1           0      -33.017362    0.294073    4.507566
     63          1           0      -31.503877    2.114081   -0.881459
     64          1           0      -30.463500    0.688310   -3.330454
     65          1           0      -32.157638   -0.690476   -0.496639
     66          1           0      -32.147150   -0.497364   -2.221124
     67          1           0      -33.184733    0.495268   -1.040059
     68          1           0      -29.721632    3.371195   -3.088618
     69          1           0      -31.470099    3.385033   -2.625470
     70          1           0      -30.566601    3.527639   -5.117320
     71          1           0      -32.212866    3.338551   -4.568586
     72          1           0      -31.390761    1.892490   -4.956147
     73          1           0      -25.384591    2.517585   -5.313272
     74          1           0      -26.230183    1.026873   -5.854993
     75          1           0      -24.428575    1.101985   -5.604948
     76          1           0      -21.776666    0.974114   -1.089115
     77          1           0      -21.605027   -4.104566   -2.361082
     78          1           0      -20.824015   -3.352775   -0.931572
     79          1           0      -20.213576   -3.172440   -2.611681
     80         12           0       26.241809    0.754854    0.495688
     81          6           0       26.608120   -2.669945   -0.305257
     82          6           0       23.810236    0.957091   -1.907566
     83          6           0       26.361767    4.051617    0.786877
     84          6           0       29.059896    0.474145    2.552638
     85          7           0       25.430498   -0.665804   -1.057262
     86          6           0       25.670942   -2.041895   -1.093365
     87          6           0       24.621088   -2.737079   -1.994901
     88          6           0       23.743428   -1.540271   -2.514324
     89          6           0       24.308392   -0.300736   -1.766758
     90          6           0       23.524400   -1.441044   -4.013886
     91          6           0       23.789372   -3.853329   -1.344145
     92          6           0       23.844121   -5.205853   -2.106226
     93          1           0       22.504601   -5.774714   -2.518606
     94          7           0       25.144319    2.274980   -0.392543
     95          6           0       24.209702    2.193191   -1.382605
     96          6           0       23.626456    3.503728   -1.544157
     97          6           0       24.479079    4.467415   -0.853515
     98          6           0       25.382021    3.574968   -0.142975
     99          6           0       22.431358    3.799061   -2.590603
    100          6           0       24.656068    5.915006   -1.021981
    101          8           0       25.382338    6.637939   -0.401374
    102          6           0       23.825950    6.563385   -2.125851
    103          7           0       27.692649    2.088281    1.383704
    104          6           0       27.460989    3.415221    1.411317
    105          6           0       28.400628    4.108298    2.400782
    106          6           0       28.983939    2.930213    3.197396
    107          6           0       28.539793    1.739990    2.376744
    108          6           0       29.530042    4.946541    1.643549
    109          6           0       28.283987    2.899186    4.650198
    110          6           0       26.803985    2.428877    4.675303
    111          7           0       27.553151   -0.764064    1.168962
    112          6           0       28.612895   -0.717698    1.992367
    113          6           0       29.148007   -2.047480    2.110116
    114          6           0       28.372692   -2.834377    1.279268
    115          6           0       27.432164   -2.010542    0.654854
    116          6           0       30.327931   -2.535736    2.928754
    117          6           0       28.281109   -4.215199    0.797352
    118          8           0       28.894868   -5.240818    0.888841
    119          6           0       27.084690   -4.187772   -0.190183
    120          6           0       27.630453   -4.653969   -1.489094
    121          8           0       28.585459   -4.122215   -1.997183
    122          8           0       26.996191   -5.782908   -1.982178
    123          6           0       27.675057   -6.483960   -3.122973
    124          1           0       22.904639    0.963042   -2.517942
    125          1           0       26.368498    5.120705    1.011020
    126          1           0       29.797827    0.250482    3.325908
    127          1           0       25.125920   -3.128831   -2.878195
    128          1           0       22.717913   -1.711762   -2.186619
    129          1           0       24.243694   -2.051143   -4.558229
    130          1           0       23.551965   -0.420041   -4.395369
    131          1           0       22.554987   -1.901730   -4.202235
    132          1           0       22.714840   -3.699570   -1.244805
    133          1           0       24.116723   -4.030560   -0.319930
    134          1           0       24.461653   -5.935064   -1.581917
    135          1           0       24.353200   -5.026763   -3.052400
    136          1           0       21.669179    4.378185   -2.069378
    137          1           0       21.901347    2.928730   -2.975681
    138          1           0       22.669616    4.294706   -3.531674
    139          1           0       22.799821    6.385469   -1.803278
    140          1           0       24.082155    6.006903   -3.026844
    141          1           0       23.949231    7.643182   -2.214746
    142          1           0       27.883783    4.742560    3.121763
    143          1           0       30.062858    2.821815    3.310434
    144          1           0       29.804400    5.771278    2.301828
    145          1           0       29.286441    5.402625    0.683397
    146          1           0       30.363743    4.249324    1.561745
    147          1           0       28.345832    3.855582    5.169042
    148          1           0       28.734183    2.110591    5.253300
    149          1           0       26.283488    2.570879    5.621822
    150          1           0       26.797761    1.359454    4.463991
    151          1           0       26.281782    2.948051    3.870984
    152          1           0       30.206617   -2.420139    4.005557
    153          1           0       31.146748   -1.895484    2.601592
    154          1           0       30.625272   -3.552906    2.673760
    155          1           0       26.412619   -4.944471    0.214177
    156          1           0       26.800351   -6.665013   -3.747638
    157          1           0       28.123229   -7.434542   -2.834369
    158          1           0       28.460439   -5.982254   -3.687724
 ---------------------------------------------------------------------

 SCF Done:  E(RwB97XD) =  -4070.59402565     A.U. after   20 cycles

 Excitation energies and oscillator strengths:

 Excited State   1:      Singlet-A      1.6192 eV  765.72 nm  f=0.4050  <S**2>=0.000
     309 -> 315       -0.17886
     311 -> 313        0.68463
     309 <- 315       -0.11646
 This state for optimization and/or second-order correction.
 Total Energy, E(TD-HF/TD-DFT) =  -4070.53452167
 Copying the excited state density for this state as the 1-particle RhoCI density.

 Excited State   2:      Singlet-A      1.6442 eV  754.08 nm  f=0.4032  <S**2>=0.000
     310 -> 316        0.18141
     312 -> 314        0.68502
     310 <- 316        0.11692

 Excited State   3:      Singlet-A      2.1358 eV  580.51 nm  f=0.1354  <S**2>=0.000
     310 -> 314        0.65464
     312 -> 316       -0.25211

 Excited State   4:      Singlet-A      2.1452 eV  577.97 nm  f=0.1097  <S**2>=0.000
     309 -> 313        0.63979
     311 -> 315        0.28469

 Excited State   5:      Singlet-A      3.2204 eV  384.99 nm  f=0.0034  <S**2>=0.000
     303 -> 313       -0.13488
     307 -> 313        0.11723
     308 -> 313        0.65578
     308 -> 317        0.10335

 The electronic state is 1-A.
 Alpha  occ. eigenvalues --  -46.97190 -46.95873 -19.30372 -19.30362 -19.24879
 Alpha  occ. eigenvalues --  -19.24647 -19.24203 -19.23974 -19.23395 -19.22333
 Alpha  occ. eigenvalues --  -14.47631 -14.47303 -14.46714 -14.46510 -14.44505
 Alpha  occ. eigenvalues --  -14.44349 -14.43919 -14.43810 -10.42630 -10.42596
 Alpha  occ. eigenvalues --  -10.39173 -10.38853 -10.38296 -10.37430 -10.36331
 Alpha  occ. eigenvalues --  -10.36037 -10.35908 -10.35605 -10.35569 -10.35556
 Alpha  occ. eigenvalues --  -10.35120 -10.35029 -10.34786 -10.34761 -10.34751
 Alpha  occ. eigenvalues --  -10.34268 -10.34250 -10.33968 -10.33890 -10.33803
 Alpha  occ. eigenvalues --  -10.33548 -10.33358 -10.33183 -10.33140 -10.33134
 Alpha  occ. eigenvalues --  -10.33098 -10.32813 -10.32788 -10.32606 -10.32522
 Alpha  occ. eigenvalues --  -10.32516 -10.32304 -10.32253 -10.32222 -10.32085
 Alpha  occ. eigenvalues --  -10.32048 -10.32017 -10.31931 -10.31902 -10.31868
 Alpha  occ. eigenvalues --  -10.31598 -10.31580 -10.31533 -10.31349 -10.31068
 Alpha  occ. eigenvalues --  -10.31000 -10.30986 -10.30929 -10.30783 -10.30761
 Alpha  occ. eigenvalues --  -10.30667 -10.30562 -10.30463 -10.30411 -10.30346
 Alpha  occ. eigenvalues --  -10.30278 -10.30068 -10.29815 -10.29796 -10.29587
 Alpha  occ. eigenvalues --  -10.29559 -10.29452 -10.29189 -10.29154 -10.29093
 Alpha  occ. eigenvalues --  -10.28912  -3.22833  -3.21736  -1.96426  -1.95925
 Alpha  occ. eigenvalues --   -1.95785  -1.95303  -1.94871  -1.94695  -1.20172
 Alpha  occ. eigenvalues --   -1.17837  -1.13914  -1.13263  -1.11750  -1.11291
 Alpha  occ. eigenvalues --   -1.11249  -1.09816  -1.07201  -1.07198  -1.06323
 Alpha  occ. eigenvalues --   -1.05858  -1.05777  -1.05467  -1.04587  -1.03997
 Alpha  occ. eigenvalues --   -0.94663  -0.94337  -0.91314  -0.90982  -0.90764
 Alpha  occ. eigenvalues --   -0.90664  -0.90149  -0.90143  -0.89986  -0.89665
 Alpha  occ. eigenvalues --   -0.89022  -0.88502  -0.88262  -0.87781  -0.86810
 Alpha  occ. eigenvalues --   -0.86625  -0.86329  -0.85384  -0.84660  -0.84428
 Alpha  occ. eigenvalues --   -0.84384  -0.83138  -0.82920  -0.82810  -0.82552
 Alpha  occ. eigenvalues --   -0.82102  -0.80639  -0.80314  -0.79583  -0.79344
 Alpha  occ. eigenvalues --   -0.78831  -0.78695  -0.78441  -0.78068  -0.77391
 Alpha  occ. eigenvalues --   -0.77146  -0.75184  -0.75092  -0.74526  -0.73737
 Alpha  occ. eigenvalues --   -0.71389  -0.71277  -0.71227  -0.71194  -0.70050
 Alpha  occ. eigenvalues --   -0.69957  -0.69228  -0.68877  -0.68320  -0.67681
 Alpha  occ. eigenvalues --   -0.67411  -0.67278  -0.67132  -0.67039  -0.66681
 Alpha  occ. eigenvalues --   -0.66444  -0.65344  -0.64276  -0.62407  -0.62119
 Alpha  occ. eigenvalues --   -0.62056  -0.61684  -0.61276  -0.61017  -0.60900
 Alpha  occ. eigenvalues --   -0.60722  -0.60309  -0.60091  -0.59529  -0.59082
 Alpha  occ. eigenvalues --   -0.58482  -0.58056  -0.57972  -0.57569  -0.57331
 Alpha  occ. eigenvalues --   -0.57154  -0.57108  -0.56580  -0.56539  -0.56103
 Alpha  occ. eigenvalues --   -0.55524  -0.55352  -0.55345  -0.55122  -0.54919
 Alpha  occ. eigenvalues --   -0.54801  -0.54597  -0.54592  -0.54323  -0.54238
 Alpha  occ. eigenvalues --   -0.54054  -0.53820  -0.53703  -0.53465  -0.53460
 Alpha  occ. eigenvalues --   -0.53310  -0.53205  -0.52852  -0.52671  -0.51997
 Alpha  occ. eigenvalues --   -0.51989  -0.51814  -0.51732  -0.51568  -0.51426
 Alpha  occ. eigenvalues --   -0.51285  -0.51266  -0.51224  -0.51059  -0.50964
 Alpha  occ. eigenvalues --   -0.50593  -0.50352  -0.50330  -0.50184  -0.50133
 Alpha  occ. eigenvalues --   -0.49860  -0.49521  -0.49489  -0.49397  -0.49285
 Alpha  occ. eigenvalues --   -0.48969  -0.48949  -0.48738  -0.48650  -0.48357
 Alpha  occ. eigenvalues --   -0.48297  -0.48278  -0.48056  -0.48034  -0.47810
 Alpha  occ. eigenvalues --   -0.47708  -0.47480  -0.47226  -0.47124  -0.47065
 Alpha  occ. eigenvalues --   -0.47033  -0.46828  -0.46664  -0.46466  -0.46327
 Alpha  occ. eigenvalues --   -0.46020  -0.45984  -0.45587  -0.45556  -0.45348
 Alpha  occ. eigenvalues --   -0.45331  -0.45274  -0.44983  -0.44954  -0.44844
 Alpha  occ. eigenvalues --   -0.44831  -0.44577  -0.44381  -0.44369  -0.44287
 Alpha  occ. eigenvalues --   -0.44018  -0.43932  -0.43727  -0.43358  -0.43327
 Alpha  occ. eigenvalues --   -0.43289  -0.42928  -0.42785  -0.42672  -0.42219
 Alpha  occ. eigenvalues --   -0.42088  -0.41633  -0.41569  -0.41157  -0.40973
 Alpha  occ. eigenvalues --   -0.40613  -0.40218  -0.40003  -0.39952  -0.39796
 Alpha  occ. eigenvalues --   -0.39688  -0.39269  -0.39138  -0.38965  -0.38360
 Alpha  occ. eigenvalues --   -0.38344  -0.38203  -0.36935  -0.36391  -0.36160
 Alpha  occ. eigenvalues --   -0.36029  -0.35780  -0.35636  -0.33818  -0.33740
 Alpha  occ. eigenvalues --   -0.33235  -0.33006  -0.32634  -0.32547  -0.32363
 Alpha  occ. eigenvalues --   -0.32205  -0.31936  -0.31356  -0.26454  -0.26093
 Alpha  occ. eigenvalues --   -0.23393  -0.23383
 Alpha virt. eigenvalues --   -0.07783  -0.07523  -0.00368   0.00493   0.02304
 Alpha virt. eigenvalues --    0.02606   0.04387   0.04523   0.04590   0.04812
 Alpha virt. eigenvalues --    0.07248   0.07567   0.07924   0.07976   0.08181

 Mulliken charges:
               1
     1  Mg   0.930623
     2  C   -0.012468
     3  C   -0.078756
     4  C   -0.029664
     5  C   -0.055259
     6  N   -0.359431
     7  C   -0.011313
     8  C   -0.090425
     9  C   -0.100358
    10  C    0.079451
    11  C    0.032994
    12  C    0.011751
    13  C   -0.106990
    14  H    0.041695
    15  N   -0.446511
    16  C    0.131731
    17  C   -0.166331
    18  C   -0.071317
    19  C    0.121506
    20  C    0.092339
    21  C   -0.000438
    22  O   -0.245897
    23  C    0.011433
    24  N   -0.354232
    25  C    0.049140
    26  C   -0.068733
    27  C   -0.054111
    28  C    0.053372
    29  C    0.028783
    30  C   -0.008419
    31  C   -0.059105
    32  N   -0.368013
    33  C    0.038739
    34  C   -0.158738
    35  C   -0.038400
    36  C    0.117507
    37  C    0.062067
    38  C    0.094545
    39  O   -0.225733
    40  C   -0.017570
    41  C    0.221522
    42  O   -0.212634
    43  O   -0.366508
    44  C    0.140010
    45  H    0.006072
    46  H   -0.031079
    47  H   -0.001337
    48  H    0.038008
    49  H    0.035485
    50  H    0.032287
    51  H    0.046132
    52  H    0.040140
    53  H    0.042489
    54  H    0.036111
    55  H    0.065964
    56  H    0.053255
    57  H    0.070807
    58  H    0.039811
    59  H    0.017316
    60  H    0.051100
    61  H    0.064298
    62  H    0.052289
    63  H    0.048003
    64  H    0.037678
    65  H    0.035145
    66  H    0.041436
    67  H    0.037094
    68  H    0.041958
    69  H    0.039588
    70  H    0.042340
    71  H    0.030788
    72  H    0.032997
    73  H    0.064843
    74  H    0.051585
    75  H    0.065761
    76  H    0.062036
    77  H    0.046754
    78  H    0.053340
    79  H    0.057655
    80  Mg   0.945668
    81  C   -0.040732
    82  C   -0.093313
    83  C   -0.065146
    84  C   -0.068550
    85  N   -0.371782
    86  C    0.009103
    87  C   -0.037949
    88  C   -0.103031
    89  C    0.075305
    90  C    0.021438
    91  C    0.015516
    92  C   -0.142102
    93  H    0.025761
    94  N   -0.445123
    95  C    0.174434
    96  C   -0.128349
    97  C   -0.081779
    98  C    0.149736
    99  C    0.018081
   100  C    0.023419
   101  O   -0.210396
   102  C   -0.006083
   103  N   -0.331132
   104  C    0.048365
   105  C   -0.089183
   106  C   -0.066792
   107  C    0.056064
   108  C    0.021713
   109  C   -0.041434
   110  C   -0.066525
   111  N   -0.411715
   112  C    0.080567
   113  C   -0.175959
   114  C   -0.085158
   115  C    0.178139
   116  C    0.073479
   117  C    0.147759
   118  O   -0.174273
   119  C   -0.066652
   120  C    0.252375
   121  O   -0.231239
   122  O   -0.382111
   123  C    0.126255
   124  H   -0.009990
   125  H    0.025869
   126  H   -0.003903
   127  H    0.040951
   128  H    0.033989
   129  H    0.030240
   130  H    0.043343
   131  H    0.031401
   132  H    0.042761
   133  H    0.032984
   134  H    0.067831
   135  H    0.036387
   136  H    0.048994
   137  H    0.027041
   138  H    0.053834
   139  H    0.041827
   140  H    0.056556
   141  H    0.049676
   142  H    0.042178
   143  H    0.039930
   144  H    0.039816
   145  H    0.057668
   146  H    0.036724
   147  H    0.045245
   148  H    0.027644
   149  H    0.048347
   150  H    0.041056
   151  H    0.039419
   152  H    0.051867
   153  H    0.041774
   154  H    0.060826
   155  H    0.062959
   156  H    0.053004
   157  H    0.061567
   158  H    0.073513
 Sum of Mulliken charges =  -0.00000

 Dipole moment (field-independent basis, Debye):
    X=             -7.4412    Y=             -1.3066    Z=             -1.8217  Tot=              7.7716
 Quadrupole moment (field-independent basis, Debye-Ang):
   XX=           -467.8735   YY=           -519.5353   ZZ=           -506.3867
   XY=             40.9850   XZ=            124.6185   YZ=             10.7986

 Normal termination of Gaussian 16 at Sat Sep 18 22:42:45 2021.
