 Gaussian 16, Revision A.03,
 Gaussian 16:  ES64L-G16RevA.03 25-Dec-2016

 --------------------------------
 #p wB97XD/Def2SVP td=(nstates=5)
 --------------------------------

 --------------------------------
 TDDFT excited states in gaussian
 --------------------------------
 Symbolic Z-matrix:
 Charge =  0 Multiplicity = 1

                         Standard orientation:
 ---------------------------------------------------------------------
 Center     Atomic      Atomic             Coordinates (Angstroms)
 Number     Number       Type             X           Y           Z
 ---------------------------------------------------------------------
      1         12           0       13.041651   -0.943895   -0.186589
      2          6           0       15.283834    1.762331    0.566736
      3          6           0       10.461581    1.139081    1.068535
      4          6           0       10.709802   -3.490018   -0.711990
      5          6           0       15.593344   -2.951378   -0.973468
      6          7           0       12.982330    1.203767    0.928947
      7          6           0       13.990369    2.100533    0.983474
      8          6           0       13.505227    3.407708    1.707432
      9          6           0       12.013739    3.025336    2.017111
     10          6           0       11.746705    1.725907    1.223312
     11          6           0       11.739695    2.890795    3.555736
     12          6           0       13.627812    4.661696    0.842124
     13          6           0       14.175435    5.877329    1.515138
     14          1           0       14.417034    7.140796    0.676581
     15          7           0       10.909569   -1.106383   -0.077170
     16          6           0       10.066890   -0.145160    0.471078
     17          6           0        8.704431   -0.628280    0.364822
     18          6           0        8.717847   -1.883033   -0.221511
     19          6           0       10.170354   -2.257376   -0.295515
     20          6           0        7.503975    0.063663    0.943812
     21          6           0        7.542181   -2.887568   -0.562290
     22          8           0        7.628231   -3.976223   -1.075650
     23          6           0        6.114953   -2.413011   -0.394775
     24          7           0       13.108395   -2.925466   -0.597674
     25          6           0       12.083669   -3.816713   -0.782081
     26          6           0       12.593153   -5.268034   -0.943154
     27          6           0       14.132111   -5.059055   -1.273769
     28          6           0       14.281283   -3.522857   -0.953614
     29          6           0       12.287763   -6.164283    0.299437
     30          6           0       14.533501   -5.412431   -2.738226
     31          6           0       13.973647   -4.490249   -3.818945
     32          7           0       15.005015   -0.738789   -0.195258
     33          6           0       16.001909   -1.659251   -0.623329
     34          6           0       17.332119   -1.065305   -0.509351
     35          6           0       17.082162    0.259359   -0.108242
     36          6           0       15.682600    0.430852    0.060101
     37          6           0       18.596091   -1.720142   -0.824909
     38          6           0       17.780098    1.500687    0.210645
     39          8           0       18.967765    1.765864    0.129343
     40          6           0       16.646892    2.525640    0.756419
     41          6           0       16.916771    3.717914   -0.164636
     42          8           0       16.666360    3.829310   -1.378312
     43          8           0       17.547525    4.652883    0.524406
     44          6           0       17.681145    6.046951   -0.064356
     45          1           0        9.666919    1.816193    1.387717
     46          1           0       10.057152   -4.346574   -0.897909
     47          1           0       16.371192   -3.637121   -1.314893
     48          1           0       14.200503    3.525101    2.537962
     49          1           0       11.316930    3.758916    1.609411
     50          1           0       10.929140    3.502492    3.951874
     51          1           0       12.636221    2.947396    4.173389
     52          1           0       11.325392    1.938646    3.887954
     53          1           0       12.588400    4.988275    0.804920
     54          1           0       14.017364    4.459020   -0.156120
     55          1           0       15.075665    5.802383    2.127264
     56          1           0       13.383272    6.143927    2.214871
     57          1           0        7.753956    1.063565    1.297571
     58          1           0        7.020864   -0.458998    1.770827
     59          1           0        6.685850    0.249467    0.247739
     60          1           0        5.891321   -1.543037   -1.012120
     61          1           0        6.071976   -2.236206    0.679978
     62          1           0        5.532187   -3.317261   -0.570417
     63          1           0       11.963340   -5.673738   -1.735670
     64          1           0       14.855640   -5.412587   -0.538847
     65          1           0       11.544806   -6.933853    0.090129
     66          1           0       12.036264   -5.673430    1.238951
     67          1           0       13.268235   -6.606002    0.478286
     68          1           0       14.426639   -6.491113   -2.853653
     69          1           0       15.613369   -5.286954   -2.815380
     70          1           0       13.258596   -3.740626   -3.481980
     71          1           0       13.444246   -5.143840   -4.511791
     72          1           0       14.694835   -3.829229   -4.298235
     73          1           0       19.484615   -1.108723   -0.666161
     74          1           0       18.512771   -1.999876   -1.875028
     75          1           0       18.645324   -2.637304   -0.236261
     76          1           0       16.874566    2.902014    1.753703
     77          1           0       17.925877    6.697837    0.775311
     78          1           0       16.743119    6.429914   -0.465136
     79          1           0       18.405862    6.108149   -0.877064
     80         12           0      -13.760012   -0.330242    0.212526
     81          6           0      -13.221960    2.944016   -0.817137
     82          6           0      -12.351516    0.507361    3.227108
     83          6           0      -14.045255   -3.637068    1.160382
     84          6           0      -14.651091   -1.252678   -3.028719
     85          7           0      -12.983830    1.545006    1.110415
     86          6           0      -12.956752    2.775130    0.569773
     87          6           0      -12.543865    3.903617    1.543256
     88          6           0      -12.032741    3.056839    2.786472
     89          6           0      -12.435229    1.564321    2.360237
     90          6           0      -10.494460    3.307075    2.978936
     91          6           0      -13.863858    4.788054    1.828979
     92          6           0      -13.741507    6.320510    1.581575
     93          1           0      -12.263459    6.854405    1.590107
     94          7           0      -13.221718   -1.467130    1.896086
     95          6           0      -12.720849   -0.891512    3.082043
     96          6           0      -12.729621   -1.895410    4.124653
     97          6           0      -13.159461   -3.097548    3.548613
     98          6           0      -13.585482   -2.762678    2.139379
     99          6           0      -12.034200   -1.650172    5.471288
    100          6           0      -13.242557   -4.498797    4.210044
    101          8           0      -13.640694   -5.535141    3.646054
    102          6           0      -12.879627   -4.620452    5.700049
    103          7           0      -14.205760   -2.167081   -0.856263
    104          6           0      -14.309339   -3.411303   -0.162861
    105          6           0      -14.536166   -4.564917   -1.162132
    106          6           0      -15.009215   -3.744374   -2.451284
    107          6           0      -14.641357   -2.284047   -2.079081
    108          6           0      -13.268483   -5.395732   -1.273751
    109          6           0      -16.572319   -3.882362   -2.687328
    110          6           0      -17.677935   -3.597939   -1.614339
    111          7           0      -13.843884    0.577245   -1.575914
    112          6           0      -14.206767    0.094912   -2.837183
    113          6           0      -14.149399    1.165305   -3.779046
    114          6           0      -13.818623    2.292502   -3.048785
    115          6           0      -13.534335    1.887792   -1.721106
    116          6           0      -14.348219    1.083844   -5.278780
    117          6           0      -13.602503    3.681519   -3.146517
    118          8           0      -13.590708    4.339940   -4.137390
    119          6           0      -13.090260    4.133713   -1.716630
    120          6           0      -11.658074    4.552515   -1.902737
    121          8           0      -10.705886    3.894405   -1.538976
    122          8           0      -11.663994    5.721593   -2.554075
    123          6           0      -10.402340    6.018408   -3.187127
    124          1           0      -11.980181    0.781472    4.216526
    125          1           0      -13.900965   -4.692298    1.398699
    126          1           0      -14.916883   -1.527806   -4.052027
    127          1           0      -11.782448    4.585751    1.165538
    128          1           0      -12.547330    3.264297    3.724976
    129          1           0       -9.903453    2.415254    3.188771
    130          1           0      -10.544705    3.979029    3.835237
    131          1           0      -10.164064    3.896212    2.123781
    132          1           0      -14.212506    4.528399    2.828321
    133          1           0      -14.641864    4.405761    1.167722
    134          1           0      -14.319292    6.709694    2.419206
    135          1           0      -14.197417    6.675869    0.657946
    136          1           0      -11.296492   -2.443018    5.597464
    137          1           0      -12.756451   -1.779046    6.278539
    138          1           0      -11.591629   -0.654629    5.484161
    139          1           0      -11.795385   -4.522450    5.768084
    140          1           0      -13.096425   -5.654064    5.969245
    141          1           0      -13.554747   -4.002198    6.291213
    142          1           0      -15.408198   -5.093828   -0.776434
    143          1           0      -14.562781   -4.174585   -3.347058
    144          1           0      -12.667507   -5.384418   -0.364318
    145          1           0      -12.645890   -5.036885   -2.093011
    146          1           0      -13.508313   -6.448538   -1.421256
    147          1           0      -16.755791   -4.873706   -3.101786
    148          1           0      -16.766005   -3.105705   -3.427230
    149          1           0      -17.853013   -4.516520   -1.054109
    150          1           0      -18.566075   -3.321180   -2.183624
    151          1           0      -17.513980   -2.731398   -0.972975
    152          1           0      -15.338370    0.713111   -5.544453
    153          1           0      -13.595195    0.364547   -5.600110
    154          1           0      -14.359816    2.038336   -5.806871
    155          1           0      -13.586906    4.980825   -1.243165
    156          1           0      -10.493104    6.608150   -4.099002
    157          1           0       -9.641859    5.251953   -3.335843
    158          1           0       -9.756571    6.659484   -2.586649
 ---------------------------------------------------------------------

 SCF Done:  E(RwB97XD) =  -4070.59822843     A.U. after   19 cycles

 Excitation energies and oscillator strengths:

 Excited State   1:      Singlet-A      1.5889 eV  780.31 nm  f=0.3714  <S**2>=0.000
     309 -> 315       -0.18991
     312 -> 313        0.68302
     309 <- 315       -0.12269
 This state for optimization and/or second-order correction.
 Total Energy, E(TD-HF/TD-DFT) =  -4070.53983693
 Copying the excited state density for this state as the 1-particle RhoCI density.

 Excited State   2:      Singlet-A      1.6515 eV  750.73 nm  f=0.3869  <S**2>=0.000
     310 -> 316       -0.18082
     311 -> 314        0.68420
     310 <- 316       -0.11555

 Excited State   3:      Singlet-A      2.1589 eV  574.29 nm  f=0.0823  <S**2>=0.000
     309 -> 313        0.62414
     312 -> 315        0.32192

 Excited State   4:      Singlet-A      2.1707 eV  571.17 nm  f=0.1294  <S**2>=0.000
     310 -> 314        0.64436
     311 -> 316        0.27773

 Excited State   5:      Singlet-A      3.7472 eV  330.87 nm  f=0.0000  <S**2>=0.000
     311 -> 313        0.70700

 The electronic state is 1-A.
 Alpha  occ. eigenvalues --  -46.94604 -46.94452 -19.31442 -19.30125 -19.25066
 Alpha  occ. eigenvalues --  -19.24508 -19.24487 -19.24381 -19.23618 -19.22950
 Alpha  occ. eigenvalues --  -14.47044 -14.46878 -14.46112 -14.46059 -14.44707
 Alpha  occ. eigenvalues --  -14.44277 -14.44157 -14.43742 -10.43214 -10.42304
 Alpha  occ. eigenvalues --  -10.39543 -10.39398 -10.39086 -10.38905 -10.35968
 Alpha  occ. eigenvalues --  -10.35712 -10.35446 -10.35357 -10.35245 -10.35155
 Alpha  occ. eigenvalues --  -10.35114 -10.35106 -10.34731 -10.34673 -10.34371
 Alpha  occ. eigenvalues --  -10.34318 -10.34007 -10.33933 -10.33917 -10.33858
 Alpha  occ. eigenvalues --  -10.33651 -10.33642 -10.33004 -10.32913 -10.32873
 Alpha  occ. eigenvalues --  -10.32714 -10.32662 -10.32642 -10.32491 -10.32479
 Alpha  occ. eigenvalues --  -10.32459 -10.32442 -10.32387 -10.32387 -10.32373
 Alpha  occ. eigenvalues --  -10.32246 -10.32210 -10.31943 -10.31794 -10.31747
 Alpha  occ. eigenvalues --  -10.31675 -10.31626 -10.31316 -10.31109 -10.31079
 Alpha  occ. eigenvalues --  -10.30823 -10.30818 -10.30787 -10.30743 -10.30655
 Alpha  occ. eigenvalues --  -10.30617 -10.30513 -10.30231 -10.30075 -10.30006
 Alpha  occ. eigenvalues --  -10.29898 -10.29857 -10.29713 -10.29657 -10.29562
 Alpha  occ. eigenvalues --  -10.29452 -10.29438 -10.29216 -10.29187 -10.29112
 Alpha  occ. eigenvalues --  -10.28820  -3.20732  -3.20486  -1.94310  -1.94079
 Alpha  occ. eigenvalues --   -1.93873  -1.93705  -1.93589  -1.93476  -1.20411
 Alpha  occ. eigenvalues --   -1.18111  -1.14345  -1.13651  -1.12250  -1.11329
 Alpha  occ. eigenvalues --   -1.10520  -1.07455  -1.06225  -1.05756  -1.05369
 Alpha  occ. eigenvalues --   -1.05099  -1.04781  -1.04240  -1.03720  -1.03176
 Alpha  occ. eigenvalues --   -0.94864  -0.92799  -0.91080  -0.90581  -0.90469
 Alpha  occ. eigenvalues --   -0.90033  -0.89907  -0.89662  -0.89277  -0.89060
 Alpha  occ. eigenvalues --   -0.88871  -0.88468  -0.88375  -0.87961  -0.86018
 Alpha  occ. eigenvalues --   -0.85924  -0.85442  -0.85302  -0.84249  -0.84191
 Alpha  occ. eigenvalues --   -0.83408  -0.83200  -0.82951  -0.82843  -0.82106
 Alpha  occ. eigenvalues --   -0.81909  -0.80079  -0.79679  -0.79190  -0.79054
 Alpha  occ. eigenvalues --   -0.78861  -0.78702  -0.77878  -0.77825  -0.77043
 Alpha  occ. eigenvalues --   -0.76926  -0.75003  -0.74558  -0.73602  -0.73181
 Alpha  occ. eigenvalues --   -0.71946  -0.70855  -0.70709  -0.70674  -0.69977
 Alpha  occ. eigenvalues --   -0.69479  -0.68365  -0.68232  -0.67855  -0.67404
 Alpha  occ. eigenvalues --   -0.67042  -0.66585  -0.66575  -0.66498  -0.66051
 Alpha  occ. eigenvalues --   -0.65901  -0.64409  -0.63757  -0.62025  -0.61575
 Alpha  occ. eigenvalues --   -0.61455  -0.61270  -0.60945  -0.60895  -0.60429
 Alpha  occ. eigenvalues --   -0.60036  -0.59688  -0.59343  -0.59279  -0.58251
 Alpha  occ. eigenvalues --   -0.58169  -0.57701  -0.57618  -0.57393  -0.57016
 Alpha  occ. eigenvalues --   -0.56949  -0.56559  -0.56406  -0.55928  -0.55875
 Alpha  occ. eigenvalues --   -0.55354  -0.55247  -0.55134  -0.55103  -0.54815
 Alpha  occ. eigenvalues --   -0.54629  -0.54478  -0.54306  -0.54138  -0.54029
 Alpha  occ. eigenvalues --   -0.53931  -0.53865  -0.53722  -0.53439  -0.52910
 Alpha  occ. eigenvalues --   -0.52878  -0.52817  -0.52619  -0.52035  -0.51886
 Alpha  occ. eigenvalues --   -0.51804  -0.51720  -0.51533  -0.51496  -0.51191
 Alpha  occ. eigenvalues --   -0.51141  -0.51103  -0.50885  -0.50778  -0.50544
 Alpha  occ. eigenvalues --   -0.50523  -0.50341  -0.50260  -0.50048  -0.49890
 Alpha  occ. eigenvalues --   -0.49704  -0.49434  -0.49424  -0.49338  -0.49128
 Alpha  occ. eigenvalues --   -0.48651  -0.48623  -0.48557  -0.48269  -0.48224
 Alpha  occ. eigenvalues --   -0.48130  -0.48098  -0.47788  -0.47727  -0.47523
 Alpha  occ. eigenvalues --   -0.47406  -0.47190  -0.47178  -0.46935  -0.46810
 Alpha  occ. eigenvalues --   -0.46560  -0.46477  -0.46313  -0.46288  -0.46043
 Alpha  occ. eigenvalues --   -0.45868  -0.45713  -0.45611  -0.45570  -0.45442
 Alpha  occ. eigenvalues --   -0.45410  -0.45047  -0.45035  -0.44952  -0.44935
 Alpha  occ. eigenvalues --   -0.44880  -0.44607  -0.44478  -0.44328  -0.44041
 Alpha  occ. eigenvalues --   -0.43835  -0.43759  -0.43745  -0.43307  -0.43281
 Alpha  occ. eigenvalues --   -0.42807  -0.42727  -0.42646  -0.42244  -0.42221
 Alpha  occ. eigenvalues --   -0.42085  -0.41484  -0.41445  -0.41088  -0.41066
 Alpha  occ. eigenvalues --   -0.40508  -0.39954  -0.39705  -0.39525  -0.39434
 Alpha  occ. eigenvalues --   -0.39142  -0.39015  -0.38692  -0.38480  -0.38193
 Alpha  occ. eigenvalues --   -0.38015  -0.37630  -0.36799  -0.36122  -0.35879
 Alpha  occ. eigenvalues --   -0.35316  -0.34970  -0.34694  -0.33847  -0.33577
 Alpha  occ. eigenvalues --   -0.33092  -0.32960  -0.32783  -0.32521  -0.32484
 Alpha  occ. eigenvalues --   -0.32346  -0.32127  -0.31731  -0.26001  -0.25724
 Alpha  occ. eigenvalues --   -0.22818  -0.22733
 Alpha virt. eigenvalues --   -0.07040  -0.06937  -0.00102   0.00570   0.02576
 Alpha virt. eigenvalues --    0.02730   0.04508   0.04564   0.05584   0.06531
 Alpha virt. eigenvalues --    0.07064   0.07616   0.07991   0.08282   0.08540

 Mulliken charges:
               1
     1  Mg   0.988066
     2  C    0.030546
     3  C   -0.071766
     4  C   -0.057253
     5  C   -0.105060
     6  N   -0.311540
     7  C   -0.008506
     8  C   -0.088451
     9  C   -0.082960
    10  C    0.047730
    11  C    0.016150
    12  C    0.051507
    13  C   -0.150281
    14  H    0.031535
    15  N   -0.450373
    16  C    0.180690
    17  C   -0.160811
    18  C   -0.081760
    19  C    0.134115
    20  C    0.054976
    21  C    0.056935
    22  O   -0.215922
    23  C   -0.009247
    24  N   -0.398517
    25  C    0.036595
    26  C   -0.083169
    27  C   -0.076534
    28  C    0.060743
    29  C    0.027336
    30  C   -0.006009
    31  C   -0.051485
    32  N   -0.527283
    33  C    0.158715
    34  C   -0.163661
    35  C   -0.041779
    36  C    0.162043
    37  C    0.081426
    38  C    0.128562
    39  O   -0.198835
    40  C   -0.130157
    41  C    0.252275
    42  O   -0.286982
    43  O   -0.341670
    44  C    0.147809
    45  H   -0.001420
    46  H    0.023028
    47  H   -0.006073
    48  H    0.039097
    49  H    0.035182
    50  H    0.033019
    51  H    0.038278
    52  H    0.025664
    53  H    0.023391
    54  H    0.069091
    55  H    0.048321
    56  H    0.037524
    57  H    0.022330
    58  H    0.055857
    59  H    0.037996
    60  H    0.076551
    61  H    0.034966
    62  H    0.053356
    63  H    0.040882
    64  H    0.042966
    65  H    0.048330
    66  H    0.047185
    67  H    0.024238
    68  H    0.039506
    69  H    0.022268
    70  H    0.040683
    71  H    0.045497
    72  H    0.042404
    73  H    0.065278
    74  H    0.051805
    75  H    0.044419
    76  H    0.067507
    77  H    0.057653
    78  H    0.052445
    79  H    0.073029
    80  Mg   0.964168
    81  C   -0.022269
    82  C   -0.067259
    83  C   -0.064405
    84  C   -0.108138
    85  N   -0.333587
    86  C    0.014111
    87  C   -0.076049
    88  C   -0.120541
    89  C    0.066913
    90  C    0.027393
    91  C   -0.000238
    92  C   -0.127143
    93  H    0.034853
    94  N   -0.460825
    95  C    0.133561
    96  C   -0.174129
    97  C   -0.090084
    98  C    0.138108
    99  C    0.086230
   100  C    0.051264
   101  O   -0.252358
   102  C   -0.016309
   103  N   -0.338578
   104  C    0.022056
   105  C   -0.061349
   106  C   -0.072426
   107  C    0.096886
   108  C    0.042011
   109  C   -0.059414
   110  C   -0.054454
   111  N   -0.488631
   112  C    0.148376
   113  C   -0.183976
   114  C   -0.008166
   115  C    0.148155
   116  C    0.079500
   117  C    0.095212
   118  O   -0.162770
   119  C   -0.097464
   120  C    0.245597
   121  O   -0.237104
   122  O   -0.309723
   123  C    0.141015
   124  H   -0.013026
   125  H    0.030891
   126  H    0.003361
   127  H    0.039753
   128  H    0.038825
   129  H    0.052022
   130  H    0.032799
   131  H    0.049389
   132  H    0.033254
   133  H    0.042404
   134  H    0.057061
   135  H    0.070116
   136  H    0.044558
   137  H    0.039413
   138  H    0.041438
   139  H    0.061723
   140  H    0.044503
   141  H    0.063978
   142  H    0.035152
   143  H    0.030352
   144  H    0.046212
   145  H    0.035076
   146  H    0.037333
   147  H    0.038978
   148  H    0.021510
   149  H    0.047753
   150  H    0.037305
   151  H    0.043619
   152  H    0.037661
   153  H    0.056894
   154  H    0.057401
   155  H    0.056493
   156  H    0.058097
   157  H    0.054642
   158  H    0.025040
 Sum of Mulliken charges =  -0.00000

 Dipole moment (field-independent basis, Debye):
    X=             -3.9243    Y=              1.5712    Z=              4.1713  Tot=              5.9388
 Quadrupole moment (field-independent basis, Debye-Ang):
   XX=           -579.5706   YY=           -489.5031   ZZ=           -492.7412
   XY=            -43.7483   XZ=             14.7456   YZ=             36.7652

 Normal termination of Gaussian 16 at Sun Sep 19 09:46:20 2021.
