 Gaussian 16, Revision A.03,
 Gaussian 16:  ES64L-G16RevA.03 25-Dec-2016

 --------------------------------
 #p wB97XD/Def2SVP td=(nstates=5)
 --------------------------------

 --------------------------------
 TDDFT excited states in gaussian
 --------------------------------
 Symbolic Z-matrix:
 Charge =  0 Multiplicity = 1

                         Standard orientation:
 ---------------------------------------------------------------------
 Center     Atomic      Atomic             Coordinates (Angstroms)
 Number     Number       Type             X           Y           Z
 ---------------------------------------------------------------------
      1         12           0      -18.262130    0.447665    0.145146
      2          6           0      -15.192189   -1.166381   -0.167653
      3          6           0      -19.610060   -2.425906    1.471993
      4          6           0      -21.227242    2.063224    0.124418
      5          6           0      -16.853460    3.226674   -1.604843
      6          7           0      -17.491374   -1.559048    0.477614
      7          6           0      -16.215482   -2.002366    0.313311
      8          6           0      -16.046227   -3.431550    0.844792
      9          6           0      -17.547121   -3.811422    1.218086
     10          6           0      -18.266984   -2.469528    1.047793
     11          6           0      -18.116810   -4.876786    0.289205
     12          6           0      -15.187182   -3.581372    2.150641
     13          6           0      -14.469360   -4.889247    2.360677
     14          1           0      -14.847342   -6.057459    1.564976
     15          7           0      -20.097756   -0.072156    0.792897
     16          6           0      -20.454249   -1.333490    1.310514
     17          6           0      -21.803634   -1.202539    1.794303
     18          6           0      -22.298517    0.087922    1.477944
     19          6           0      -21.192375    0.767282    0.759464
     20          6           0      -22.609820   -2.368717    2.324858
     21          6           0      -23.584621    0.735809    1.779048
     22          8           0      -23.940297    1.778027    1.271464
     23          6           0      -24.652741    0.006822    2.672471
     24          7           0      -18.961516    2.483227   -0.482609
     25          6           0      -20.204235    2.853397   -0.397008
     26          6           0      -20.419238    4.272621   -1.003735
     27          6           0      -19.042718    4.691066   -1.487538
     28          6           0      -18.191671    3.392516   -1.246890
     29          6           0      -21.601604    4.246182   -2.082869
     30          6           0      -18.512131    5.958266   -0.784282
     31          6           0      -18.725456    7.333195   -1.521137
     32          7           0      -16.435270    1.068984   -0.469963
     33          6           0      -15.996444    2.219828   -1.170661
     34          6           0      -14.605598    2.170662   -1.416514
     35          6           0      -14.284236    0.783783   -1.094847
     36          6           0      -15.449049    0.220119   -0.499925
     37          6           0      -13.806415    3.176402   -2.224860
     38          6           0      -13.205130   -0.129785   -1.179241
     39          8           0      -12.049215   -0.004824   -1.563837
     40          6           0      -13.781446   -1.511033   -0.443732
     41          6           0      -13.531132   -2.612872   -1.431082
     42          8           0      -13.988056   -2.641088   -2.578633
     43          8           0      -12.590612   -3.574187   -0.955522
     44          6           0      -12.280695   -4.699362   -1.892108
     45          1           0      -19.970813   -3.371609    1.883576
     46          1           0      -22.244252    2.435292   -0.013387
     47          1           0      -16.359626    4.067811   -2.095110
     48          1           0      -15.671484   -4.022687    0.008897
     49          1           0      -17.645895   -4.208564    2.228261
     50          1           0      -17.327623   -5.366656   -0.280514
     51          1           0      -18.913922   -4.496666   -0.350298
     52          1           0      -18.505956   -5.751951    0.809596
     53          1           0      -15.842942   -3.380964    2.997223
     54          1           0      -14.502561   -2.733093    2.167812
     55          1           0      -14.687174   -5.207902    3.379810
     56          1           0      -13.400416   -4.735357    2.212885
     57          1           0      -23.445416   -2.641531    1.680391
     58          1           0      -22.943989   -2.115796    3.331941
     59          1           0      -22.078556   -3.315558    2.420215
     60          1           0      -25.168578   -0.687545    2.008739
     61          1           0      -25.434967    0.706430    2.967355
     62          1           0      -24.172499   -0.560562    3.468752
     63          1           0      -20.754105    4.854574   -0.144873
     64          1           0      -19.007611    4.790572   -2.571327
     65          1           0      -21.249935    4.615490   -3.046119
     66          1           0      -22.418166    4.930400   -1.851430
     67          1           0      -21.876952    3.193313   -2.156700
     68          1           0      -17.440071    5.803361   -0.657656
     69          1           0      -18.962828    5.973726    0.208168
     70          1           0      -17.894781    7.466906   -2.215001
     71          1           0      -18.880729    8.233096   -0.925708
     72          1           0      -19.590844    7.091413   -2.137259
     73          1           0      -13.562405    3.944044   -1.490964
     74          1           0      -14.407033    3.614888   -3.020906
     75          1           0      -12.998846    2.774689   -2.838220
     76          1           0      -13.257776   -1.647758    0.503216
     77          1           0      -11.808940   -4.341878   -2.806689
     78          1           0      -13.094805   -5.354012   -2.204307
     79          1           0      -11.530296   -5.214778   -1.292655
     80         12           0       18.352343    0.028906    0.402653
     81          6           0       15.443761   -1.425720   -0.829265
     82          6           0       19.531225    0.168812   -2.855313
     83          6           0       20.907486    1.899375    1.350175
     84          6           0       16.870169    0.290382    3.519273
     85          7           0       17.526175   -0.403737   -1.614911
     86          6           0       16.374300   -1.121842   -1.862711
     87          6           0       16.236074   -1.522586   -3.301670
     88          6           0       17.725540   -1.331987   -3.831252
     89          6           0       18.310316   -0.439127   -2.744930
     90          6           0       18.617399   -2.568136   -4.324826
     91          6           0       15.096763   -0.755624   -4.120053
     92          6           0       14.789148    0.719426   -3.725034
     93          1           0       14.560508    1.641657   -4.898411
     94          7           0       19.943910    1.021081   -0.624005
     95          6           0       20.261984    0.934871   -1.985113
     96          6           0       21.392563    1.758331   -2.315787
     97          6           0       21.817633    2.311081   -1.084177
     98          6           0       20.887508    1.792856   -0.037151
     99          6           0       22.033661    1.667370   -3.701484
    100          6           0       23.054925    3.232642   -0.989486
    101          8           0       23.671677    3.607157   -1.992042
    102          6           0       23.487889    3.591204    0.369597
    103          7           0       18.706989    1.039495    2.170807
    104          6           0       19.989540    1.516279    2.383461
    105          6           0       20.246064    1.921403    3.851718
    106          6           0       18.811311    1.588506    4.433824
    107          6           0       18.064765    0.989627    3.326114
    108          6           0       21.354255    1.264977    4.612939
    109          6           0       18.027480    2.895845    4.958137
    110          6           0       17.409608    2.652029    6.310272
    111          7           0       16.590152   -0.630257    1.298447
    112          6           0       16.124643   -0.445582    2.587128
    113          6           0       14.782731   -1.055138    2.730398
    114          6           0       14.472154   -1.463895    1.386797
    115          6           0       15.590108   -1.174217    0.595871
    116          6           0       13.822168   -1.003270    3.848199
    117          6           0       13.456841   -2.011308    0.462003
    118          8           0       12.306362   -2.314028    0.679131
    119          6           0       14.055588   -2.044543   -0.980991
    120          6           0       13.999221   -3.402584   -1.523264
    121          8           0       13.401527   -3.838058   -2.507712
    122          8           0       14.545079   -4.261644   -0.533682
    123          6           0       14.634200   -5.688451   -0.911292
    124          1           0       19.964851   -0.035150   -3.837073
    125          1           0       21.791884    2.340519    1.814341
    126          1           0       16.526820    0.356412    4.553206
    127          1           0       15.937526   -2.568288   -3.374851
    128          1           0       17.542131   -0.704474   -4.703791
    129          1           0       18.111242   -3.532501   -4.364710
    130          1           0       19.469700   -2.780326   -3.679466
    131          1           0       18.869019   -2.430363   -5.376759
    132          1           0       14.177426   -1.340085   -4.135762
    133          1           0       15.411463   -0.777779   -5.163373
    134          1           0       15.580210    1.121416   -3.091268
    135          1           0       13.873507    0.759539   -3.135683
    136          1           0       22.494603    2.597548   -4.035253
    137          1           0       21.255452    1.491370   -4.443663
    138          1           0       22.799101    0.895080   -3.621932
    139          1           0       23.901626    2.702919    0.846027
    140          1           0       22.648359    4.010829    0.924746
    141          1           0       24.271709    4.335024    0.226845
    142          1           0       20.289109    3.010302    3.884768
    143          1           0       19.023131    0.765096    5.115872
    144          1           0       21.204835    1.547649    5.655120
    145          1           0       22.280032    1.756526    4.313851
    146          1           0       21.362520    0.190519    4.425912
    147          1           0       17.295027    3.142018    4.189473
    148          1           0       18.585962    3.832376    4.984778
    149          1           0       16.327799    2.625125    6.181863
    150          1           0       17.488139    3.520303    6.965359
    151          1           0       17.696902    1.666098    6.675081
    152          1           0       14.157159   -0.469359    4.738724
    153          1           0       13.673130   -2.036615    4.159453
    154          1           0       13.046722   -0.376856    3.407762
    155          1           0       13.426071   -1.362161   -1.551619
    156          1           0       15.640427   -5.945546   -0.578392
    157          1           0       14.529505   -6.003472   -1.949549
    158          1           0       14.000578   -6.198376   -0.185382
 ---------------------------------------------------------------------

 SCF Done:  E(RwB97XD) =  -4070.63905270     A.U. after   19 cycles

 Excitation energies and oscillator strengths:

 Excited State   1:      Singlet-A      1.6614 eV  746.25 nm  f=0.3928  <S**2>=0.000
     310 -> 315       -0.18770
     312 -> 314        0.68123
     310 <- 315       -0.11473
 This state for optimization and/or second-order correction.
 Total Energy, E(TD-HF/TD-DFT) =  -4070.57799602
 Copying the excited state density for this state as the 1-particle RhoCI density.

 Excited State   2:      Singlet-A      1.6914 eV  733.03 nm  f=0.3536  <S**2>=0.000
     309 -> 316       -0.17797
     311 -> 313        0.68383
     309 <- 316       -0.11254

 Excited State   3:      Singlet-A      2.1479 eV  577.25 nm  f=0.0861  <S**2>=0.000
     310 -> 314        0.62820
     312 -> 315        0.30711

 Excited State   4:      Singlet-A      2.1731 eV  570.54 nm  f=0.1432  <S**2>=0.000
     309 -> 313        0.64712
     311 -> 316        0.26330

 Excited State   5:      Singlet-A      3.4232 eV  362.19 nm  f=0.0639  <S**2>=0.000
     305 -> 314       -0.15115
     306 -> 314        0.62108
     312 -> 315       -0.23999

 The electronic state is 1-A.
 Alpha  occ. eigenvalues --  -46.95407 -46.94294 -19.29528 -19.29294 -19.25436
 Alpha  occ. eigenvalues --  -19.24334 -19.24302 -19.24019 -19.23824 -19.23153
 Alpha  occ. eigenvalues --  -14.47237 -14.46797 -14.46742 -14.46204 -14.44810
 Alpha  occ. eigenvalues --  -14.44218 -14.43861 -14.43727 -10.43547 -10.42848
 Alpha  occ. eigenvalues --  -10.39474 -10.39092 -10.39035 -10.38249 -10.35836
 Alpha  occ. eigenvalues --  -10.35657 -10.35643 -10.35292 -10.35165 -10.34974
 Alpha  occ. eigenvalues --  -10.34849 -10.34825 -10.34788 -10.34687 -10.34627
 Alpha  occ. eigenvalues --  -10.34618 -10.34096 -10.34039 -10.33926 -10.33350
 Alpha  occ. eigenvalues --  -10.32900 -10.32766 -10.32751 -10.32739 -10.32568
 Alpha  occ. eigenvalues --  -10.32523 -10.32343 -10.32325 -10.32322 -10.32271
 Alpha  occ. eigenvalues --  -10.32226 -10.32155 -10.32071 -10.32011 -10.32003
 Alpha  occ. eigenvalues --  -10.31948 -10.31823 -10.31791 -10.31743 -10.31679
 Alpha  occ. eigenvalues --  -10.31625 -10.31479 -10.31457 -10.31381 -10.31163
 Alpha  occ. eigenvalues --  -10.31050 -10.30967 -10.30814 -10.30788 -10.30754
 Alpha  occ. eigenvalues --  -10.30737 -10.30697 -10.30417 -10.30247 -10.30239
 Alpha  occ. eigenvalues --  -10.30033 -10.30017 -10.29862 -10.29858 -10.29845
 Alpha  occ. eigenvalues --  -10.29692 -10.29628 -10.29566 -10.29525 -10.29397
 Alpha  occ. eigenvalues --  -10.28448  -3.21376  -3.20402  -1.94948  -1.94514
 Alpha  occ. eigenvalues --   -1.94339  -1.94011  -1.93524  -1.93393  -1.16920
 Alpha  occ. eigenvalues --   -1.15506  -1.13379  -1.12557  -1.11552  -1.10747
 Alpha  occ. eigenvalues --   -1.09059  -1.07940  -1.07156  -1.07016  -1.05902
 Alpha  occ. eigenvalues --   -1.05677  -1.05350  -1.05173  -1.04497  -1.04346
 Alpha  occ. eigenvalues --   -0.94383  -0.93982  -0.91466  -0.91173  -0.91121
 Alpha  occ. eigenvalues --   -0.90794  -0.90308  -0.89837  -0.89745  -0.89513
 Alpha  occ. eigenvalues --   -0.89360  -0.88768  -0.88143  -0.88113  -0.86686
 Alpha  occ. eigenvalues --   -0.86318  -0.86192  -0.84837  -0.84618  -0.84227
 Alpha  occ. eigenvalues --   -0.84096  -0.83406  -0.82749  -0.82290  -0.82058
 Alpha  occ. eigenvalues --   -0.81926  -0.80757  -0.80193  -0.79411  -0.79133
 Alpha  occ. eigenvalues --   -0.78719  -0.78712  -0.78094  -0.77741  -0.77660
 Alpha  occ. eigenvalues --   -0.76952  -0.75067  -0.74584  -0.74078  -0.73561
 Alpha  occ. eigenvalues --   -0.71522  -0.71307  -0.71198  -0.70864  -0.70034
 Alpha  occ. eigenvalues --   -0.69901  -0.69265  -0.68779  -0.68301  -0.67670
 Alpha  occ. eigenvalues --   -0.67138  -0.66919  -0.66855  -0.66567  -0.66466
 Alpha  occ. eigenvalues --   -0.65941  -0.64480  -0.63326  -0.62386  -0.62208
 Alpha  occ. eigenvalues --   -0.61553  -0.61355  -0.61284  -0.60892  -0.60493
 Alpha  occ. eigenvalues --   -0.60226  -0.59693  -0.59463  -0.59260  -0.59149
 Alpha  occ. eigenvalues --   -0.58252  -0.58240  -0.57723  -0.57298  -0.56998
 Alpha  occ. eigenvalues --   -0.56955  -0.56514  -0.56498  -0.55907  -0.55744
 Alpha  occ. eigenvalues --   -0.55337  -0.55101  -0.54843  -0.54817  -0.54609
 Alpha  occ. eigenvalues --   -0.54512  -0.54392  -0.54227  -0.54175  -0.54062
 Alpha  occ. eigenvalues --   -0.53908  -0.53871  -0.53497  -0.53434  -0.52997
 Alpha  occ. eigenvalues --   -0.52850  -0.52704  -0.52461  -0.52320  -0.52188
 Alpha  occ. eigenvalues --   -0.52095  -0.51729  -0.51606  -0.51505  -0.51450
 Alpha  occ. eigenvalues --   -0.51446  -0.51208  -0.51160  -0.50959  -0.50709
 Alpha  occ. eigenvalues --   -0.50533  -0.50452  -0.50254  -0.50144  -0.50051
 Alpha  occ. eigenvalues --   -0.50009  -0.49634  -0.49552  -0.49377  -0.49157
 Alpha  occ. eigenvalues --   -0.49156  -0.49019  -0.48826  -0.48795  -0.48566
 Alpha  occ. eigenvalues --   -0.48417  -0.48168  -0.48095  -0.47708  -0.47611
 Alpha  occ. eigenvalues --   -0.47273  -0.47012  -0.46990  -0.46885  -0.46865
 Alpha  occ. eigenvalues --   -0.46809  -0.46607  -0.46584  -0.46526  -0.46453
 Alpha  occ. eigenvalues --   -0.46181  -0.46039  -0.45813  -0.45766  -0.45311
 Alpha  occ. eigenvalues --   -0.45234  -0.45118  -0.44996  -0.44902  -0.44766
 Alpha  occ. eigenvalues --   -0.44702  -0.44527  -0.44459  -0.44400  -0.44017
 Alpha  occ. eigenvalues --   -0.43915  -0.43874  -0.43706  -0.43628  -0.43535
 Alpha  occ. eigenvalues --   -0.43415  -0.43140  -0.43074  -0.42644  -0.42321
 Alpha  occ. eigenvalues --   -0.42129  -0.41834  -0.41728  -0.41285  -0.40963
 Alpha  occ. eigenvalues --   -0.40505  -0.40386  -0.39915  -0.39761  -0.39356
 Alpha  occ. eigenvalues --   -0.39201  -0.38917  -0.38860  -0.38496  -0.38059
 Alpha  occ. eigenvalues --   -0.37711  -0.37606  -0.37098  -0.36721  -0.36410
 Alpha  occ. eigenvalues --   -0.35865  -0.35524  -0.35496  -0.33807  -0.33454
 Alpha  occ. eigenvalues --   -0.33121  -0.33100  -0.32744  -0.32704  -0.32125
 Alpha  occ. eigenvalues --   -0.31785  -0.31695  -0.31545  -0.26097  -0.25972
 Alpha  occ. eigenvalues --   -0.23341  -0.22976
 Alpha virt. eigenvalues --   -0.07372  -0.06962  -0.00270   0.00298   0.02286
 Alpha virt. eigenvalues --    0.02769   0.04535   0.04607   0.04900   0.06261
 Alpha virt. eigenvalues --    0.06886   0.06953   0.07508   0.07934   0.08635

 Mulliken charges:
               1
     1  Mg   0.981432
     2  C   -0.071166
     3  C   -0.108112
     4  C   -0.077388
     5  C   -0.077034
     6  N   -0.334182
     7  C    0.003539
     8  C   -0.040011
     9  C   -0.140281
    10  C    0.072886
    11  C    0.018713
    12  C    0.018226
    13  C   -0.105805
    14  H    0.036507
    15  N   -0.531795
    16  C    0.234446
    17  C   -0.151128
    18  C   -0.045621
    19  C    0.152375
    20  C    0.052061
    21  C    0.017197
    22  O   -0.224908
    23  C   -0.005394
    24  N   -0.321192
    25  C    0.055741
    26  C   -0.094089
    27  C   -0.043729
    28  C    0.027666
    29  C    0.014772
    30  C   -0.005371
    31  C   -0.042813
    32  N   -0.449386
    33  C    0.125113
    34  C   -0.138787
    35  C   -0.084628
    36  C    0.187822
    37  C    0.059557
    38  C    0.113591
    39  O   -0.211352
    40  C   -0.083811
    41  C    0.288683
    42  O   -0.260477
    43  O   -0.404748
    44  C    0.141026
    45  H    0.004033
    46  H    0.032060
    47  H    0.000464
    48  H    0.043847
    49  H    0.038799
    50  H    0.033357
    51  H    0.049227
    52  H    0.023008
    53  H    0.024315
    54  H    0.025422
    55  H    0.048790
    56  H    0.067502
    57  H    0.063409
    58  H    0.049864
    59  H    0.030803
    60  H    0.053323
    61  H    0.055956
    62  H    0.038218
    63  H    0.048252
    64  H    0.027369
    65  H    0.030030
    66  H    0.045610
    67  H    0.051186
    68  H    0.026194
    69  H    0.026641
    70  H    0.037067
    71  H    0.054536
    72  H    0.027372
    73  H    0.054175
    74  H    0.037497
    75  H    0.064274
    76  H    0.072363
    77  H    0.058680
    78  H    0.054333
    79  H    0.053882
    80  Mg   0.956453
    81  C   -0.040638
    82  C   -0.109763
    83  C   -0.099677
    84  C   -0.098442
    85  N   -0.351147
    86  C    0.005561
    87  C   -0.079577
    88  C   -0.049956
    89  C    0.025470
    90  C    0.014884
    91  C   -0.013866
    92  C   -0.131325
    93  H    0.040741
    94  N   -0.438367
    95  C    0.180567
    96  C   -0.147228
    97  C   -0.107002
    98  C    0.207091
    99  C    0.079879
   100  C    0.051143
   101  O   -0.236371
   102  C   -0.010154
   103  N   -0.368937
   104  C    0.022457
   105  C   -0.081671
   106  C   -0.120624
   107  C    0.043098
   108  C    0.052826
   109  C   -0.004592
   110  C   -0.029206
   111  N   -0.431083
   112  C    0.160424
   113  C   -0.200492
   114  C   -0.051288
   115  C    0.127788
   116  C    0.085800
   117  C    0.113390
   118  O   -0.186227
   119  C   -0.041150
   120  C    0.283681
   121  O   -0.239816
   122  O   -0.406724
   123  C    0.140521
   124  H   -0.005351
   125  H   -0.020646
   126  H   -0.017696
   127  H    0.039138
   128  H    0.033423
   129  H    0.033378
   130  H    0.047763
   131  H    0.043625
   132  H    0.053349
   133  H    0.034486
   134  H    0.067819
   135  H    0.053406
   136  H    0.060256
   137  H    0.036791
   138  H    0.064800
   139  H    0.070772
   140  H    0.065174
   141  H    0.051257
   142  H    0.031689
   143  H    0.032392
   144  H    0.042798
   145  H    0.037306
   146  H    0.047619
   147  H    0.039995
   148  H    0.030683
   149  H    0.027429
   150  H    0.038694
   151  H    0.043313
   152  H    0.019139
   153  H    0.066771
   154  H    0.074867
   155  H    0.069436
   156  H    0.037319
   157  H    0.075549
   158  H    0.056802
 Sum of Mulliken charges =  -0.00000

 Dipole moment (field-independent basis, Debye):
    X=             -0.0598    Y=             -3.0622    Z=              7.0087  Tot=              7.6487
 Quadrupole moment (field-independent basis, Debye-Ang):
   XX=           -281.0788   YY=           -470.3966   ZZ=           -482.8710
   XY=              8.7754   XZ=             24.4701   YZ=              1.9680

 Normal termination of Gaussian 16 at Mon Sep 20 10:52:50 2021.
