 Gaussian 16, Revision A.03,
 Gaussian 16:  ES64L-G16RevA.03 25-Dec-2016

 --------------------------------
 #p wB97XD/Def2SVP td=(nstates=5)
 --------------------------------

 --------------------------------
 TDDFT excited states in gaussian
 --------------------------------
 Symbolic Z-matrix:
 Charge =  0 Multiplicity = 1

                         Standard orientation:
 ---------------------------------------------------------------------
 Center     Atomic      Atomic             Coordinates (Angstroms)
 Number     Number       Type             X           Y           Z
 ---------------------------------------------------------------------
      1         12           0      -11.008937    0.252944   -0.806453
      2          6           0       -8.325631   -2.125747   -0.168764
      3          6           0      -13.218567   -2.302545   -0.192786
      4          6           0      -13.284429    2.536794    0.081566
      5          6           0       -8.679273    2.622208   -1.517503
      6          7           0      -10.755948   -1.938909   -0.045674
      7          6           0       -9.544421   -2.711802    0.067328
      8          6           0       -9.900311   -4.187674    0.267137
      9          6           0      -11.407635   -4.277800   -0.113252
     10          6           0      -11.886113   -2.759962   -0.146723
     11          6           0      -11.671786   -4.978135   -1.529389
     12          6           0       -9.484554   -4.825810    1.560309
     13          6           0       -9.113614   -3.887584    2.733010
     14          1           0       -8.727920   -4.307252    4.163245
     15          7           0      -13.053687    0.137435   -0.270691
     16          6           0      -13.766859   -1.020573   -0.052553
     17          6           0      -15.191758   -0.645842    0.208129
     18          6           0      -15.147327    0.733639    0.393138
     19          6           0      -13.798880    1.229716    0.128234
     20          6           0      -16.244095   -1.688513    0.344468
     21          6           0      -16.361724    1.602188    0.833064
     22          8           0      -17.398396    1.028325    1.116041
     23          6           0      -16.307832    3.073731    1.078190
     24          7           0      -10.872123    2.290726   -0.597296
     25          6           0      -12.042182    3.007011   -0.347709
     26          6           0      -11.808472    4.509682   -0.503425
     27          6           0      -10.453036    4.565151   -1.297140
     28          6           0       -9.994391    3.110024   -1.178048
     29          6           0      -12.910544    5.363531   -1.181708
     30          6           0       -9.401402    5.603997   -0.791245
     31          6           0       -9.195452    6.893774   -1.710147
     32          7           0       -8.918382    0.280768   -0.931321
     33          6           0       -8.108633    1.336758   -1.323445
     34          6           0       -6.758331    0.857938   -1.489523
     35          6           0       -6.831312   -0.441986   -0.970832
     36          6           0       -8.185522   -0.732805   -0.672808
     37          6           0       -5.587898    1.744776   -1.948463
     38          6           0       -6.093848   -1.639412   -0.707158
     39          8           0       -4.879482   -1.801743   -0.942476
     40          6           0       -7.029785   -2.863263   -0.302969
     41          6           0       -6.422961   -3.395000    0.933619
     42          8           0       -6.079771   -2.745003    1.926711
     43          8           0       -6.433180   -4.745512    0.817482
     44          6           0       -5.692471   -5.507471    1.871262
     45          1           0      -13.919381   -3.112023    0.019611
     46          1           0      -14.042741    3.271519    0.361063
     47          1           0       -7.971330    3.374837   -1.869755
     48          1           0       -9.303465   -4.584414   -0.554163
     49          1           0      -12.023083   -4.697827    0.682497
     50          1           0      -12.178058   -5.903212   -1.256531
     51          1           0      -10.722974   -5.114739   -2.048787
     52          1           0      -12.361079   -4.317763   -2.056788
     53          1           0       -8.694108   -5.531718    1.306030
     54          1           0      -10.374818   -5.411645    1.791507
     55          1           0       -9.966259   -3.214123    2.825451
     56          1           0       -8.239572   -3.294817    2.462495
     57          1           0      -16.541169   -1.675862    1.392722
     58          1           0      -15.814706   -2.644686    0.046898
     59          1           0      -17.056945   -1.473987   -0.350215
     60          1           0      -15.689274    3.436992    1.897995
     61          1           0      -17.268732    3.483454    1.388091
     62          1           0      -16.046648    3.429227    0.081540
     63          1           0      -11.721668    4.740600    0.558923
     64          1           0      -10.751318    4.743426   -2.330503
     65          1           0      -13.539046    5.904874   -0.473850
     66          1           0      -13.595741    4.710702   -1.721437
     67          1           0      -12.417973    6.019531   -1.900270
     68          1           0       -8.410202    5.186891   -0.611174
     69          1           0       -9.759894    5.874405    0.202043
     70          1           0       -9.166729    7.692685   -0.969615
     71          1           0       -9.986835    7.071642   -2.438437
     72          1           0       -8.297034    6.716690   -2.300332
     73          1           0       -4.790683    1.225377   -2.480687
     74          1           0       -5.204897    2.085761   -0.987232
     75          1           0       -5.929172    2.461731   -2.694873
     76          1           0       -7.047814   -3.586131   -1.119915
     77          1           0       -5.781383   -6.575784    1.671001
     78          1           0       -6.111877   -5.322220    2.860323
     79          1           0       -4.677752   -5.131637    1.747896
     80         12           0       10.123753    0.834097   -0.102036
     81          6           0       11.338030   -2.476447   -0.244192
     82          6           0        7.079010   -0.394326    1.076181
     83          6           0        9.401883    3.988828    0.966121
     84          6           0       13.475784    1.875259   -0.815989
     85          7           0        9.333756   -1.169633    0.312074
     86          6           0        9.997440   -2.340920    0.212420
     87          6           0        9.130794   -3.525333    0.751191
     88          6           0        7.691966   -2.831561    0.785239
     89          6           0        8.023198   -1.307329    0.684755
     90          6           0        6.641417   -3.131242   -0.308037
     91          6           0        9.679345   -3.956830    2.163683
     92          6           0        9.600185   -5.484995    2.434091
     93          1           0        9.164829   -5.897881    3.898892
     94          7           0        8.348572    1.754295    0.724370
     95          6           0        7.227522    1.047943    1.071246
     96          6           0        6.274520    1.993610    1.513628
     97          6           0        6.891257    3.278411    1.577278
     98          6           0        8.274640    3.082350    1.027965
     99          6           0        4.863869    1.665578    1.942474
    100          6           0        6.332718    4.508674    2.207139
    101          8           0        5.269449    4.501242    2.806430
    102          6           0        6.992232    5.788006    2.241443
    103          7           0       11.364456    2.658620    0.142117
    104          6           0       10.725992    3.867623    0.455655
    105          6           0       11.658751    5.021633    0.259402
    106          6           0       12.998030    4.370766   -0.249166
    107          6           0       12.629828    2.898831   -0.320308
    108          6           0       11.024361    6.014707   -0.722746
    109          6           0       14.272361    4.832571    0.553240
    110          6           0       15.379365    5.461771   -0.237105
    111          7           0       12.071887   -0.080030   -0.506905
    112          6           0       13.280002    0.491482   -0.822775
    113          6           0       14.253587   -0.547921   -1.223408
    114          6           0       13.504161   -1.718041   -0.930084
    115          6           0       12.205811   -1.380358   -0.596953
    116          6           0       15.714572   -0.404746   -1.620150
    117          6           0       13.635097   -3.144782   -0.798036
    118          8           0       14.629815   -3.870620   -0.951508
    119          6           0       12.286213   -3.729922   -0.380559
    120          6           0       11.831953   -4.759883   -1.333415
    121          8           0       11.614848   -5.870893   -1.009212
    122          8           0       11.501685   -4.262748   -2.560917
    123          6           0       10.813147   -5.289076   -3.373368
    124          1           0        6.088427   -0.746369    1.373146
    125          1           0        9.070789    4.991849    1.239791
    126          1           0       14.543514    1.995961   -1.013402
    127          1           0        9.200912   -4.346694    0.037851
    128          1           0        7.225798   -2.775557    1.768797
    129          1           0        7.132416   -3.440292   -1.231513
    130          1           0        5.938551   -2.330368   -0.537779
    131          1           0        6.078084   -3.990115    0.055226
    132          1           0        9.181842   -3.400499    2.958602
    133          1           0       10.722432   -3.640391    2.158131
    134          1           0       10.614347   -5.827861    2.228354
    135          1           0        8.945036   -5.833991    1.635610
    136          1           0        4.144697    2.483950    1.906077
    137          1           0        4.987486    1.314590    2.966631
    138          1           0        4.430040    0.752155    1.535546
    139          1           0        7.124839    6.100417    1.204836
    140          1           0        7.931957    5.732692    2.791700
    141          1           0        6.346565    6.494308    2.763399
    142          1           0       11.931454    5.461568    1.218369
    143          1           0       13.223439    4.444549   -1.313277
    144          1           0        9.959131    5.844031   -0.880367
    145          1           0       11.478720    5.950709   -1.711464
    146          1           0       10.976645    7.000746   -0.261583
    147          1           0       14.623276    3.927406    1.048871
    148          1           0       14.081893    5.640500    1.258748
    149          1           0       16.286943    4.899283   -0.019653
    150          1           0       15.570291    6.488016    0.077245
    151          1           0       15.145341    5.566489   -1.296567
    152          1           0       16.379384   -0.331036   -0.759277
    153          1           0       15.892005    0.410965   -2.322160
    154          1           0       15.906503   -1.388641   -2.048005
    155          1           0       12.403834   -4.299503    0.540415
    156          1           0       10.573112   -4.840518   -4.337711
    157          1           0        9.908919   -5.634523   -2.872422
    158          1           0       11.443629   -6.128176   -3.665454
 ---------------------------------------------------------------------

 SCF Done:  E(RwB97XD) =  -4070.55084887     A.U. after   19 cycles

 Excitation energies and oscillator strengths:

 Excited State   1:      Singlet-A      1.6063 eV  771.87 nm  f=0.6568  <S**2>=0.000
     309 -> 316       -0.14037
     311 -> 313        0.33347
     312 -> 314        0.60175
 This state for optimization and/or second-order correction.
 Total Energy, E(TD-HF/TD-DFT) =  -4070.49181893
 Copying the excited state density for this state as the 1-particle RhoCI density.

 Excited State   2:      Singlet-A      1.6226 eV  764.10 nm  f=0.1304  <S**2>=0.000
     310 -> 315       -0.15704
     311 -> 313        0.59796
     312 -> 314       -0.33472
     310 <- 315       -0.10191

 Excited State   3:      Singlet-A      2.1450 eV  578.02 nm  f=0.1061  <S**2>=0.000
     310 -> 313        0.63964
     311 -> 315        0.28494

 Excited State   4:      Singlet-A      2.2278 eV  556.54 nm  f=0.0764  <S**2>=0.000
     309 -> 314        0.61809
     312 -> 316        0.32521

 Excited State   5:      Singlet-A      3.3766 eV  367.18 nm  f=0.0000  <S**2>=0.000
     312 -> 313        0.70682

 The electronic state is 1-A.
 Alpha  occ. eigenvalues --  -46.96987 -46.95649 -19.30566 -19.30191 -19.24698
 Alpha  occ. eigenvalues --  -19.24346 -19.24132 -19.23782 -19.22118 -19.22094
 Alpha  occ. eigenvalues --  -14.47436 -14.47095 -14.47057 -14.46184 -14.44355
 Alpha  occ. eigenvalues --  -14.44302 -14.43718 -14.43256 -10.42959 -10.42413
 Alpha  occ. eigenvalues --  -10.39514 -10.38662 -10.37525 -10.37219 -10.36114
 Alpha  occ. eigenvalues --  -10.36053 -10.35872 -10.35834 -10.35734 -10.35727
 Alpha  occ. eigenvalues --  -10.35427 -10.34999 -10.34956 -10.34937 -10.34932
 Alpha  occ. eigenvalues --  -10.34820 -10.34518 -10.34057 -10.33692 -10.33338
 Alpha  occ. eigenvalues --  -10.33054 -10.32941 -10.32926 -10.32922 -10.32896
 Alpha  occ. eigenvalues --  -10.32799 -10.32591 -10.32540 -10.32434 -10.32416
 Alpha  occ. eigenvalues --  -10.32389 -10.32356 -10.32346 -10.32110 -10.31987
 Alpha  occ. eigenvalues --  -10.31957 -10.31879 -10.31844 -10.31678 -10.31660
 Alpha  occ. eigenvalues --  -10.31658 -10.31540 -10.31382 -10.31381 -10.31378
 Alpha  occ. eigenvalues --  -10.31265 -10.31215 -10.31085 -10.30825 -10.30809
 Alpha  occ. eigenvalues --  -10.30793 -10.30775 -10.30692 -10.30576 -10.30553
 Alpha  occ. eigenvalues --  -10.30255 -10.30226 -10.30195 -10.30008 -10.29882
 Alpha  occ. eigenvalues --  -10.29852 -10.29451 -10.29354 -10.28966 -10.28889
 Alpha  occ. eigenvalues --  -10.27935  -3.22630  -3.21588  -1.96223  -1.95721
 Alpha  occ. eigenvalues --   -1.95582  -1.95145  -1.94733  -1.94537  -1.19990
 Alpha  occ. eigenvalues --   -1.18229  -1.12943  -1.11536  -1.11109  -1.11060
 Alpha  occ. eigenvalues --   -1.09636  -1.08853  -1.06996  -1.06818  -1.06021
 Alpha  occ. eigenvalues --   -1.05567  -1.05275  -1.04915  -1.04388  -1.02343
 Alpha  occ. eigenvalues --   -0.94464  -0.93873  -0.91247  -0.91149  -0.90871
 Alpha  occ. eigenvalues --   -0.90785  -0.90491  -0.89935  -0.89778  -0.88822
 Alpha  occ. eigenvalues --   -0.88789  -0.88636  -0.87987  -0.87559  -0.86616
 Alpha  occ. eigenvalues --   -0.86443  -0.86284  -0.85589  -0.84656  -0.84464
 Alpha  occ. eigenvalues --   -0.84246  -0.84217  -0.82910  -0.82726  -0.82353
 Alpha  occ. eigenvalues --   -0.82103  -0.80458  -0.80015  -0.79643  -0.79390
 Alpha  occ. eigenvalues --   -0.78631  -0.78413  -0.78221  -0.77913  -0.77182
 Alpha  occ. eigenvalues --   -0.77168  -0.74990  -0.74978  -0.74324  -0.73678
 Alpha  occ. eigenvalues --   -0.71541  -0.71196  -0.71052  -0.70957  -0.69749
 Alpha  occ. eigenvalues --   -0.69556  -0.68910  -0.68672  -0.68144  -0.68126
 Alpha  occ. eigenvalues --   -0.67471  -0.67366  -0.66837  -0.66675  -0.66475
 Alpha  occ. eigenvalues --   -0.65508  -0.65160  -0.64108  -0.61922  -0.61861
 Alpha  occ. eigenvalues --   -0.61655  -0.61108  -0.61019  -0.60812  -0.60703
 Alpha  occ. eigenvalues --   -0.60104  -0.59933  -0.59516  -0.59179  -0.58884
 Alpha  occ. eigenvalues --   -0.58752  -0.58283  -0.58158  -0.57858  -0.57365
 Alpha  occ. eigenvalues --   -0.57094  -0.56931  -0.56516  -0.56365  -0.56175
 Alpha  occ. eigenvalues --   -0.55622  -0.55430  -0.55330  -0.55158  -0.54953
 Alpha  occ. eigenvalues --   -0.54726  -0.54584  -0.54512  -0.54397  -0.54235
 Alpha  occ. eigenvalues --   -0.54027  -0.53728  -0.53504  -0.53368  -0.53278
 Alpha  occ. eigenvalues --   -0.53134  -0.53117  -0.52978  -0.52670  -0.52572
 Alpha  occ. eigenvalues --   -0.51881  -0.51789  -0.51634  -0.51538  -0.51523
 Alpha  occ. eigenvalues --   -0.51365  -0.51055  -0.50854  -0.50827  -0.50710
 Alpha  occ. eigenvalues --   -0.50394  -0.50258  -0.50139  -0.50061  -0.49940
 Alpha  occ. eigenvalues --   -0.49686  -0.49549  -0.49273  -0.49108  -0.49078
 Alpha  occ. eigenvalues --   -0.48851  -0.48778  -0.48773  -0.48535  -0.48469
 Alpha  occ. eigenvalues --   -0.48437  -0.48141  -0.48090  -0.48057  -0.47651
 Alpha  occ. eigenvalues --   -0.47519  -0.47403  -0.47105  -0.46918  -0.46883
 Alpha  occ. eigenvalues --   -0.46883  -0.46611  -0.46467  -0.46317  -0.46126
 Alpha  occ. eigenvalues --   -0.45926  -0.45837  -0.45813  -0.45391  -0.45328
 Alpha  occ. eigenvalues --   -0.45297  -0.45125  -0.44858  -0.44773  -0.44652
 Alpha  occ. eigenvalues --   -0.44645  -0.44477  -0.44368  -0.44224  -0.44179
 Alpha  occ. eigenvalues --   -0.44048  -0.43902  -0.43675  -0.43516  -0.43119
 Alpha  occ. eigenvalues --   -0.42944  -0.42777  -0.42754  -0.42483  -0.41929
 Alpha  occ. eigenvalues --   -0.41808  -0.41356  -0.41238  -0.40978  -0.40957
 Alpha  occ. eigenvalues --   -0.40441  -0.40427  -0.39747  -0.39499  -0.39344
 Alpha  occ. eigenvalues --   -0.39228  -0.39073  -0.38764  -0.38555  -0.38277
 Alpha  occ. eigenvalues --   -0.38162  -0.37792  -0.36749  -0.36311  -0.35953
 Alpha  occ. eigenvalues --   -0.35805  -0.35578  -0.34912  -0.33736  -0.33539
 Alpha  occ. eigenvalues --   -0.33157  -0.32816  -0.32435  -0.32313  -0.31720
 Alpha  occ. eigenvalues --   -0.31536  -0.31150  -0.31141  -0.26388  -0.26252
 Alpha  occ. eigenvalues --   -0.23189  -0.22569
 Alpha virt. eigenvalues --   -0.07580  -0.06912  -0.00171   0.00140   0.02505
 Alpha virt. eigenvalues --    0.03154   0.04476   0.04587   0.04645   0.04728
 Alpha virt. eigenvalues --    0.07081   0.07445   0.07783   0.08171   0.08369

 Mulliken charges:
               1
     1  Mg   0.954479
     2  C   -0.033116
     3  C   -0.083028
     4  C   -0.079825
     5  C   -0.082952
     6  N   -0.368456
     7  C   -0.053318
     8  C   -0.004883
     9  C   -0.142298
    10  C    0.044518
    11  C    0.037055
    12  C    0.030385
    13  C   -0.102205
    14  H    0.037434
    15  N   -0.470995
    16  C    0.144906
    17  C   -0.159935
    18  C   -0.079483
    19  C    0.169669
    20  C    0.104831
    21  C    0.036105
    22  O   -0.227578
    23  C    0.002042
    24  N   -0.386380
    25  C    0.091698
    26  C   -0.126848
    27  C   -0.015566
    28  C    0.025791
    29  C    0.031667
    30  C   -0.022294
    31  C   -0.061829
    32  N   -0.378367
    33  C    0.092496
    34  C   -0.180605
    35  C   -0.010813
    36  C    0.119022
    37  C    0.073396
    38  C    0.083920
    39  O   -0.250977
    40  C   -0.041278
    41  C    0.265168
    42  O   -0.260545
    43  O   -0.368681
    44  C    0.138665
    45  H    0.004097
    46  H   -0.041733
    47  H   -0.008852
    48  H    0.025624
    49  H    0.040027
    50  H    0.048679
    51  H    0.050365
    52  H    0.040801
    53  H    0.031470
    54  H    0.017670
    55  H    0.047182
    56  H    0.072099
    57  H    0.073584
    58  H    0.022177
    59  H    0.060900
    60  H    0.076753
    61  H    0.048875
    62  H    0.056563
    63  H    0.052339
    64  H    0.031404
    65  H    0.041532
    66  H    0.036444
    67  H    0.042363
    68  H    0.044727
    69  H    0.024697
    70  H    0.051306
    71  H    0.034778
    72  H    0.047421
    73  H    0.051274
    74  H    0.072311
    75  H    0.038622
    76  H    0.074105
    77  H    0.059645
    78  H    0.067335
    79  H    0.072423
    80  Mg   0.930450
    81  C   -0.012302
    82  C   -0.078525
    83  C   -0.030125
    84  C   -0.055579
    85  N   -0.359255
    86  C   -0.011533
    87  C   -0.090390
    88  C   -0.100518
    89  C    0.079374
    90  C    0.032898
    91  C    0.011849
    92  C   -0.106952
    93  H    0.041520
    94  N   -0.446695
    95  C    0.131822
    96  C   -0.165801
    97  C   -0.071517
    98  C    0.121902
    99  C    0.091988
   100  C   -0.000374
   101  O   -0.245238
   102  C    0.011412
   103  N   -0.354352
   104  C    0.049281
   105  C   -0.068724
   106  C   -0.054087
   107  C    0.053237
   108  C    0.028869
   109  C   -0.008315
   110  C   -0.058954
   111  N   -0.367866
   112  C    0.038499
   113  C   -0.159138
   114  C   -0.038492
   115  C    0.117415
   116  C    0.062080
   117  C    0.094303
   118  O   -0.226295
   119  C   -0.017545
   120  C    0.221478
   121  O   -0.212772
   122  O   -0.366460
   123  C    0.140057
   124  H    0.007421
   125  H   -0.031353
   126  H   -0.001821
   127  H    0.037893
   128  H    0.035817
   129  H    0.031968
   130  H    0.047257
   131  H    0.040695
   132  H    0.042562
   133  H    0.035837
   134  H    0.065637
   135  H    0.053421
   136  H    0.071591
   137  H    0.040097
   138  H    0.019342
   139  H    0.050875
   140  H    0.064072
   141  H    0.052105
   142  H    0.047796
   143  H    0.037504
   144  H    0.035219
   145  H    0.041220
   146  H    0.036779
   147  H    0.041946
   148  H    0.039311
   149  H    0.042183
   150  H    0.030466
   151  H    0.032858
   152  H    0.064455
   153  H    0.051248
   154  H    0.065505
   155  H    0.061877
   156  H    0.046679
   157  H    0.053587
   158  H    0.057321
 Sum of Mulliken charges =  -0.00000

 Dipole moment (field-independent basis, Debye):
    X=             -3.2999    Y=              5.6016    Z=             -5.3460  Tot=              8.4170
 Quadrupole moment (field-independent basis, Debye-Ang):
   XX=           -495.8667   YY=           -462.7865   ZZ=           -510.1471
   XY=             73.1905   XZ=             17.1557   YZ=             -9.8337

 Normal termination of Gaussian 16 at Sat Sep 18 14:12:20 2021.
