 Gaussian 16, Revision A.03,
 Gaussian 16:  ES64L-G16RevA.03 25-Dec-2016

 --------------------------------
 #p wB97XD/Def2SVP td=(nstates=5)
 --------------------------------

 --------------------------------
 TDDFT excited states in gaussian
 --------------------------------
 Symbolic Z-matrix:
 Charge =  0 Multiplicity = 1

                         Standard orientation:
 ---------------------------------------------------------------------
 Center     Atomic      Atomic             Coordinates (Angstroms)
 Number     Number       Type             X           Y           Z
 ---------------------------------------------------------------------
      1         12           0      -17.880904   -0.690360    0.186682
      2          6           0      -17.771477    2.732999   -0.638870
      3          6           0      -16.902303    0.085786    3.344313
      4          6           0      -17.889207   -3.998323    0.891846
      5          6           0      -18.438864   -1.413850   -3.163509
      6          7           0      -17.305106    1.147402    1.194357
      7          6           0      -17.446412    2.446000    0.697526
      8          6           0      -17.212712    3.429893    1.804284
      9          6           0      -16.483098    2.571480    2.864736
     10          6           0      -16.931186    1.149722    2.438341
     11          6           0      -14.923731    2.641210    2.900832
     12          6           0      -18.496271    4.146938    2.369332
     13          6           0      -18.362454    5.629080    2.518172
     14          1           0      -18.881967    6.238037    3.833947
     15          7           0      -17.562409   -1.746835    1.877591
     16          6           0      -17.246939   -1.241084    3.149692
     17          6           0      -17.177500   -2.293003    4.083822
     18          6           0      -17.476928   -3.556720    3.386908
     19          6           0      -17.668356   -3.142355    2.026319
     20          6           0      -16.727226   -2.171622    5.510301
     21          6           0      -17.499998   -5.072198    3.868243
     22          8           0      -17.800652   -5.960515    3.106535
     23          6           0      -17.245152   -5.436034    5.324006
     24          7           0      -18.021415   -2.460441   -1.001817
     25          6           0      -17.975437   -3.701589   -0.452328
     26          6           0      -18.100485   -4.817479   -1.596668
     27          6           0      -18.581315   -3.977621   -2.859820
     28          6           0      -18.333184   -2.503021   -2.325416
     29          6           0      -16.816791   -5.637766   -1.902241
     30          6           0      -20.075957   -4.228447   -3.270653
     31          6           0      -20.188792   -4.584343   -4.693432
     32          7           0      -18.022216    0.401834   -1.565382
     33          6           0      -18.362947   -0.024586   -2.848132
     34          6           0      -18.473716    1.108483   -3.725937
     35          6           0      -18.223871    2.195174   -2.912885
     36          6           0      -17.990346    1.754815   -1.648322
     37          6           0      -18.891456    0.973693   -5.213512
     38          6           0      -18.089650    3.640071   -2.884894
     39          8           0      -18.096751    4.408072   -3.821589
     40          6           0      -17.758033    4.056648   -1.366687
     41          6           0      -16.461034    4.757140   -1.335581
     42          8           0      -15.375620    4.266607   -1.743448
     43          8           0      -16.661451    6.010606   -0.836108
     44          6           0      -15.544791    6.958204   -1.093299
     45          1           0      -16.545378    0.406310    4.325256
     46          1           0      -17.894920   -5.081569    1.028474
     47          1           0      -18.543250   -1.661263   -4.221496
     48          1           0      -16.483717    4.204421    1.562956
     49          1           0      -16.783746    2.795969    3.888266
     50          1           0      -14.518596    3.619838    2.640134
     51          1           0      -14.557431    1.871751    2.220739
     52          1           0      -14.456954    2.327287    3.834118
     53          1           0      -18.702391    3.647967    3.316053
     54          1           0      -19.377872    3.923930    1.767667
     55          1           0      -18.917055    5.975311    1.645881
     56          1           0      -17.307502    5.902861    2.511139
     57          1           0      -17.512027   -2.255445    6.262395
     58          1           0      -16.338665   -1.167753    5.676871
     59          1           0      -15.947265   -2.844309    5.866018
     60          1           0      -17.462451   -6.500671    5.401017
     61          1           0      -17.787755   -4.778568    6.003915
     62          1           0      -16.238198   -5.129351    5.608518
     63          1           0      -18.796296   -5.595115   -1.281238
     64          1           0      -17.909719   -4.196675   -3.691262
     65          1           0      -15.912072   -5.340467   -1.370942
     66          1           0      -16.538102   -5.619125   -2.956142
     67          1           0      -17.040432   -6.673046   -1.643418
     68          1           0      -20.631217   -3.298774   -3.140713
     69          1           0      -20.566452   -5.036845   -2.728819
     70          1           0      -20.290523   -5.667037   -4.772290
     71          1           0      -19.431978   -4.228116   -5.391419
     72          1           0      -21.064631   -4.094210   -5.118752
     73          1           0      -19.346804   -0.005308   -5.364784
     74          1           0      -18.070422    1.229511   -5.884823
     75          1           0      -19.690041    1.705355   -5.330337
     76          1           0      -18.534785    4.696118   -0.946592
     77          1           0      -15.827196    7.966206   -0.789977
     78          1           0      -15.467460    7.010544   -2.179510
     79          1           0      -14.661047    6.539334   -0.611189
     80         12           0       17.861845   -0.793395    0.109020
     81          6           0       16.113724    2.254042    0.629995
     82          6           0       20.807385    1.162115    0.217626
     83          6           0       19.573300   -3.443598   -0.722654
     84          6           0       14.809119   -2.422268   -0.243435
     85          7           0       18.409823    1.501214    0.388380
     86          6           0       17.484163    2.472671    0.680818
     87          6           0       18.111575    3.815438    1.014971
     88          6           0       19.633093    3.448315    0.742116
     89          6           0       19.641771    1.936572    0.467832
     90          6           0       20.232798    4.359883   -0.324473
     91          6           0       17.825045    4.203408    2.482249
     92          6           0       17.585891    5.722692    2.827364
     93          1           0       18.101875    6.786398    1.829817
     94          7           0       19.923110   -1.131441   -0.137343
     95          6           0       20.944138   -0.180687   -0.128586
     96          6           0       22.217720   -0.877082   -0.370117
     97          6           0       21.869184   -2.255593   -0.548802
     98          6           0       20.399681   -2.299088   -0.423547
     99          6           0       23.478580   -0.200500   -0.474784
    100          6           0       22.789334   -3.438998   -0.830997
    101          8           0       22.327480   -4.568148   -1.060038
    102          6           0       24.253123   -3.314148   -0.666524
    103          7           0       17.268083   -2.648246   -0.512512
    104          6           0       18.175971   -3.609388   -0.701825
    105          6           0       17.494613   -4.949780   -1.129584
    106          6           0       15.999589   -4.660372   -0.783058
    107          6           0       15.978443   -3.188154   -0.515036
    108          6           0       17.790263   -5.382103   -2.610850
    109          6           0       15.713452   -5.485709    0.529252
    110          6           0       15.870525   -4.813637    1.936738
    111          7           0       15.868910   -0.277972    0.270445
    112          6           0       14.724568   -1.073287    0.078971
    113          6           0       13.528330   -0.204716    0.209244
    114          6           0       14.046703    1.075878    0.362176
    115          6           0       15.423187    1.036033    0.432175
    116          6           0       12.212035   -0.711911   -0.137950
    117          6           0       13.625278    2.474363    0.388327
    118          8           0       12.488069    2.920476    0.286151
    119          6           0       14.969951    3.329050    0.540594
    120          6           0       15.126035    4.288419   -0.579665
    121          8           0       15.757271    4.097188   -1.615084
    122          8           0       14.445121    5.478738   -0.261579
    123          6           0       14.372383    6.580433   -1.194477
    124          1           0       21.758897    1.631622    0.477307
    125          1           0       20.085435   -4.371784   -0.986090
    126          1           0       13.920648   -3.050677   -0.330555
    127          1           0       17.765987    4.615455    0.359753
    128          1           0       20.173724    3.737129    1.643037
    129          1           0       21.133693    4.891929   -0.020851
    130          1           0       19.565895    5.113817   -0.742782
    131          1           0       20.580591    3.706486   -1.125710
    132          1           0       18.621030    3.851721    3.138511
    133          1           0       16.938963    3.597513    2.674752
    134          1           0       18.115786    5.990696    3.740802
    135          1           0       16.546723    5.777395    3.151733
    136          1           0       24.152010   -0.704161    0.219001
    137          1           0       23.345725    0.880328   -0.438289
    138          1           0       23.702465   -0.378639   -1.527038
    139          1           0       24.731130   -2.726297   -1.450715
    140          1           0       24.707847   -4.303075   -0.721162
    141          1           0       24.434090   -2.738579    0.240803
    142          1           0       18.021749   -5.612664   -0.443387
    143          1           0       15.325272   -5.018863   -1.561206
    144          1           0       18.612177   -6.097803   -2.633380
    145          1           0       17.946832   -4.465014   -3.177851
    146          1           0       16.877287   -5.857717   -2.968743
    147          1           0       16.182056   -6.466464    0.445381
    148          1           0       14.625675   -5.561278    0.533523
    149          1           0       16.387825   -5.575168    2.519602
    150          1           0       14.914945   -4.609149    2.421314
    151          1           0       16.483202   -3.913537    1.973854
    152          1           0       12.277970   -1.212608   -1.103057
    153          1           0       11.566684    0.159731   -0.251495
    154          1           0       11.769533   -1.255731    0.696207
    155          1           0       14.808850    3.881680    1.466719
    156          1           0       13.454860    6.589838   -1.782330
    157          1           0       15.318822    6.722837   -1.716305
    158          1           0       14.409623    7.426294   -0.507419
 ---------------------------------------------------------------------

 SCF Done:  E(RwB97XD) =  -4070.62825288     A.U. after   19 cycles

 Excitation energies and oscillator strengths:

 Excited State   1:      Singlet-A      1.6894 eV  733.90 nm  f=0.3963  <S**2>=0.000
     309 -> 316        0.18333
     311 -> 313        0.68238
     309 <- 316        0.11551
 This state for optimization and/or second-order correction.
 Total Energy, E(TD-HF/TD-DFT) =  -4070.56616942
 Copying the excited state density for this state as the 1-particle RhoCI density.

 Excited State   2:      Singlet-A      1.6998 eV  729.42 nm  f=0.3703  <S**2>=0.000
     310 -> 315        0.19449
     312 -> 314        0.67876
     310 <- 315        0.11674

 Excited State   3:      Singlet-A      2.1431 eV  578.54 nm  f=0.1531  <S**2>=0.000
     309 -> 313        0.65153
     311 -> 316       -0.25245

 Excited State   4:      Singlet-A      2.2204 eV  558.38 nm  f=0.0707  <S**2>=0.000
     310 -> 314        0.62144
     312 -> 315       -0.32314

 Excited State   5:      Singlet-A      3.1998 eV  387.47 nm  f=0.0021  <S**2>=0.000
     306 -> 313        0.29755
     307 -> 313        0.62259

 The electronic state is 1-A.
 Alpha  occ. eigenvalues --  -46.94817 -46.93506 -19.30832 -19.29203 -19.24899
 Alpha  occ. eigenvalues --  -19.24790 -19.24433 -19.24320 -19.24031 -19.23803
 Alpha  occ. eigenvalues --  -14.46727 -14.46638 -14.46056 -14.45828 -14.44276
 Alpha  occ. eigenvalues --  -14.43932 -14.43505 -14.43110 -10.43306 -10.43238
 Alpha  occ. eigenvalues --  -10.40323 -10.39358 -10.39284 -10.39000 -10.35867
 Alpha  occ. eigenvalues --  -10.35043 -10.35033 -10.34879 -10.34742 -10.34699
 Alpha  occ. eigenvalues --  -10.34653 -10.34613 -10.34525 -10.34441 -10.34427
 Alpha  occ. eigenvalues --  -10.34385 -10.34195 -10.33970 -10.33219 -10.33207
 Alpha  occ. eigenvalues --  -10.33147 -10.33115 -10.33043 -10.32900 -10.32578
 Alpha  occ. eigenvalues --  -10.32193 -10.32153 -10.32145 -10.32113 -10.32000
 Alpha  occ. eigenvalues --  -10.31810 -10.31790 -10.31778 -10.31686 -10.31663
 Alpha  occ. eigenvalues --  -10.31638 -10.31571 -10.31441 -10.31434 -10.31409
 Alpha  occ. eigenvalues --  -10.31402 -10.31341 -10.31181 -10.31162 -10.31053
 Alpha  occ. eigenvalues --  -10.30990 -10.30753 -10.30594 -10.30395 -10.30386
 Alpha  occ. eigenvalues --  -10.30384 -10.30315 -10.30295 -10.29937 -10.29912
 Alpha  occ. eigenvalues --  -10.29817 -10.29598 -10.29574 -10.29360 -10.29192
 Alpha  occ. eigenvalues --  -10.29148 -10.29084 -10.28900 -10.28667 -10.28407
 Alpha  occ. eigenvalues --  -10.28302  -3.20807  -3.19640  -1.94404  -1.93942
 Alpha  occ. eigenvalues --   -1.93765  -1.93242  -1.92758  -1.92641  -1.17891
 Alpha  occ. eigenvalues --   -1.16790  -1.13923  -1.12508  -1.11853  -1.11442
 Alpha  occ. eigenvalues --   -1.09416  -1.08473  -1.06914  -1.06790  -1.06080
 Alpha  occ. eigenvalues --   -1.05311  -1.05066  -1.04534  -1.03472  -1.03350
 Alpha  occ. eigenvalues --   -0.94505  -0.93916  -0.91857  -0.91035  -0.90519
 Alpha  occ. eigenvalues --   -0.90518  -0.90232  -0.89902  -0.89289  -0.88926
 Alpha  occ. eigenvalues --   -0.88623  -0.88346  -0.88081  -0.87730  -0.86177
 Alpha  occ. eigenvalues --   -0.86048  -0.85667  -0.85189  -0.84775  -0.84570
 Alpha  occ. eigenvalues --   -0.84017  -0.83849  -0.83106  -0.82744  -0.82596
 Alpha  occ. eigenvalues --   -0.82396  -0.80947  -0.80195  -0.79204  -0.78998
 Alpha  occ. eigenvalues --   -0.78757  -0.78652  -0.77685  -0.77611  -0.76792
 Alpha  occ. eigenvalues --   -0.76721  -0.74829  -0.74081  -0.73269  -0.72878
 Alpha  occ. eigenvalues --   -0.71121  -0.70853  -0.70566  -0.69992  -0.69819
 Alpha  occ. eigenvalues --   -0.69484  -0.68730  -0.68490  -0.67423  -0.67066
 Alpha  occ. eigenvalues --   -0.66919  -0.66622  -0.66549  -0.66412  -0.66162
 Alpha  occ. eigenvalues --   -0.66014  -0.63895  -0.63504  -0.62351  -0.62303
 Alpha  occ. eigenvalues --   -0.62060  -0.61298  -0.61217  -0.61035  -0.60114
 Alpha  occ. eigenvalues --   -0.60001  -0.59826  -0.59654  -0.59554  -0.59129
 Alpha  occ. eigenvalues --   -0.58262  -0.58151  -0.57606  -0.57452  -0.57381
 Alpha  occ. eigenvalues --   -0.57184  -0.56850  -0.56161  -0.55926  -0.55735
 Alpha  occ. eigenvalues --   -0.55685  -0.55500  -0.55350  -0.55279  -0.55087
 Alpha  occ. eigenvalues --   -0.54692  -0.54535  -0.54466  -0.54174  -0.53792
 Alpha  occ. eigenvalues --   -0.53711  -0.53696  -0.53480  -0.53427  -0.53212
 Alpha  occ. eigenvalues --   -0.52935  -0.52773  -0.52753  -0.52480  -0.52411
 Alpha  occ. eigenvalues --   -0.52019  -0.51883  -0.51709  -0.51693  -0.51527
 Alpha  occ. eigenvalues --   -0.51323  -0.51315  -0.51075  -0.50887  -0.50817
 Alpha  occ. eigenvalues --   -0.50610  -0.50425  -0.50310  -0.50011  -0.49855
 Alpha  occ. eigenvalues --   -0.49547  -0.49533  -0.49286  -0.49132  -0.48841
 Alpha  occ. eigenvalues --   -0.48722  -0.48605  -0.48536  -0.48350  -0.48029
 Alpha  occ. eigenvalues --   -0.48010  -0.47921  -0.47742  -0.47640  -0.47284
 Alpha  occ. eigenvalues --   -0.47276  -0.46954  -0.46919  -0.46657  -0.46551
 Alpha  occ. eigenvalues --   -0.46483  -0.46369  -0.46251  -0.46195  -0.46137
 Alpha  occ. eigenvalues --   -0.45973  -0.45808  -0.45540  -0.45360  -0.45318
 Alpha  occ. eigenvalues --   -0.45271  -0.45225  -0.44892  -0.44829  -0.44750
 Alpha  occ. eigenvalues --   -0.44538  -0.44422  -0.44268  -0.43840  -0.43837
 Alpha  occ. eigenvalues --   -0.43754  -0.43672  -0.43334  -0.43103  -0.42872
 Alpha  occ. eigenvalues --   -0.42847  -0.42574  -0.42316  -0.42194  -0.41928
 Alpha  occ. eigenvalues --   -0.41743  -0.41266  -0.41011  -0.40699  -0.40493
 Alpha  occ. eigenvalues --   -0.40240  -0.39865  -0.39724  -0.39693  -0.39346
 Alpha  occ. eigenvalues --   -0.39089  -0.38729  -0.38605  -0.38369  -0.38100
 Alpha  occ. eigenvalues --   -0.37886  -0.37623  -0.36201  -0.36103  -0.36065
 Alpha  occ. eigenvalues --   -0.35993  -0.35506  -0.35342  -0.33712  -0.33449
 Alpha  occ. eigenvalues --   -0.33174  -0.33134  -0.32796  -0.32767  -0.32373
 Alpha  occ. eigenvalues --   -0.32127  -0.31716  -0.31455  -0.25849  -0.25796
 Alpha  occ. eigenvalues --   -0.23306  -0.22573
 Alpha virt. eigenvalues --   -0.07337  -0.06470   0.00221   0.00674   0.02312
 Alpha virt. eigenvalues --    0.02816   0.04296   0.04905   0.06387   0.06508
 Alpha virt. eigenvalues --    0.06732   0.07099   0.07682   0.08080   0.08320

 Mulliken charges:
               1
     1  Mg   0.978593
     2  C   -0.032891
     3  C   -0.099720
     4  C   -0.063461
     5  C   -0.089466
     6  N   -0.322066
     7  C    0.015298
     8  C   -0.082443
     9  C   -0.128401
    10  C    0.030575
    11  C    0.020646
    12  C    0.044935
    13  C   -0.121215
    14  H    0.030767
    15  N   -0.522979
    16  C    0.241952
    17  C   -0.149255
    18  C   -0.081263
    19  C    0.154305
    20  C    0.041791
    21  C    0.076134
    22  O   -0.213790
    23  C   -0.007487
    24  N   -0.359148
    25  C    0.071629
    26  C   -0.108384
    27  C   -0.079712
    28  C    0.063498
    29  C    0.008325
    30  C    0.027487
    31  C   -0.074062
    32  N   -0.443726
    33  C    0.130036
    34  C   -0.214687
    35  C    0.007897
    36  C    0.121496
    37  C    0.094281
    38  C    0.108362
    39  O   -0.190834
    40  C   -0.041842
    41  C    0.275506
    42  O   -0.281867
    43  O   -0.372066
    44  C    0.141514
    45  H   -0.011144
    46  H    0.021657
    47  H   -0.003628
    48  H    0.026751
    49  H    0.025640
    50  H    0.045104
    51  H    0.043293
    52  H    0.033179
    53  H    0.030078
    54  H    0.030057
    55  H    0.065271
    56  H    0.054146
    57  H    0.051077
    58  H    0.023098
    59  H    0.045394
    60  H    0.070806
    61  H    0.046566
    62  H    0.048664
    63  H    0.037815
    64  H    0.037796
    65  H    0.044212
    66  H    0.029754
    67  H    0.036985
    68  H    0.035346
    69  H    0.037509
    70  H    0.038879
    71  H    0.028220
    72  H    0.026640
    73  H    0.030829
    74  H    0.066493
    75  H    0.049350
    76  H    0.057580
    77  H    0.060417
    78  H    0.064182
    79  H    0.067721
    80  Mg   0.958979
    81  C    0.014142
    82  C   -0.116117
    83  C   -0.071727
    84  C   -0.091875
    85  N   -0.268544
    86  C   -0.050200
    87  C   -0.080585
    88  C   -0.081094
    89  C    0.061426
    90  C    0.017841
    91  C   -0.000830
    92  C   -0.101167
    93  H    0.041897
    94  N   -0.420411
    95  C    0.160613
    96  C   -0.187195
    97  C   -0.089540
    98  C    0.145953
    99  C    0.087433
   100  C    0.060886
   101  O   -0.251530
   102  C   -0.004538
   103  N   -0.411510
   104  C    0.041687
   105  C   -0.106377
   106  C   -0.056879
   107  C    0.053318
   108  C    0.041974
   109  C   -0.057086
   110  C   -0.040341
   111  N   -0.481890
   112  C    0.164264
   113  C   -0.192764
   114  C   -0.021536
   115  C    0.160085
   116  C    0.078009
   117  C    0.119449
   118  O   -0.196978
   119  C   -0.104443
   120  C    0.296062
   121  O   -0.245657
   122  O   -0.393151
   123  C    0.148821
   124  H    0.010762
   125  H    0.016616
   126  H   -0.005060
   127  H    0.045990
   128  H    0.028845
   129  H    0.025205
   130  H    0.045314
   131  H    0.027090
   132  H    0.030828
   133  H    0.034375
   134  H    0.044091
   135  H    0.052206
   136  H    0.062332
   137  H    0.037750
   138  H    0.061572
   139  H    0.050619
   140  H    0.063453
   141  H    0.049853
   142  H    0.039301
   143  H    0.036156
   144  H    0.056262
   145  H    0.049525
   146  H    0.029653
   147  H    0.044646
   148  H    0.027431
   149  H    0.033395
   150  H    0.043527
   151  H    0.047368
   152  H    0.057856
   153  H    0.044369
   154  H    0.045801
   155  H    0.074951
   156  H    0.071725
   157  H    0.047351
   158  H    0.039968
 Sum of Mulliken charges =  -0.00000

 Dipole moment (field-independent basis, Debye):
    X=              4.0968    Y=             -0.0876    Z=              6.2199  Tot=              7.4484
 Quadrupole moment (field-independent basis, Debye-Ang):
   XX=           -347.3608   YY=           -490.1195   ZZ=           -490.9019
   XY=             48.7409   XZ=            -28.4291   YZ=             24.3418

 Normal termination of Gaussian 16 at Sat Sep 18 17:21:26 2021.
