 Gaussian 16, Revision A.03,
 Gaussian 16:  ES64L-G16RevA.03 25-Dec-2016

 --------------------------------
 #p wB97XD/Def2SVP td=(nstates=5)
 --------------------------------

 --------------------------------
 TDDFT excited states in gaussian
 --------------------------------
 Symbolic Z-matrix:
 Charge =  0 Multiplicity = 1

                         Standard orientation:
 ---------------------------------------------------------------------
 Center     Atomic      Atomic             Coordinates (Angstroms)
 Number     Number       Type             X           Y           Z
 ---------------------------------------------------------------------
      1         12           0       -9.917039    0.138771    0.641064
      2          6           0       -9.155067   -1.852082   -2.082069
      3          6           0       -6.812151   -0.790903    2.086124
      4          6           0      -10.317671    2.509893    3.082261
      5          6           0      -12.693650    1.398992   -0.981057
      6          7           0       -8.276882   -1.275598    0.088098
      7          6           0       -8.148992   -1.899400   -1.135127
      8          6           0       -6.746090   -2.577457   -1.362602
      9          6           0       -6.166853   -2.569712    0.130243
     10          6           0       -7.141796   -1.511648    0.893571
     11          6           0       -6.046323   -3.929864    0.917555
     12          6           0       -5.849334   -1.876265   -2.321283
     13          6           0       -5.374739   -2.565192   -3.586322
     14          1           0       -4.010769   -2.111114   -4.130523
     15          7           0       -8.760748    0.709683    2.415366
     16          6           0       -7.540143    0.130493    2.810391
     17          6           0       -7.133664    0.678439    4.065290
     18          6           0       -8.089486    1.790278    4.310114
     19          6           0       -9.133657    1.737248    3.240503
     20          6           0       -5.817038    0.332418    4.768492
     21          6           0       -7.926575    2.734028    5.514389
     22          8           0       -7.034279    2.716465    6.357375
     23          6           0       -8.729817    3.986225    5.503873
     24          7           0      -11.265077    1.923924    0.934061
     25          6           0      -11.300170    2.576646    2.103832
     26          6           0      -12.224597    3.776686    1.903625
     27          6           0      -13.109075    3.426160    0.617451
     28          6           0      -12.333884    2.120994    0.132147
     29          6           0      -13.177665    3.920331    3.142736
     30          6           0      -13.265987    4.490434   -0.544975
     31          6           0      -14.621358    5.112312   -0.846395
     32          7           0      -10.841061   -0.211602   -1.170323
     33          6           0      -12.005339    0.352935   -1.700635
     34          6           0      -12.238391   -0.156892   -3.017254
     35          6           0      -11.141078   -1.042739   -3.249086
     36          6           0      -10.356781   -1.047027   -2.030268
     37          6           0      -13.351583    0.172100   -3.961340
     38          6           0      -10.547804   -1.963124   -4.128928
     39          8           0      -10.926776   -2.291032   -5.235480
     40          6           0       -9.208085   -2.463807   -3.462612
     41          6           0       -9.124937   -3.924557   -3.617392
     42          8           0       -8.386691   -4.474563   -4.426782
     43          8           0      -10.006973   -4.548432   -2.747742
     44          6           0      -10.007195   -6.022513   -2.882281
     45          1           0       -5.907357   -1.033295    2.646645
     46          1           0      -10.412937    3.174813    3.943693
     47          1           0      -13.550380    1.840302   -1.494347
     48          1           0       -6.890935   -3.606266   -1.690422
     49          1           0       -5.198959   -2.069505    0.081627
     50          1           0       -6.179412   -4.731511    0.191159
     51          1           0       -6.755291   -4.044625    1.737599
     52          1           0       -5.057901   -3.943238    1.375324
     53          1           0       -4.926314   -1.666372   -1.778740
     54          1           0       -6.327914   -0.965319   -2.679176
     55          1           0       -6.076216   -2.314393   -4.381483
     56          1           0       -5.263107   -3.643494   -3.475038
     57          1           0       -5.083884   -0.328847    4.307171
     58          1           0       -6.167621   -0.028071    5.735255
     59          1           0       -5.424550    1.309174    5.049527
     60          1           0       -9.721083    3.995039    5.955066
     61          1           0       -8.768318    4.443092    4.514874
     62          1           0       -8.189609    4.691019    6.137060
     63          1           0      -11.681124    4.710022    1.754824
     64          1           0      -14.085251    3.052133    0.924146
     65          1           0      -13.120033    4.960642    3.462912
     66          1           0      -12.959675    3.259592    3.982735
     67          1           0      -14.217321    3.683769    2.915175
     68          1           0      -12.898996    3.966763   -1.427415
     69          1           0      -12.636041    5.329033   -0.245064
     70          1           0      -14.559200    5.431880   -1.886947
     71          1           0      -14.743065    6.005978   -0.233915
     72          1           0      -15.526248    4.509654   -0.775952
     73          1           0      -13.171749   -0.427847   -4.853814
     74          1           0      -13.323327    1.248193   -4.129880
     75          1           0      -14.350772   -0.085704   -3.609793
     76          1           0       -8.432502   -2.026175   -4.092049
     77          1           0      -10.747043   -6.330997   -3.620828
     78          1           0      -10.152667   -6.412477   -1.874899
     79          1           0       -9.029759   -6.402811   -3.177724
     80         12           0        9.987911    0.737676    0.052457
     81          6           0        8.260537   -1.876338    1.487428
     82          6           0        6.979273    1.949875   -1.036449
     83          6           0       11.689787    3.140649   -1.600948
     84          6           0       12.992611   -0.886232    0.703482
     85          7           0        7.858686   -0.049381    0.141115
     86          6           0        7.395324   -0.961998    0.905266
     87          6           0        5.787737   -1.103527    0.968624
     88          6           0        5.429900   -0.015476   -0.119360
     89          6           0        6.846086    0.654932   -0.452887
     90          6           0        4.822797   -0.599969   -1.500259
     91          6           0        5.133264   -0.831552    2.392001
     92          6           0        3.821011   -1.613361    2.754470
     93          1           0        3.150935   -2.355434    1.637800
     94          7           0        9.440310    2.327893   -1.057515
     95          6           0        8.087251    2.754868   -1.357679
     96          6           0        8.179859    4.004360   -2.105660
     97          6           0        9.538704    4.303647   -2.374770
     98          6           0       10.293476    3.267962   -1.633626
     99          6           0        6.904568    4.703859   -2.411571
    100          6           0       10.191137    5.485463   -3.129692
    101          8           0       11.353172    5.592686   -3.387364
    102          6           0        9.197161    6.499914   -3.730502
    103          7           0       12.051886    1.082174   -0.515627
    104          6           0       12.512300    2.097867   -1.174914
    105          6           0       14.009943    1.910606   -1.549393
    106          6           0       14.448602    0.682241   -0.716612
    107          6           0       13.096989    0.245399   -0.104181
    108          6           0       14.182605    1.730362   -3.072611
    109          6           0       15.567323    1.027125    0.313772
    110          6           0       16.950170    1.304511   -0.297759
    111          7           0       10.568139   -1.038906    0.926400
    112          6           0       11.841059   -1.504165    1.204698
    113          6           0       11.677410   -2.719132    1.958686
    114          6           0       10.281055   -2.981413    2.092527
    115          6           0        9.689076   -1.860541    1.449098
    116          6           0       12.737206   -3.539107    2.419039
    117          6           0        9.254712   -3.803671    2.649606
    118          8           0        9.373857   -4.910875    3.254157
    119          6           0        7.900291   -3.157700    2.161653
    120          6           0        7.209312   -4.151963    1.368700
    121          8           0        7.445490   -4.383120    0.183147
    122          8           0        6.393678   -4.852260    2.220669
    123          6           0        5.819072   -6.067213    1.605172
    124          1           0        6.037244    2.346879   -1.419212
    125          1           0       12.171527    3.963198   -2.134945
    126          1           0       13.966103   -1.318989    0.945168
    127          1           0        5.607037   -2.102898    0.571944
    128          1           0        4.690008    0.680051    0.276251
    129          1           0        5.091479   -1.654741   -1.564858
    130          1           0        5.246516   -0.057961   -2.345570
    131          1           0        3.741926   -0.524810   -1.623692
    132          1           0        4.887909    0.229643    2.359443
    133          1           0        5.818555   -0.785172    3.239061
    134          1           0        3.048596   -0.990387    3.205283
    135          1           0        4.066494   -2.408693    3.458297
    136          1           0        6.455421    4.303865   -3.321073
    137          1           0        6.993042    5.789532   -2.369296
    138          1           0        6.225267    4.491450   -1.586363
    139          1           0        8.729257    7.163728   -3.002840
    140          1           0        8.482486    5.835321   -4.214895
    141          1           0        9.586087    7.129621   -4.530137
    142          1           0       14.461445    2.825508   -1.166467
    143          1           0       14.766915   -0.117068   -1.385810
    144          1           0       13.311203    1.350300   -3.606270
    145          1           0       14.925735    1.013211   -3.422836
    146          1           0       14.434968    2.720961   -3.450824
    147          1           0       15.705364    0.175067    0.977944
    148          1           0       15.259554    1.879994    0.919692
    149          1           0       16.837539    1.295680   -1.381898
    150          1           0       17.579116    0.425622   -0.155253
    151          1           0       17.525092    2.157794    0.061260
    152          1           0       13.464426   -2.837993    2.828721
    153          1           0       13.261428   -4.122130    1.662000
    154          1           0       12.326438   -4.282982    3.102473
    155          1           0        7.355831   -3.005428    3.093945
    156          1           0        6.658665   -6.739339    1.425665
    157          1           0        5.194742   -5.831389    0.744009
    158          1           0        5.170095   -6.528959    2.349459
 ---------------------------------------------------------------------

 SCF Done:  E(RwB97XD) =  -4070.60719956     A.U. after   19 cycles

 Excitation energies and oscillator strengths:

 Excited State   1:      Singlet-A      1.6642 eV  744.99 nm  f=0.3781  <S**2>=0.000
     309 -> 315       -0.17877
     311 -> 313        0.68424
     309 <- 315       -0.11359
 This state for optimization and/or second-order correction.
 Total Energy, E(TD-HF/TD-DFT) =  -4070.54603978
 Copying the excited state density for this state as the 1-particle RhoCI density.

 Excited State   2:      Singlet-A      1.7225 eV  719.78 nm  f=0.3806  <S**2>=0.000
     310 -> 316        0.20371
     312 -> 314        0.67761
     310 <- 316        0.11864

 Excited State   3:      Singlet-A      2.1181 eV  585.36 nm  f=0.1579  <S**2>=0.000
     309 -> 313        0.64886
     311 -> 315        0.25645

 Excited State   4:      Singlet-A      2.1615 eV  573.61 nm  f=0.1084  <S**2>=0.000
     310 -> 314        0.64053
     312 -> 316       -0.28348

 Excited State   5:      Singlet-A      3.2946 eV  376.33 nm  f=0.0000  <S**2>=0.000
     312 -> 313        0.70675

 The electronic state is 1-A.
 Alpha  occ. eigenvalues --  -46.96958 -46.94745 -19.30446 -19.30041 -19.25195
 Alpha  occ. eigenvalues --  -19.24881 -19.24338 -19.24259 -19.23419 -19.23296
 Alpha  occ. eigenvalues --  -14.48293 -14.46801 -14.46691 -14.46110 -14.44840
 Alpha  occ. eigenvalues --  -14.44550 -14.44341 -14.43500 -10.43086 -10.42403
 Alpha  occ. eigenvalues --  -10.40262 -10.39445 -10.38789 -10.38274 -10.37410
 Alpha  occ. eigenvalues --  -10.36358 -10.35944 -10.35883 -10.35824 -10.35327
 Alpha  occ. eigenvalues --  -10.35033 -10.34920 -10.34816 -10.34766 -10.34686
 Alpha  occ. eigenvalues --  -10.34464 -10.34440 -10.34320 -10.34235 -10.34222
 Alpha  occ. eigenvalues --  -10.33676 -10.33625 -10.33244 -10.33162 -10.33087
 Alpha  occ. eigenvalues --  -10.33036 -10.32920 -10.32883 -10.32882 -10.32856
 Alpha  occ. eigenvalues --  -10.32709 -10.32475 -10.32448 -10.32443 -10.32381
 Alpha  occ. eigenvalues --  -10.32244 -10.32138 -10.32044 -10.31850 -10.31784
 Alpha  occ. eigenvalues --  -10.31674 -10.31636 -10.31580 -10.31458 -10.31165
 Alpha  occ. eigenvalues --  -10.31150 -10.31145 -10.31080 -10.31041 -10.31005
 Alpha  occ. eigenvalues --  -10.30999 -10.30668 -10.30477 -10.30329 -10.30181
 Alpha  occ. eigenvalues --  -10.30153 -10.30051 -10.30001 -10.29817 -10.29513
 Alpha  occ. eigenvalues --  -10.29473 -10.29379 -10.29189 -10.29029 -10.28469
 Alpha  occ. eigenvalues --  -10.28463  -3.22653  -3.20788  -1.96262  -1.95743
 Alpha  occ. eigenvalues --   -1.95614  -1.94373  -1.93919  -1.93762  -1.17798
 Alpha  occ. eigenvalues --   -1.17702  -1.14756  -1.12476  -1.12078  -1.09787
 Alpha  occ. eigenvalues --   -1.09422  -1.08954  -1.07403  -1.06933  -1.06303
 Alpha  occ. eigenvalues --   -1.06193  -1.05472  -1.04775  -1.03948  -1.02943
 Alpha  occ. eigenvalues --   -0.94672  -0.94500  -0.91608  -0.91405  -0.91191
 Alpha  occ. eigenvalues --   -0.90272  -0.90169  -0.89785  -0.89741  -0.89399
 Alpha  occ. eigenvalues --   -0.89214  -0.88897  -0.88794  -0.87979  -0.86582
 Alpha  occ. eigenvalues --   -0.85866  -0.85848  -0.85344  -0.84960  -0.84317
 Alpha  occ. eigenvalues --   -0.84229  -0.83660  -0.83002  -0.82957  -0.82860
 Alpha  occ. eigenvalues --   -0.82247  -0.80530  -0.79916  -0.79296  -0.79268
 Alpha  occ. eigenvalues --   -0.79080  -0.78316  -0.78278  -0.77683  -0.77587
 Alpha  occ. eigenvalues --   -0.76771  -0.75632  -0.74419  -0.74193  -0.73449
 Alpha  occ. eigenvalues --   -0.71467  -0.71308  -0.71102  -0.70760  -0.70183
 Alpha  occ. eigenvalues --   -0.70129  -0.69245  -0.69011  -0.67771  -0.67670
 Alpha  occ. eigenvalues --   -0.67594  -0.67417  -0.67304  -0.66923  -0.66770
 Alpha  occ. eigenvalues --   -0.66084  -0.65095  -0.63557  -0.62439  -0.62042
 Alpha  occ. eigenvalues --   -0.61862  -0.61593  -0.61372  -0.61208  -0.61093
 Alpha  occ. eigenvalues --   -0.60274  -0.59928  -0.59865  -0.59634  -0.59028
 Alpha  occ. eigenvalues --   -0.58688  -0.58061  -0.57987  -0.57612  -0.57533
 Alpha  occ. eigenvalues --   -0.57168  -0.56809  -0.56458  -0.55891  -0.55885
 Alpha  occ. eigenvalues --   -0.55627  -0.55326  -0.55312  -0.55108  -0.54938
 Alpha  occ. eigenvalues --   -0.54930  -0.54817  -0.54688  -0.54548  -0.54180
 Alpha  occ. eigenvalues --   -0.54024  -0.53983  -0.53802  -0.53391  -0.53277
 Alpha  occ. eigenvalues --   -0.53071  -0.52961  -0.52872  -0.52662  -0.52489
 Alpha  occ. eigenvalues --   -0.52353  -0.52289  -0.51845  -0.51575  -0.51324
 Alpha  occ. eigenvalues --   -0.51318  -0.51082  -0.50971  -0.50845  -0.50677
 Alpha  occ. eigenvalues --   -0.50487  -0.50373  -0.50354  -0.50140  -0.49952
 Alpha  occ. eigenvalues --   -0.49925  -0.49770  -0.49723  -0.49279  -0.49094
 Alpha  occ. eigenvalues --   -0.48984  -0.48736  -0.48646  -0.48589  -0.48373
 Alpha  occ. eigenvalues --   -0.48227  -0.48156  -0.48055  -0.47960  -0.47926
 Alpha  occ. eigenvalues --   -0.47785  -0.47539  -0.47334  -0.47216  -0.47096
 Alpha  occ. eigenvalues --   -0.46790  -0.46773  -0.46630  -0.46306  -0.46215
 Alpha  occ. eigenvalues --   -0.46196  -0.46097  -0.45794  -0.45735  -0.45698
 Alpha  occ. eigenvalues --   -0.45460  -0.45164  -0.45109  -0.44892  -0.44874
 Alpha  occ. eigenvalues --   -0.44680  -0.44558  -0.44455  -0.44267  -0.44245
 Alpha  occ. eigenvalues --   -0.43724  -0.43675  -0.43653  -0.43568  -0.43403
 Alpha  occ. eigenvalues --   -0.43369  -0.43093  -0.42527  -0.42478  -0.42139
 Alpha  occ. eigenvalues --   -0.42019  -0.41758  -0.41742  -0.41521  -0.41269
 Alpha  occ. eigenvalues --   -0.40384  -0.40166  -0.40075  -0.39917  -0.39544
 Alpha  occ. eigenvalues --   -0.39543  -0.39344  -0.39056  -0.38901  -0.38586
 Alpha  occ. eigenvalues --   -0.38240  -0.37983  -0.36646  -0.36455  -0.36295
 Alpha  occ. eigenvalues --   -0.35885  -0.35627  -0.35604  -0.34134  -0.33813
 Alpha  occ. eigenvalues --   -0.33350  -0.33342  -0.32600  -0.32445  -0.32425
 Alpha  occ. eigenvalues --   -0.32279  -0.31979  -0.31307  -0.26677  -0.25597
 Alpha  occ. eigenvalues --   -0.24108  -0.23057
 Alpha virt. eigenvalues --   -0.08226  -0.06766  -0.00552   0.00220   0.01926
 Alpha virt. eigenvalues --    0.02025   0.04196   0.04201   0.05350   0.05702
 Alpha virt. eigenvalues --    0.06922   0.07306   0.07635   0.08272   0.08300

 Mulliken charges:
               1
     1  Mg   0.930616
     2  C    0.060637
     3  C   -0.053997
     4  C   -0.067634
     5  C   -0.064412
     6  N   -0.367887
     7  C   -0.017533
     8  C   -0.066684
     9  C   -0.122789
    10  C    0.087929
    11  C    0.030246
    12  C    0.037308
    13  C   -0.149118
    14  H    0.024521
    15  N   -0.454631
    16  C    0.135400
    17  C   -0.149708
    18  C   -0.136694
    19  C    0.177154
    20  C    0.084140
    21  C    0.092261
    22  O   -0.239935
    23  C   -0.062647
    24  N   -0.335681
    25  C    0.120529
    26  C   -0.138959
    27  C   -0.048677
    28  C    0.022559
    29  C    0.006313
    30  C   -0.011715
    31  C   -0.052442
    32  N   -0.425543
    33  C    0.118344
    34  C   -0.169297
    35  C   -0.018281
    36  C    0.077054
    37  C    0.078411
    38  C    0.069433
    39  O   -0.202067
    40  C   -0.060592
    41  C    0.246679
    42  O   -0.245723
    43  O   -0.384184
    44  C    0.134922
    45  H   -0.013101
    46  H   -0.019621
    47  H   -0.002384
    48  H    0.035166
    49  H    0.039929
    50  H    0.043514
    51  H    0.048672
    52  H    0.042722
    53  H    0.039000
    54  H    0.043174
    55  H    0.069138
    56  H    0.059345
    57  H    0.056499
    58  H    0.058133
    59  H    0.063269
    60  H    0.068744
    61  H    0.055678
    62  H    0.048567
    63  H    0.055110
    64  H    0.030343
    65  H    0.036258
    66  H    0.039893
    67  H    0.031272
    68  H    0.041345
    69  H    0.028749
    70  H    0.037033
    71  H    0.037646
    72  H    0.038564
    73  H    0.063146
    74  H    0.045567
    75  H    0.047194
    76  H    0.066490
    77  H    0.069908
    78  H    0.052595
    79  H    0.054814
    80  Mg   0.972924
    81  C    0.036673
    82  C   -0.076522
    83  C   -0.083288
    84  C   -0.099805
    85  N   -0.274862
    86  C   -0.096923
    87  C   -0.014500
    88  C   -0.137681
    89  C    0.066018
    90  C    0.000644
    91  C    0.023702
    92  C   -0.131387
    93  H    0.034102
    94  N   -0.532089
    95  C    0.160597
    96  C   -0.146671
    97  C   -0.099870
    98  C    0.147666
    99  C    0.050179
   100  C    0.084771
   101  O   -0.192501
   102  C   -0.045264
   103  N   -0.332468
   104  C    0.040039
   105  C   -0.054387
   106  C   -0.067599
   107  C    0.054813
   108  C    0.016495
   109  C   -0.022579
   110  C   -0.039141
   111  N   -0.427421
   112  C    0.163556
   113  C   -0.180180
   114  C    0.016073
   115  C    0.116692
   116  C    0.057370
   117  C    0.086164
   118  O   -0.253956
   119  C   -0.075791
   120  C    0.267886
   121  O   -0.261897
   122  O   -0.367015
   123  C    0.145043
   124  H   -0.003014
   125  H    0.012803
   126  H   -0.006207
   127  H    0.049015
   128  H    0.040060
   129  H    0.048229
   130  H    0.038682
   131  H    0.039473
   132  H    0.016509
   133  H    0.039810
   134  H    0.057201
   135  H    0.064767
   136  H    0.068027
   137  H    0.043940
   138  H    0.042614
   139  H    0.070896
   140  H    0.053358
   141  H    0.049772
   142  H    0.038252
   143  H    0.035398
   144  H    0.043679
   145  H    0.034112
   146  H    0.050596
   147  H    0.028762
   148  H    0.032091
   149  H    0.024505
   150  H    0.026149
   151  H    0.050592
   152  H    0.038311
   153  H    0.050092
   154  H    0.057881
   155  H    0.063179
   156  H    0.068350
   157  H    0.055901
   158  H    0.048604
 Sum of Mulliken charges =  -0.00000

 Dipole moment (field-independent basis, Debye):
    X=             -4.2650    Y=              5.6405    Z=              3.0070  Tot=              7.6842
 Quadrupole moment (field-independent basis, Debye-Ang):
   XX=           -468.8313   YY=           -501.6806   ZZ=           -572.3029
   XY=             -2.4262   XZ=            -47.1354   YZ=            -13.0156

 Normal termination of Gaussian 16 at Mon Sep 20 07:35:01 2021.
