 Gaussian 16, Revision A.03,
 Gaussian 16:  ES64L-G16RevA.03 25-Dec-2016

 --------------------------------
 #p wB97XD/Def2SVP td=(nstates=5)
 --------------------------------

 --------------------------------
 TDDFT excited states in gaussian
 --------------------------------
 Symbolic Z-matrix:
 Charge =  0 Multiplicity = 1

                         Standard orientation:
 ---------------------------------------------------------------------
 Center     Atomic      Atomic             Coordinates (Angstroms)
 Number     Number       Type             X           Y           Z
 ---------------------------------------------------------------------
      1         12           0       25.770741    0.694864    0.182670
      2          6           0       26.777337   -2.538936   -0.090827
      3          6           0       23.177689    0.305077   -2.059476
      4          6           0       25.069554    4.033851    0.470536
      5          6           0       28.706756    1.338601    2.196698
      6          7           0       25.211801   -0.876239   -1.083216
      7          6           0       25.606539   -2.235976   -0.848303
      8          6           0       24.694893   -3.175792   -1.530497
      9          6           0       23.848555   -2.182081   -2.446169
     10          6           0       24.065058   -0.804310   -1.860965
     11          6           0       24.286122   -2.220040   -3.995132
     12          6           0       23.931703   -4.150672   -0.581958
     13          6           0       23.893596   -5.576515   -1.029159
     14          1           0       23.685790   -5.813939   -2.576844
     15          7           0       24.274241    1.976817   -0.623339
     16          6           0       23.340707    1.572929   -1.530948
     17          6           0       22.514112    2.693800   -1.821854
     18          6           0       22.970671    3.818003   -1.028797
     19          6           0       24.146589    3.300539   -0.252067
     20          6           0       21.407933    2.642447   -2.898305
     21          6           0       22.475456    5.220470   -0.860880
     22          8           0       22.996875    6.149840   -0.234419
     23          6           0       21.083823    5.523477   -1.534653
     24          7           0       26.821948    2.516508    1.125504
     25          6           0       26.266416    3.701777    1.170548
     26          6           0       26.962004    4.634154    2.160228
     27          6           0       28.123105    3.752243    2.701961
     28          6           0       27.892793    2.442242    1.951053
     29          6           0       27.485000    6.008037    1.497057
     30          6           0       27.952748    3.592672    4.276996
     31          6           0       26.760826    2.805746    4.875815
     32          7           0       27.508331   -0.329388    0.785075
     33          6           0       28.540681    0.051497    1.621373
     34          6           0       29.329727   -1.168042    1.889550
     35          6           0       28.726853   -2.230053    1.285218
     36          6           0       27.595714   -1.644622    0.608870
     37          6           0       30.654209   -1.172029    2.571838
     38          6           0       28.758724   -3.669843    1.029301
     39          8           0       29.548218   -4.530902    1.379600
     40          6           0       27.479462   -3.897556    0.110067
     41          6           0       27.964458   -4.387343   -1.196282
     42          8           0       28.786544   -3.849458   -1.958400
     43          8           0       27.302559   -5.585718   -1.371324
     44          6           0       27.478534   -6.188330   -2.699156
     45          1           0       22.315404    0.210423   -2.722546
     46          1           0       24.719420    5.059555    0.608752
     47          1           0       29.554215    1.496252    2.866147
     48          1           0       25.354048   -3.792599   -2.142684
     49          1           0       22.797448   -2.451820   -2.348240
     50          1           0       24.907226   -3.077898   -4.252833
     51          1           0       24.963027   -1.377486   -4.135866
     52          1           0       23.342529   -2.099037   -4.525575
     53          1           0       22.898083   -3.822163   -0.472896
     54          1           0       24.498822   -4.071575    0.345415
     55          1           0       23.056523   -6.132841   -0.609200
     56          1           0       24.696832   -6.272615   -0.787195
     57          1           0       20.490925    2.127132   -2.612802
     58          1           0       21.927639    2.186924   -3.741056
     59          1           0       20.998447    3.624351   -3.134581
     60          1           0       21.219248    5.578069   -2.614858
     61          1           0       20.632183    6.363911   -1.007911
     62          1           0       20.323003    4.772100   -1.322268
     63          1           0       26.269556    4.853190    2.972677
     64          1           0       29.112459    4.171252    2.518130
     65          1           0       26.803372    6.784483    1.846202
     66          1           0       27.423228    5.947702    0.410000
     67          1           0       28.476157    6.385034    1.745969
     68          1           0       27.984142    4.524745    4.840992
     69          1           0       28.830679    2.992171    4.517405
     70          1           0       27.255411    1.961818    5.356924
     71          1           0       26.030075    2.511728    4.123426
     72          1           0       26.190787    3.364257    5.618221
     73          1           0       30.655425   -2.136280    3.079155
     74          1           0       30.775969   -0.341567    3.267507
     75          1           0       31.411282   -1.328583    1.804553
     76          1           0       27.018591   -4.720602    0.655589
     77          1           0       26.984318   -7.152628   -2.577410
     78          1           0       28.548813   -6.365351   -2.805344
     79          1           0       27.179941   -5.568567   -3.544887
     80         12           0      -26.678872   -0.183746    0.047669
     81          6           0      -23.263190   -0.783624   -0.581899
     82          6           0      -26.271123   -1.795503    2.959820
     83          6           0      -29.695223    0.866710    0.739608
     84          6           0      -26.570677    2.046481   -2.742465
     85          7           0      -24.932452   -1.132053    1.072358
     86          6           0      -23.667904   -1.346361    0.637928
     87          6           0      -22.823346   -2.157588    1.599505
     88          6           0      -23.948110   -2.677443    2.582148
     89          6           0      -25.152215   -1.829026    2.229235
     90          6           0      -24.265498   -4.225952    2.473858
     91          6           0      -21.599291   -1.516171    2.387643
     92          6           0      -21.416388    0.021394    2.490372
     93          1           0      -20.780299    0.602115    3.808296
     94          7           0      -27.860740   -0.579087    1.632701
     95          6           0      -27.505169   -1.155731    2.772907
     96          6           0      -28.639383   -1.066658    3.732486
     97          6           0      -29.738141   -0.400476    2.977445
     98          6           0      -29.099296    0.004978    1.725082
     99          6           0      -28.658033   -1.736419    5.080064
    100          6           0      -31.120292   -0.114129    3.503473
    101          8           0      -31.420527   -0.520648    4.623255
    102          6           0      -32.222023    0.730072    2.762767
    103          7           0      -27.975107    1.392249   -0.836145
    104          6           0      -29.184275    1.416513   -0.392922
    105          6           0      -30.020041    2.386428   -1.341549
    106          6           0      -28.914363    2.906890   -2.262294
    107          6           0      -27.697167    2.068120   -1.923436
    108          6           0      -31.239867    1.829749   -2.094478
    109          6           0      -28.477476    4.431429   -1.953070
    110          6           0      -28.798711    5.471584   -3.041896
    111          7           0      -25.266131    0.574040   -1.346681
    112          6           0      -25.379731    1.351449   -2.468847
    113          6           0      -24.150614    1.256459   -3.298486
    114          6           0      -23.210497    0.513392   -2.529896
    115          6           0      -24.019986    0.045271   -1.406277
    116          6           0      -23.853640    2.006915   -4.615962
    117          6           0      -21.883420    0.007442   -2.415416
    118          8           0      -20.826426    0.193828   -3.042267
    119          6           0      -21.872126   -0.927171   -1.179052
    120          6           0      -21.463393   -2.316195   -1.677915
    121          8           0      -20.448731   -2.953321   -1.577125
    122          8           0      -22.610678   -2.941212   -2.178525
    123          6           0      -22.487636   -4.364509   -2.622298
    124          1           0      -26.107235   -2.318024    3.904779
    125          1           0      -30.716601    1.157656    0.996791
    126          1           0      -26.641717    2.520328   -3.723360
    127          1           0      -22.482774   -3.009655    1.011487
    128          1           0      -23.629194   -2.512643    3.611442
    129          1           0      -23.680715   -4.688637    1.679549
    130          1           0      -25.286719   -4.209544    2.094725
    131          1           0      -24.135854   -4.696092    3.448844
    132          1           0      -20.693215   -1.940451    1.954883
    133          1           0      -21.601251   -1.898093    3.409104
    134          1           0      -22.415780    0.442164    2.379383
    135          1           0      -20.685481    0.425542    1.790661
    136          1           0      -29.653263   -1.788710    5.521021
    137          1           0      -27.892732   -1.240161    5.678018
    138          1           0      -28.226800   -2.718492    4.883194
    139          1           0      -32.515485    0.498430    1.738196
    140          1           0      -31.856421    1.753006    2.673036
    141          1           0      -33.169854    0.727547    3.300246
    142          1           0      -30.481501    3.195240   -0.776005
    143          1           0      -29.085142    2.912912   -3.339379
    144          1           0      -31.417154    0.779981   -1.860145
    145          1           0      -31.154818    1.984836   -3.170554
    146          1           0      -32.178565    2.307227   -1.813466
    147          1           0      -27.402578    4.519966   -1.801460
    148          1           0      -28.979627    4.692925   -1.021387
    149          1           0      -28.087242    6.292834   -3.131762
    150          1           0      -29.741634    5.922947   -2.733368
    151          1           0      -28.823981    4.876239   -3.954680
    152          1           0      -24.539246    2.821193   -4.848176
    153          1           0      -23.948736    1.238100   -5.382369
    154          1           0      -22.806999    2.310073   -4.604542
    155          1           0      -21.136222   -0.566340   -0.461239
    156          1           0      -21.531866   -4.706132   -3.019058
    157          1           0      -23.181684   -4.421603   -3.460620
    158          1           0      -22.821606   -5.151276   -1.945558
 ---------------------------------------------------------------------

 SCF Done:  E(RwB97XD) =  -4070.58971751     A.U. after   19 cycles

 Excitation energies and oscillator strengths:

 Excited State   1:      Singlet-A      1.6461 eV  753.21 nm  f=0.3801  <S**2>=0.000
     310 -> 315       -0.19182
     312 -> 314        0.68168
     310 <- 315       -0.11820
 This state for optimization and/or second-order correction.
 Total Energy, E(TD-HF/TD-DFT) =  -4070.52922554
 Copying the excited state density for this state as the 1-particle RhoCI density.

 Excited State   2:      Singlet-A      1.7162 eV  722.41 nm  f=0.4066  <S**2>=0.000
     309 -> 316        0.19065
     311 -> 313        0.68129
     309 <- 316        0.11532

 Excited State   3:      Singlet-A      2.2139 eV  560.03 nm  f=0.0444  <S**2>=0.000
     310 -> 314        0.60812
     312 -> 315        0.34953

 Excited State   4:      Singlet-A      2.2310 eV  555.73 nm  f=0.0957  <S**2>=0.000
     309 -> 313        0.63459
     311 -> 316       -0.29965

 Excited State   5:      Singlet-A      3.3960 eV  365.09 nm  f=0.0215  <S**2>=0.000
     299 -> 313       -0.19200
     299 -> 317       -0.14740
     300 -> 313        0.46755
     300 -> 317        0.33201
     300 -> 319       -0.12870
     302 -> 313       -0.15083
     311 -> 316        0.15241

 The electronic state is 1-A.
 Alpha  occ. eigenvalues --  -46.96439 -46.95599 -19.30865 -19.29904 -19.25426
 Alpha  occ. eigenvalues --  -19.25201 -19.24637 -19.24585 -19.24575 -19.23607
 Alpha  occ. eigenvalues --  -14.46945 -14.46899 -14.46784 -14.46401 -14.45097
 Alpha  occ. eigenvalues --  -14.44749 -14.44110 -14.44064 -10.43814 -10.43369
 Alpha  occ. eigenvalues --  -10.39808 -10.39732 -10.39581 -10.39422 -10.36066
 Alpha  occ. eigenvalues --  -10.35814 -10.35680 -10.35606 -10.35574 -10.35173
 Alpha  occ. eigenvalues --  -10.35154 -10.34891 -10.34791 -10.34720 -10.34455
 Alpha  occ. eigenvalues --  -10.34427 -10.34206 -10.34141 -10.34099 -10.33965
 Alpha  occ. eigenvalues --  -10.33852 -10.33561 -10.33447 -10.33407 -10.33097
 Alpha  occ. eigenvalues --  -10.33051 -10.32907 -10.32892 -10.32780 -10.32449
 Alpha  occ. eigenvalues --  -10.32391 -10.32172 -10.32095 -10.32007 -10.31991
 Alpha  occ. eigenvalues --  -10.31969 -10.31945 -10.31805 -10.31711 -10.31651
 Alpha  occ. eigenvalues --  -10.31557 -10.31533 -10.31490 -10.31454 -10.31424
 Alpha  occ. eigenvalues --  -10.31401 -10.31397 -10.31346 -10.31152 -10.31151
 Alpha  occ. eigenvalues --  -10.31002 -10.30480 -10.30464 -10.30447 -10.30436
 Alpha  occ. eigenvalues --  -10.30371 -10.30351 -10.30341 -10.30044 -10.29751
 Alpha  occ. eigenvalues --  -10.29719 -10.29633 -10.29420 -10.29305 -10.29284
 Alpha  occ. eigenvalues --  -10.28737  -3.22368  -3.21456  -1.95945  -1.95489
 Alpha  occ. eigenvalues --   -1.95336  -1.95045  -1.94567  -1.94425  -1.18288
 Alpha  occ. eigenvalues --   -1.18123  -1.12420  -1.11862  -1.11769  -1.11666
 Alpha  occ. eigenvalues --   -1.09650  -1.09561  -1.08767  -1.07128  -1.06873
 Alpha  occ. eigenvalues --   -1.06090  -1.05778  -1.05359  -1.04951  -1.03730
 Alpha  occ. eigenvalues --   -0.95648  -0.94330  -0.91758  -0.91033  -0.90758
 Alpha  occ. eigenvalues --   -0.90664  -0.90511  -0.90235  -0.89900  -0.89200
 Alpha  occ. eigenvalues --   -0.88933  -0.88844  -0.88228  -0.87351  -0.86865
 Alpha  occ. eigenvalues --   -0.86578  -0.85863  -0.85276  -0.84815  -0.84292
 Alpha  occ. eigenvalues --   -0.83741  -0.83471  -0.83178  -0.82808  -0.82504
 Alpha  occ. eigenvalues --   -0.81927  -0.80505  -0.80046  -0.79673  -0.79280
 Alpha  occ. eigenvalues --   -0.79132  -0.78978  -0.78651  -0.77726  -0.77340
 Alpha  occ. eigenvalues --   -0.76914  -0.75367  -0.74442  -0.74411  -0.74168
 Alpha  occ. eigenvalues --   -0.71790  -0.71634  -0.71232  -0.71218  -0.70627
 Alpha  occ. eigenvalues --   -0.70320  -0.69536  -0.69445  -0.68810  -0.67676
 Alpha  occ. eigenvalues --   -0.67539  -0.67255  -0.66946  -0.66910  -0.66673
 Alpha  occ. eigenvalues --   -0.66368  -0.65219  -0.64507  -0.62623  -0.62322
 Alpha  occ. eigenvalues --   -0.62242  -0.61480  -0.61383  -0.60907  -0.60768
 Alpha  occ. eigenvalues --   -0.60566  -0.60122  -0.59932  -0.59483  -0.59290
 Alpha  occ. eigenvalues --   -0.58380  -0.57904  -0.57896  -0.57685  -0.57475
 Alpha  occ. eigenvalues --   -0.57065  -0.56943  -0.56904  -0.56543  -0.56367
 Alpha  occ. eigenvalues --   -0.55945  -0.55622  -0.55457  -0.55149  -0.55119
 Alpha  occ. eigenvalues --   -0.54930  -0.54749  -0.54306  -0.54198  -0.54083
 Alpha  occ. eigenvalues --   -0.53998  -0.53906  -0.53698  -0.53563  -0.53452
 Alpha  occ. eigenvalues --   -0.53250  -0.53056  -0.52985  -0.52837  -0.52557
 Alpha  occ. eigenvalues --   -0.51988  -0.51824  -0.51780  -0.51570  -0.51491
 Alpha  occ. eigenvalues --   -0.51225  -0.51023  -0.50890  -0.50832  -0.50505
 Alpha  occ. eigenvalues --   -0.50490  -0.50483  -0.50465  -0.50395  -0.50269
 Alpha  occ. eigenvalues --   -0.50082  -0.49828  -0.49617  -0.49560  -0.49404
 Alpha  occ. eigenvalues --   -0.49308  -0.49238  -0.49174  -0.48907  -0.48801
 Alpha  occ. eigenvalues --   -0.48701  -0.48610  -0.48264  -0.48124  -0.48080
 Alpha  occ. eigenvalues --   -0.47831  -0.47771  -0.47523  -0.47510  -0.47326
 Alpha  occ. eigenvalues --   -0.47114  -0.46817  -0.46700  -0.46487  -0.46152
 Alpha  occ. eigenvalues --   -0.45942  -0.45852  -0.45551  -0.45416  -0.45288
 Alpha  occ. eigenvalues --   -0.45167  -0.45117  -0.44939  -0.44874  -0.44729
 Alpha  occ. eigenvalues --   -0.44610  -0.44299  -0.44288  -0.44074  -0.44064
 Alpha  occ. eigenvalues --   -0.44032  -0.44010  -0.43870  -0.43607  -0.43440
 Alpha  occ. eigenvalues --   -0.43395  -0.43141  -0.42883  -0.42689  -0.42627
 Alpha  occ. eigenvalues --   -0.42403  -0.41910  -0.41686  -0.41400  -0.41176
 Alpha  occ. eigenvalues --   -0.40795  -0.40165  -0.39846  -0.39754  -0.39522
 Alpha  occ. eigenvalues --   -0.39097  -0.38924  -0.38752  -0.38713  -0.38351
 Alpha  occ. eigenvalues --   -0.38308  -0.38269  -0.37096  -0.36624  -0.36290
 Alpha  occ. eigenvalues --   -0.36199  -0.35895  -0.35714  -0.34125  -0.33521
 Alpha  occ. eigenvalues --   -0.33421  -0.33303  -0.33123  -0.32963  -0.32898
 Alpha  occ. eigenvalues --   -0.32522  -0.32085  -0.31453  -0.26452  -0.26348
 Alpha  occ. eigenvalues --   -0.23376  -0.22760
 Alpha virt. eigenvalues --   -0.07295  -0.06830  -0.00462  -0.00159   0.01383
 Alpha virt. eigenvalues --    0.01807   0.03820   0.04228   0.04489   0.05060
 Alpha virt. eigenvalues --    0.06779   0.06939   0.07157   0.07449   0.07807

 Mulliken charges:
               1
     1  Mg   0.932668
     2  C   -0.005022
     3  C   -0.106005
     4  C   -0.037047
     5  C   -0.077712
     6  N   -0.442404
     7  C   -0.001248
     8  C   -0.039471
     9  C   -0.136084
    10  C    0.130733
    11  C    0.033365
    12  C    0.069929
    13  C   -0.138375
    14  H    0.000486
    15  N   -0.460877
    16  C    0.169058
    17  C   -0.150523
    18  C   -0.078081
    19  C    0.134083
    20  C    0.056677
    21  C    0.061878
    22  O   -0.237566
    23  C   -0.054746
    24  N   -0.260545
    25  C    0.017970
    26  C   -0.075304
    27  C   -0.047592
    28  C    0.027181
    29  C   -0.001706
    30  C   -0.063237
    31  C   -0.056293
    32  N   -0.406552
    33  C    0.141262
    34  C   -0.240983
    35  C   -0.006239
    36  C    0.119994
    37  C    0.082689
    38  C    0.139169
    39  O   -0.194731
    40  C   -0.109468
    41  C    0.275516
    42  O   -0.259082
    43  O   -0.369903
    44  C    0.139939
    45  H    0.001540
    46  H    0.024248
    47  H    0.003036
    48  H    0.030686
    49  H    0.027201
    50  H    0.043600
    51  H    0.045656
    52  H    0.050302
    53  H    0.039606
    54  H    0.041761
    55  H    0.043914
    56  H    0.061527
    57  H    0.055393
    58  H    0.062196
    59  H    0.016793
    60  H    0.079289
    61  H    0.051778
    62  H    0.041994
    63  H    0.050161
    64  H    0.039058
    65  H    0.042700
    66  H    0.048638
    67  H    0.040721
    68  H    0.041658
    69  H    0.020573
    70  H    0.044557
    71  H    0.039803
    72  H    0.038690
    73  H    0.047124
    74  H    0.040276
    75  H    0.066224
    76  H    0.068437
    77  H    0.059485
    78  H    0.056207
    79  H    0.059364
    80  Mg   0.957617
    81  C   -0.036435
    82  C   -0.091685
    83  C   -0.036326
    84  C   -0.103717
    85  N   -0.341094
    86  C   -0.037843
    87  C    0.005217
    88  C   -0.158282
    89  C    0.057961
    90  C    0.033625
    91  C    0.002439
    92  C   -0.150012
    93  H    0.026845
    94  N   -0.476200
    95  C    0.164557
    96  C   -0.173283
    97  C   -0.081401
    98  C    0.167476
    99  C    0.085868
   100  C    0.055585
   101  O   -0.240333
   102  C   -0.027211
   103  N   -0.273606
   104  C    0.045573
   105  C   -0.055726
   106  C   -0.126098
   107  C    0.077446
   108  C    0.014289
   109  C   -0.041884
   110  C   -0.039881
   111  N   -0.402046
   112  C    0.127088
   113  C   -0.186231
   114  C   -0.008825
   115  C    0.160747
   116  C    0.075245
   117  C    0.093793
   118  O   -0.218137
   119  C   -0.083225
   120  C    0.279591
   121  O   -0.209559
   122  O   -0.398011
   123  C    0.134875
   124  H   -0.010914
   125  H   -0.053767
   126  H    0.002663
   127  H    0.040918
   128  H    0.037043
   129  H    0.035416
   130  H    0.038134
   131  H    0.054848
   132  H    0.045304
   133  H    0.044633
   134  H    0.072966
   135  H    0.074353
   136  H    0.077717
   137  H    0.041052
   138  H    0.036940
   139  H    0.056577
   140  H    0.057190
   141  H    0.052445
   142  H    0.035521
   143  H    0.023181
   144  H    0.033248
   145  H    0.036013
   146  H    0.027135
   147  H    0.043318
   148  H    0.025256
   149  H    0.043759
   150  H    0.037829
   151  H    0.028132
   152  H    0.042834
   153  H    0.054947
   154  H    0.069735
   155  H    0.068810
   156  H    0.065901
   157  H    0.044855
   158  H    0.047220
 Sum of Mulliken charges =  -0.00000

 Dipole moment (field-independent basis, Debye):
    X=             -8.2820    Y=             -0.1299    Z=             -2.4095  Tot=              8.6264
 Quadrupole moment (field-independent basis, Debye-Ang):
   XX=           -595.4987   YY=           -503.0924   ZZ=           -503.2973
   XY=             10.1890   XZ=            110.2288   YZ=              9.2943

 Normal termination of Gaussian 16 at Sat Sep 18 13:18:13 2021.
