 Gaussian 16, Revision A.03,
 Gaussian 16:  ES64L-G16RevA.03 25-Dec-2016

 --------------------------------
 #p wB97XD/Def2SVP td=(nstates=5)
 --------------------------------

 --------------------------------
 TDDFT excited states in gaussian
 --------------------------------
 Symbolic Z-matrix:
 Charge =  0 Multiplicity = 1

                         Standard orientation:
 ---------------------------------------------------------------------
 Center     Atomic      Atomic             Coordinates (Angstroms)
 Number     Number       Type             X           Y           Z
 ---------------------------------------------------------------------
      1         12           0        4.825963    0.535857    0.124262
      2          6           0        2.674517   -2.070507    0.953330
      3          6           0        7.368263   -1.648688   -0.216175
      4          6           0        6.917516    3.168512   -0.222169
      5          6           0        2.307651    2.735689    0.966065
      6          7           0        4.970435   -1.661296    0.375271
      7          6           0        3.915278   -2.527304    0.510276
      8          6           0        4.383542   -3.929721    0.417185
      9          6           0        5.882469   -3.868079    0.101299
     10          6           0        6.151171   -2.302407    0.052182
     11          6           0        6.853276   -4.639022    0.982259
     12          6           0        3.508498   -4.780384   -0.667606
     13          6           0        2.703525   -5.994545   -0.147904
     14          1           0        2.618902   -7.268535   -0.952074
     15          7           0        6.828554    0.734778   -0.295612
     16          6           0        7.744812   -0.302132   -0.387971
     17          6           0        9.040287    0.227144   -0.614801
     18          6           0        8.942548    1.645044   -0.617598
     19          6           0        7.516848    1.904357   -0.392291
     20          6           0       10.216886   -0.779329   -0.923132
     21          6           0       10.119962    2.610014   -0.745665
     22          8           0       10.046914    3.845893   -0.670303
     23          6           0       11.452607    2.088463   -1.061211
     24          7           0        4.756429    2.671048    0.566845
     25          6           0        5.682749    3.547714    0.238466
     26          6           0        5.262508    4.977220    0.648387
     27          6           0        3.700561    4.777972    0.524093
     28          6           0        3.554259    3.266805    0.671813
     29          6           0        5.636254    5.549793    2.065688
     30          6           0        3.002803    5.314044   -0.816500
     31          6           0        3.451785    4.757186   -2.105062
     32          7           0        2.819403    0.454200    0.887521
     33          6           0        1.884115    1.467405    1.175699
     34          6           0        0.667777    0.872754    1.630328
     35          6           0        0.925564   -0.483629    1.631303
     36          6           0        2.225352   -0.692223    1.064164
     37          6           0       -0.453729    1.562171    2.238290
     38          6           0        0.321103   -1.726034    1.751616
     39          8           0       -0.816804   -2.056308    2.101081
     40          6           0        1.419774   -2.837040    1.423660
     41          6           0        1.714167   -3.500174    2.728514
     42          8           0        2.131595   -3.064412    3.780942
     43          8           0        1.381677   -4.779470    2.547080
     44          6           0        1.611592   -5.690738    3.715678
     45          1           0        8.040209   -2.455900   -0.515008
     46          1           0        7.593875    3.980436   -0.494872
     47          1           0        1.500080    3.442896    1.165368
     48          1           0        4.217053   -4.343290    1.411068
     49          1           0        6.042206   -4.218624   -0.918120
     50          1           0        7.095863   -3.808335    1.643942
     51          1           0        7.691394   -5.107874    0.466360
     52          1           0        6.486872   -5.452634    1.607675
     53          1           0        4.169140   -5.101774   -1.472272
     54          1           0        2.695562   -4.209859   -1.117462
     55          1           0        1.664039   -5.667772   -0.107554
     56          1           0        2.946537   -6.234293    0.886407
     57          1           0       11.043633   -0.558466   -0.248261
     58          1           0       10.454891   -0.396707   -1.915706
     59          1           0       10.042012   -1.844358   -0.770384
     60          1           0       11.773927    1.359793   -0.318261
     61          1           0       12.143240    2.900293   -0.834275
     62          1           0       11.592171    1.758718   -2.091041
     63          1           0        5.484857    5.647426   -0.182086
     64          1           0        3.304153    5.361059    1.354998
     65          1           0        5.560506    4.847527    2.894991
     66          1           0        4.944283    6.386834    2.165362
     67          1           0        6.662225    5.918727    2.074108
     68          1           0        3.114337    6.389017   -0.960355
     69          1           0        1.969391    4.974388   -0.885131
     70          1           0        2.909501    3.814725   -2.166970
     71          1           0        4.506539    4.518551   -2.244980
     72          1           0        3.199698    5.293655   -3.019215
     73          1           0       -0.142876    1.687491    3.276167
     74          1           0       -1.402618    1.027109    2.214069
     75          1           0       -0.716569    2.492385    1.733396
     76          1           0        1.123038   -3.516913    0.624952
     77          1           0        2.489527   -6.272225    3.433356
     78          1           0        0.723514   -6.298520    3.887457
     79          1           0        1.869262   -5.228703    4.669105
     80         12           0       -4.936493    0.596840   -0.071898
     81          6           0       -2.854910   -1.916929   -1.436590
     82          6           0       -7.344109   -1.632795    0.000887
     83          6           0       -6.984616    3.181213    0.169409
     84          6           0       -2.346533    2.868021   -0.944949
     85          7           0       -4.936342   -1.622066   -0.527896
     86          6           0       -4.036026   -2.427579   -0.960183
     87          6           0       -4.499902   -3.892872   -0.828937
     88          6           0       -6.107644   -3.763815   -0.822727
     89          6           0       -6.174316   -2.213566   -0.497982
     90          6           0       -6.853016   -4.148602   -2.161587
     91          6           0       -4.004631   -4.527544    0.573484
     92          6           0       -3.650851   -6.046628    0.675240
     93          1           0       -4.415793   -7.005611   -0.309681
     94          7           0       -6.877708    0.749647    0.276332
     95          6           0       -7.714359   -0.355075    0.328814
     96          6           0       -9.109081    0.124085    0.631152
     97          6           0       -8.975788    1.572889    0.715212
     98          6           0       -7.604352    1.972089    0.387728
     99          6           0      -10.270846   -0.846665    0.727918
    100          6           0      -10.057122    2.566108    1.079879
    101          8           0       -9.906978    3.795731    1.096800
    102          6           0      -11.380981    2.055246    1.482246
    103          7           0       -4.663247    2.806818   -0.254873
    104          6           0       -5.712770    3.601180   -0.145885
    105          6           0       -5.238627    5.114764    0.004800
    106          6           0       -3.674459    4.961527   -0.403837
    107          6           0       -3.539210    3.444670   -0.506408
    108          6           0       -6.068875    6.127314   -0.851365
    109          6           0       -2.601151    5.572114    0.555976
    110          6           0       -1.832117    6.766103    0.051583
    111          7           0       -2.880953    0.533118   -0.808266
    112          6           0       -2.004981    1.562014   -1.091876
    113          6           0       -0.846512    1.054042   -1.699400
    114          6           0       -1.159498   -0.305200   -1.889898
    115          6           0       -2.400780   -0.603533   -1.379678
    116          6           0        0.337045    1.772577   -2.114253
    117          6           0       -0.568160   -1.498520   -2.357316
    118          8           0        0.566427   -1.836524   -2.791650
    119          6           0       -1.764329   -2.552766   -2.329583
    120          6           0       -1.278507   -3.870735   -1.848668
    121          8           0       -0.815031   -4.147659   -0.744301
    122          8           0       -1.553604   -4.821877   -2.881256
    123          6           0       -1.148477   -6.211900   -2.636129
    124          1           0       -8.070223   -2.437441    0.137308
    125          1           0       -7.663442    4.023671    0.313025
    126          1           0       -1.526612    3.564302   -1.136538
    127          1           0       -4.299039   -4.376339   -1.784625
    128          1           0       -6.503163   -4.484930   -0.108246
    129          1           0       -6.162579   -4.243648   -2.999381
    130          1           0       -7.552860   -3.371841   -2.469248
    131          1           0       -7.341644   -5.102462   -1.963162
    132          1           0       -4.707696   -4.296617    1.373932
    133          1           0       -3.129527   -3.967298    0.903350
    134          1           0       -3.817113   -6.470530    1.666097
    135          1           0       -2.636972   -6.154876    0.287971
    136          1           0      -10.908529   -0.640157    1.588215
    137          1           0       -9.956150   -1.889101    0.777327
    138          1           0      -10.799973   -0.869620   -0.224442
    139          1           0      -11.822095    1.442657    0.695448
    140          1           0      -12.044171    2.889157    1.712380
    141          1           0      -11.398917    1.458213    2.394022
    142          1           0       -5.242428    5.455131    1.040224
    143          1           0       -3.490197    5.252856   -1.438945
    144          1           0       -6.775021    5.595345   -1.489166
    145          1           0       -5.266936    6.696049   -1.322477
    146          1           0       -6.525942    6.826451   -0.152278
    147          1           0       -1.868396    4.790858    0.759198
    148          1           0       -3.068131    5.822221    1.508803
    149          1           0       -2.356658    7.029896   -0.865812
    150          1           0       -0.831424    6.425871   -0.217302
    151          1           0       -1.869229    7.621792    0.724627
    152          1           0        0.666349    2.355322   -1.254394
    153          1           0        0.177470    2.593261   -2.813681
    154          1           0        1.115115    1.063824   -2.398370
    155          1           0       -2.156175   -2.645811   -3.342954
    156          1           0       -1.324794   -6.826708   -3.519140
    157          1           0       -1.835057   -6.647964   -1.910249
    158          1           0       -0.080404   -6.240665   -2.423099
 ---------------------------------------------------------------------

 SCF Done:  E(RwB97XD) =  -4070.58161583     A.U. after   20 cycles

 Excitation energies and oscillator strengths:

 Excited State   1:      Singlet-A      1.6150 eV  767.68 nm  f=0.7494  <S**2>=0.000
     310 -> 316        0.15559
     311 -> 313       -0.14933
     311 -> 314       -0.20720
     312 -> 313       -0.43746
     312 -> 314        0.46147
     310 <- 316        0.10219
 This state for optimization and/or second-order correction.
 Total Energy, E(TD-HF/TD-DFT) =  -4070.52226386
 Copying the excited state density for this state as the 1-particle RhoCI density.

 Excited State   2:      Singlet-A      1.7406 eV  712.29 nm  f=0.1344  <S**2>=0.000
     309 -> 315       -0.20031
     311 -> 313        0.54103
     311 -> 314        0.29495
     312 -> 314        0.26718
     309 <- 315       -0.10978

 Excited State   3:      Singlet-A      2.0841 eV  594.90 nm  f=0.0866  <S**2>=0.000
     309 -> 314       -0.11499
     310 -> 313       -0.40713
     310 -> 314        0.48763
     312 -> 316       -0.24214

 Excited State   4:      Singlet-A      2.1561 eV  575.03 nm  f=0.0966  <S**2>=0.000
     309 -> 313        0.52445
     309 -> 314        0.31991
     310 -> 314        0.13681
     311 -> 315        0.29040

 Excited State   5:      Singlet-A      2.6106 eV  474.93 nm  f=0.0041  <S**2>=0.000
     311 -> 313       -0.12375
     312 -> 313        0.53342
     312 -> 314        0.42223

 The electronic state is 1-A.
 Alpha  occ. eigenvalues --  -46.95555 -46.95004 -19.29530 -19.29382 -19.25731
 Alpha  occ. eigenvalues --  -19.23953 -19.23759 -19.23226 -19.23152 -19.22577
 Alpha  occ. eigenvalues --  -14.46535 -14.46208 -14.45931 -14.45813 -14.44487
 Alpha  occ. eigenvalues --  -14.43704 -14.43055 -14.42867 -10.43600 -10.41491
 Alpha  occ. eigenvalues --  -10.39010 -10.38711 -10.38571 -10.37324 -10.35439
 Alpha  occ. eigenvalues --  -10.35027 -10.34955 -10.34824 -10.34771 -10.34711
 Alpha  occ. eigenvalues --  -10.34588 -10.34500 -10.34414 -10.34371 -10.34240
 Alpha  occ. eigenvalues --  -10.34165 -10.33734 -10.33575 -10.33187 -10.32895
 Alpha  occ. eigenvalues --  -10.32540 -10.32481 -10.32477 -10.32434 -10.32432
 Alpha  occ. eigenvalues --  -10.32357 -10.32264 -10.32258 -10.32214 -10.32017
 Alpha  occ. eigenvalues --  -10.31874 -10.31810 -10.31696 -10.31685 -10.31640
 Alpha  occ. eigenvalues --  -10.31545 -10.31540 -10.31518 -10.31284 -10.31210
 Alpha  occ. eigenvalues --  -10.31199 -10.31035 -10.30997 -10.30881 -10.30743
 Alpha  occ. eigenvalues --  -10.30615 -10.30477 -10.30372 -10.30321 -10.30294
 Alpha  occ. eigenvalues --  -10.30215 -10.30075 -10.30037 -10.30008 -10.29975
 Alpha  occ. eigenvalues --  -10.29708 -10.29663 -10.29609 -10.29488 -10.29469
 Alpha  occ. eigenvalues --  -10.29348 -10.29235 -10.29049 -10.28594 -10.28440
 Alpha  occ. eigenvalues --  -10.27965  -3.21472  -3.20869  -1.95061  -1.94604
 Alpha  occ. eigenvalues --   -1.94458  -1.94420  -1.93968  -1.93854  -1.18298
 Alpha  occ. eigenvalues --   -1.16546  -1.11556  -1.10872  -1.09969  -1.09743
 Alpha  occ. eigenvalues --   -1.09348  -1.08685  -1.07605  -1.07145  -1.06886
 Alpha  occ. eigenvalues --   -1.05600  -1.05438  -1.04756  -1.03975  -1.03411
 Alpha  occ. eigenvalues --   -0.94919  -0.93297  -0.91399  -0.90702  -0.90470
 Alpha  occ. eigenvalues --   -0.89868  -0.89694  -0.89651  -0.89436  -0.89333
 Alpha  occ. eigenvalues --   -0.88997  -0.88936  -0.88765  -0.88255  -0.86100
 Alpha  occ. eigenvalues --   -0.85892  -0.85882  -0.85764  -0.84608  -0.84290
 Alpha  occ. eigenvalues --   -0.83745  -0.83331  -0.83315  -0.82814  -0.82645
 Alpha  occ. eigenvalues --   -0.82009  -0.80857  -0.80125  -0.79639  -0.79013
 Alpha  occ. eigenvalues --   -0.78735  -0.78686  -0.77747  -0.77191  -0.77182
 Alpha  occ. eigenvalues --   -0.76740  -0.75141  -0.74844  -0.74187  -0.73016
 Alpha  occ. eigenvalues --   -0.70945  -0.70883  -0.70582  -0.70517  -0.69692
 Alpha  occ. eigenvalues --   -0.69013  -0.68945  -0.68262  -0.67787  -0.67519
 Alpha  occ. eigenvalues --   -0.67346  -0.67072  -0.66621  -0.66560  -0.66299
 Alpha  occ. eigenvalues --   -0.65366  -0.63465  -0.63255  -0.62465  -0.62062
 Alpha  occ. eigenvalues --   -0.61923  -0.61227  -0.61217  -0.60590  -0.60229
 Alpha  occ. eigenvalues --   -0.59953  -0.59724  -0.59599  -0.59411  -0.58994
 Alpha  occ. eigenvalues --   -0.58883  -0.57828  -0.57705  -0.57503  -0.56918
 Alpha  occ. eigenvalues --   -0.56887  -0.56513  -0.56422  -0.56201  -0.55977
 Alpha  occ. eigenvalues --   -0.55655  -0.55324  -0.55266  -0.55080  -0.55018
 Alpha  occ. eigenvalues --   -0.54696  -0.54530  -0.54360  -0.54288  -0.54185
 Alpha  occ. eigenvalues --   -0.54095  -0.53714  -0.53157  -0.53132  -0.53011
 Alpha  occ. eigenvalues --   -0.52687  -0.52469  -0.52426  -0.52249  -0.52033
 Alpha  occ. eigenvalues --   -0.51855  -0.51779  -0.51399  -0.51329  -0.51140
 Alpha  occ. eigenvalues --   -0.50819  -0.50813  -0.50652  -0.50578  -0.50501
 Alpha  occ. eigenvalues --   -0.50313  -0.50272  -0.49983  -0.49827  -0.49738
 Alpha  occ. eigenvalues --   -0.49671  -0.49567  -0.49428  -0.49051  -0.48934
 Alpha  occ. eigenvalues --   -0.48800  -0.48661  -0.48486  -0.48223  -0.48191
 Alpha  occ. eigenvalues --   -0.48036  -0.47913  -0.47703  -0.47439  -0.47336
 Alpha  occ. eigenvalues --   -0.47228  -0.46940  -0.46869  -0.46628  -0.46228
 Alpha  occ. eigenvalues --   -0.45997  -0.45895  -0.45820  -0.45723  -0.45591
 Alpha  occ. eigenvalues --   -0.45436  -0.45345  -0.45178  -0.45122  -0.44850
 Alpha  occ. eigenvalues --   -0.44641  -0.44440  -0.44336  -0.44160  -0.43816
 Alpha  occ. eigenvalues --   -0.43754  -0.43644  -0.43569  -0.43518  -0.43268
 Alpha  occ. eigenvalues --   -0.43228  -0.43121  -0.43023  -0.42928  -0.42735
 Alpha  occ. eigenvalues --   -0.42476  -0.42373  -0.42263  -0.42213  -0.41971
 Alpha  occ. eigenvalues --   -0.41957  -0.41202  -0.40978  -0.40658  -0.40401
 Alpha  occ. eigenvalues --   -0.40068  -0.39810  -0.39632  -0.39306  -0.39278
 Alpha  occ. eigenvalues --   -0.38971  -0.38446  -0.38319  -0.38225  -0.37646
 Alpha  occ. eigenvalues --   -0.37381  -0.37215  -0.36706  -0.36019  -0.35812
 Alpha  occ. eigenvalues --   -0.35576  -0.35376  -0.35077  -0.33950  -0.33157
 Alpha  occ. eigenvalues --   -0.33027  -0.32639  -0.32502  -0.32384  -0.32133
 Alpha  occ. eigenvalues --   -0.31719  -0.31487  -0.31153  -0.25971  -0.25195
 Alpha  occ. eigenvalues --   -0.23409  -0.22637
 Alpha virt. eigenvalues --   -0.07084  -0.06553  -0.00637   0.00871   0.01863
 Alpha virt. eigenvalues --    0.03025   0.04327   0.05014   0.05865   0.06140
 Alpha virt. eigenvalues --    0.06292   0.07965   0.08383   0.08465   0.08876

 Mulliken charges:
               1
     1  Mg   0.939116
     2  C    0.000601
     3  C   -0.073456
     4  C   -0.065499
     5  C   -0.104222
     6  N   -0.378646
     7  C    0.019564
     8  C   -0.070977
     9  C   -0.051316
    10  C   -0.018598
    11  C    0.003882
    12  C   -0.000203
    13  C   -0.142114
    14  H    0.024020
    15  N   -0.463579
    16  C    0.198145
    17  C   -0.182773
    18  C   -0.074986
    19  C    0.132029
    20  C    0.083393
    21  C    0.052142
    22  O   -0.249775
    23  C   -0.009275
    24  N   -0.297110
    25  C    0.020178
    26  C   -0.041495
    27  C   -0.111090
    28  C    0.097179
    29  C    0.042477
    30  C    0.011985
    31  C   -0.088099
    32  N   -0.408864
    33  C    0.097360
    34  C   -0.133965
    35  C    0.023763
    36  C    0.111099
    37  C    0.081600
    38  C    0.086098
    39  O   -0.231955
    40  C   -0.085978
    41  C    0.259758
    42  O   -0.249063
    43  O   -0.340754
    44  C    0.122394
    45  H   -0.007639
    46  H    0.012515
    47  H   -0.011785
    48  H    0.044905
    49  H    0.034297
    50  H    0.046705
    51  H    0.040199
    52  H    0.039606
    53  H    0.037963
    54  H    0.062546
    55  H    0.070863
    56  H    0.032281
    57  H    0.036551
    58  H    0.059927
    59  H    0.052475
    60  H    0.038464
    61  H    0.044442
    62  H    0.074801
    63  H    0.018436
    64  H    0.020721
    65  H    0.050212
    66  H    0.038576
    67  H    0.051234
    68  H    0.035530
    69  H    0.021683
    70  H    0.022049
    71  H    0.037970
    72  H    0.037903
    73  H    0.070190
    74  H    0.055693
    75  H    0.025049
    76  H    0.074626
    77  H    0.045555
    78  H    0.063739
    79  H    0.070572
    80  Mg   0.951926
    81  C    0.009640
    82  C   -0.091465
    83  C   -0.057990
    84  C   -0.103568
    85  N   -0.289657
    86  C   -0.071620
    87  C   -0.027520
    88  C   -0.151930
    89  C    0.046599
    90  C    0.020240
    91  C    0.011175
    92  C   -0.119098
    93  H   -0.010550
    94  N   -0.573456
    95  C    0.231381
    96  C   -0.156812
    97  C   -0.064220
    98  C    0.177495
    99  C    0.067550
   100  C    0.057212
   101  O   -0.243455
   102  C   -0.029457
   103  N   -0.281048
   104  C    0.041879
   105  C   -0.119023
   106  C   -0.080129
   107  C    0.020597
   108  C    0.039404
   109  C   -0.019596
   110  C   -0.036753
   111  N   -0.421510
   112  C    0.147543
   113  C   -0.145762
   114  C   -0.030642
   115  C    0.157751
   116  C    0.110532
   117  C    0.127956
   118  O   -0.257764
   119  C   -0.097908
   120  C    0.293461
   121  O   -0.237017
   122  O   -0.406865
   123  C    0.144043
   124  H   -0.006156
   125  H    0.018897
   126  H   -0.021132
   127  H    0.021976
   128  H    0.044684
   129  H    0.035845
   130  H    0.038670
   131  H    0.043884
   132  H    0.028924
   133  H    0.079045
   134  H    0.065353
   135  H    0.077408
   136  H    0.055998
   137  H    0.032098
   138  H    0.060447
   139  H    0.053694
   140  H    0.050679
   141  H    0.060399
   142  H    0.047874
   143  H    0.033432
   144  H    0.061956
   145  H    0.028568
   146  H    0.039367
   147  H    0.032128
   148  H    0.026128
   149  H    0.023218
   150  H    0.040517
   151  H    0.047083
   152  H    0.015013
   153  H    0.042188
   154  H    0.069280
   155  H    0.082393
   156  H    0.044605
   157  H    0.045727
   158  H    0.066400
 Sum of Mulliken charges =  -0.00000

 Dipole moment (field-independent basis, Debye):
    X=             -2.9872    Y=             -2.9900    Z=             -1.2830  Tot=              4.4169
 Quadrupole moment (field-independent basis, Debye-Ang):
   XX=           -476.6328   YY=           -474.0398   ZZ=           -518.0078
   XY=             -1.1362   XZ=             -4.6478   YZ=              0.4101

 Normal termination of Gaussian 16 at Sat Sep 18 19:24:08 2021.
