 Gaussian 16, Revision A.03,
 Gaussian 16:  ES64L-G16RevA.03 25-Dec-2016

 --------------------------------
 #p wB97XD/Def2SVP td=(nstates=5)
 --------------------------------

 --------------------------------
 TDDFT excited states in gaussian
 --------------------------------
 Symbolic Z-matrix:
 Charge =  0 Multiplicity = 1

                         Standard orientation:
 ---------------------------------------------------------------------
 Center     Atomic      Atomic             Coordinates (Angstroms)
 Number     Number       Type             X           Y           Z
 ---------------------------------------------------------------------
      1         12           0       24.660622   -0.804145    0.233761
      2          6           0       24.638034    2.420079   -1.059977
      3          6           0       24.469680    0.670377    3.367289
      4          6           0       25.194160   -3.897054    1.543529
      5          6           0       25.022260   -2.054446   -2.969653
      6          7           0       24.620667    1.311579    1.053108
      7          6           0       24.581312    2.497347    0.335459
      8          6           0       24.600346    3.791343    1.240491
      9          6           0       24.874098    3.130718    2.647016
     10          6           0       24.684851    1.596072    2.357371
     11          6           0       26.206038    3.340889    3.373150
     12          6           0       23.285131    4.579422    1.099880
     13          6           0       23.339969    5.875062    0.334069
     14          1           0       22.458125    7.024943    0.852422
     15          7           0       24.624487   -1.584201    2.154395
     16          6           0       24.454961   -0.800808    3.253137
     17          6           0       24.516651   -1.721518    4.405040
     18          6           0       24.820616   -3.009757    3.937884
     19          6           0       24.883304   -2.910453    2.531453
     20          6           0       24.164911   -1.263158    5.762085
     21          6           0       25.078291   -4.278359    4.696958
     22          8           0       25.233922   -5.401649    4.142333
     23          6           0       25.207664   -4.344734    6.118690
     24          7           0       24.962971   -2.668732   -0.570450
     25          6           0       25.129561   -3.805073    0.159976
     26          6           0       25.352587   -5.011550   -0.664236
     27          6           0       25.240587   -4.453403   -2.128392
     28          6           0       25.132046   -2.997280   -1.871993
     29          6           0       26.599097   -5.931963   -0.510660
     30          6           0       24.089028   -5.116831   -3.034047
     31          6           0       22.606563   -4.639550   -3.008758
     32          7           0       24.846118   -0.051634   -1.647623
     33          6           0       24.947751   -0.672804   -2.859050
     34          6           0       24.805873    0.258544   -3.891364
     35          6           0       24.770421    1.522082   -3.184970
     36          6           0       24.769632    1.261984   -1.829043
     37          6           0       24.705058   -0.008510   -5.392014
     38          6           0       24.580072    2.925423   -3.414955
     39          8           0       24.354853    3.606232   -4.394812
     40          6           0       24.723690    3.592813   -2.002302
     41          6           0       26.014042    4.304540   -1.912315
     42          8           0       26.982260    3.998812   -1.182015
     43          8           0       26.124564    5.369957   -2.735561
     44          6           0       27.280369    6.316896   -2.575185
     45          1           0       24.474216    1.142248    4.351412
     46          1           0       25.406831   -4.906769    1.901407
     47          1           0       24.959366   -2.380599   -4.010385
     48          1           0       25.528195    4.354099    1.132789
     49          1           0       24.057781    3.464833    3.287327
     50          1           0       26.778281    2.412954    3.384914
     51          1           0       25.957125    3.475212    4.424782
     52          1           0       26.827423    4.151703    2.991371
     53          1           0       23.008316    4.848923    2.119790
     54          1           0       22.520240    3.898184    0.727112
     55          1           0       23.030490    5.661378   -0.689335
     56          1           0       24.333011    6.307527    0.211028
     57          1           0       23.291124   -1.853003    6.035975
     58          1           0       23.944662   -0.209124    5.936076
     59          1           0       24.973275   -1.509515    6.450482
     60          1           0       25.845364   -3.502658    6.386379
     61          1           0       25.473515   -5.351931    6.436987
     62          1           0       24.269814   -4.087190    6.610903
     63          1           0       24.462685   -5.575287   -0.385805
     64          1           0       26.192529   -4.592214   -2.639521
     65          1           0       26.332666   -6.925009   -0.148649
     66          1           0       27.297493   -5.530031    0.224148
     67          1           0       27.188000   -6.019769   -1.423596
     68          1           0       24.072798   -6.141042   -2.660842
     69          1           0       24.560243   -5.070335   -4.015944
     70          1           0       22.420889   -3.719991   -2.454349
     71          1           0       21.861844   -5.401365   -2.776509
     72          1           0       22.384347   -4.454978   -4.058964
     73          1           0       25.473123    0.524746   -5.953185
     74          1           0       23.752585    0.397173   -5.732679
     75          1           0       24.685767   -1.064022   -5.664623
     76          1           0       23.996987    4.403900   -1.952930
     77          1           0       26.865953    7.128387   -3.173549
     78          1           0       28.234824    5.949137   -2.950407
     79          1           0       27.402658    6.572161   -1.522120
     80         12           0      -25.443660   -0.386556   -0.447619
     81          6           0      -23.274331    2.342719   -0.188373
     82          6           0      -27.475179    1.148199    1.881371
     83          6           0      -27.210597   -3.289475   -0.128147
     84          6           0      -23.002302   -2.060481   -2.245041
     85          7           0      -25.378231    1.536150    0.594374
     86          6           0      -24.528959    2.548578    0.377484
     87          6           0      -24.965088    3.892147    0.979980
     88          6           0      -26.233581    3.461977    1.812017
     89          6           0      -26.477676    1.920500    1.343624
     90          6           0      -26.149685    3.594485    3.347952
     91          6           0      -25.231360    4.994395   -0.045435
     92          6           0      -25.032807    6.412357    0.520283
     93          1           0      -24.632288    6.584459    1.992310
     94          7           0      -27.166144   -0.974503    0.613266
     95          6           0      -27.917574   -0.161776    1.493151
     96          6           0      -29.058836   -0.925973    1.955264
     97          6           0      -28.965265   -2.266524    1.424712
     98          6           0      -27.778058   -2.222979    0.572487
     99          6           0      -30.144314   -0.280352    2.771832
    100          6           0      -29.973584   -3.496661    1.536094
    101          8           0      -29.844372   -4.528481    0.923114
    102          6           0      -31.136908   -3.325481    2.488685
    103          7           0      -25.105863   -2.389510   -1.006485
    104          6           0      -25.985610   -3.413063   -0.807802
    105          6           0      -25.497479   -4.755558   -1.466687
    106          6           0      -24.220133   -4.295267   -2.167179
    107          6           0      -24.106819   -2.834164   -1.774813
    108          6           0      -25.359224   -6.087514   -0.624672
    109          6           0      -24.321169   -4.485915   -3.698765
    110          6           0      -25.049851   -3.413113   -4.538124
    111          7           0      -23.558412    0.033415   -1.258357
    112          6           0      -22.675897   -0.738836   -1.968262
    113          6           0      -21.500421   -0.006316   -2.301429
    114          6           0      -21.676580    1.268363   -1.596897
    115          6           0      -22.875580    1.204868   -1.000869
    116          6           0      -20.326109   -0.360731   -3.101570
    117          6           0      -21.035729    2.516212   -1.205535
    118          8           0      -19.965173    3.009544   -1.576137
    119          6           0      -22.023893    3.288611   -0.282747
    120          6           0      -21.425323    3.583769    1.015028
    121          8           0      -21.289182    2.794425    1.943814
    122          8           0      -20.828456    4.818476    0.964401
    123          6           0      -19.813558    5.182263    1.972230
    124          1           0      -28.041511    1.697043    2.636955
    125          1           0      -27.860543   -4.165252   -0.182728
    126          1           0      -22.272809   -2.550949   -2.892852
    127          1           0      -24.263381    4.238174    1.738571
    128          1           0      -27.157292    3.920368    1.460646
    129          1           0      -27.047418    4.181710    3.540379
    130          1           0      -25.254177    4.142947    3.639136
    131          1           0      -26.143492    2.610390    3.816745
    132          1           0      -26.227722    4.918255   -0.479148
    133          1           0      -24.554282    4.889463   -0.893594
    134          1           0      -26.016131    6.841724    0.327291
    135          1           0      -24.369149    7.010889   -0.105388
    136          1           0      -29.755300    0.699830    3.047776
    137          1           0      -30.346772   -0.899279    3.646186
    138          1           0      -31.085209   -0.180381    2.228622
    139          1           0      -30.921022   -3.398427    3.555095
    140          1           0      -31.910237   -4.035903    2.196533
    141          1           0      -31.478957   -2.320499    2.241719
    142          1           0      -26.311510   -4.943093   -2.166520
    143          1           0      -23.411272   -4.896866   -1.754115
    144          1           0      -24.415396   -6.614780   -0.758429
    145          1           0      -26.125546   -6.782537   -0.966410
    146          1           0      -25.568885   -5.842143    0.416876
    147          1           0      -24.794303   -5.457605   -3.835146
    148          1           0      -23.287476   -4.584607   -4.031487
    149          1           0      -25.630836   -3.984144   -5.261886
    150          1           0      -24.372865   -2.777137   -5.108034
    151          1           0      -25.644339   -2.711928   -3.953503
    152          1           0      -20.069227    0.505383   -3.710454
    153          1           0      -20.440373   -1.232211   -3.746289
    154          1           0      -19.450418   -0.444944   -2.457752
    155          1           0      -22.262906    4.188236   -0.849691
    156          1           0      -19.683278    4.404144    2.725137
    157          1           0      -20.164112    6.078082    2.485384
    158          1           0      -18.937161    5.317209    1.339318
 ---------------------------------------------------------------------

 SCF Done:  E(RwB97XD) =  -4070.62772671     A.U. after   17 cycles

 Excitation energies and oscillator strengths:

 Excited State   1:      Singlet-A      1.6445 eV  753.93 nm  f=0.3802  <S**2>=0.000
     309 -> 316        0.18303
     312 -> 314        0.68253
     309 <- 316        0.11718
 This state for optimization and/or second-order correction.
 Total Energy, E(TD-HF/TD-DFT) =  -4070.56729205
 Copying the excited state density for this state as the 1-particle RhoCI density.

 Excited State   2:      Singlet-A      1.6570 eV  748.23 nm  f=0.4158  <S**2>=0.000
     310 -> 315       -0.18732
     311 -> 313        0.68173
     310 <- 315       -0.11633

 Excited State   3:      Singlet-A      2.0777 eV  596.73 nm  f=0.1511  <S**2>=0.000
     310 -> 313        0.65642
     311 -> 315        0.23988

 Excited State   4:      Singlet-A      2.1515 eV  576.27 nm  f=0.1379  <S**2>=0.000
     309 -> 314        0.64865
     312 -> 316       -0.26452

 Excited State   5:      Singlet-A      3.1038 eV  399.46 nm  f=0.0053  <S**2>=0.000
     306 -> 313       -0.12860
     308 -> 313        0.67536

 The electronic state is 1-A.
 Alpha  occ. eigenvalues --  -46.94594 -46.93863 -19.29247 -19.29117 -19.24962
 Alpha  occ. eigenvalues --  -19.23927 -19.23767 -19.23256 -19.23179 -19.22982
 Alpha  occ. eigenvalues --  -14.46880 -14.46594 -14.46465 -14.46435 -14.44136
 Alpha  occ. eigenvalues --  -14.44065 -14.42932 -14.42779 -10.42511 -10.42342
 Alpha  occ. eigenvalues --  -10.40165 -10.39110 -10.38453 -10.38169 -10.35736
 Alpha  occ. eigenvalues --  -10.34987 -10.34923 -10.34913 -10.34892 -10.34779
 Alpha  occ. eigenvalues --  -10.34715 -10.34661 -10.34654 -10.34472 -10.34383
 Alpha  occ. eigenvalues --  -10.34117 -10.34067 -10.33901 -10.32860 -10.32846
 Alpha  occ. eigenvalues --  -10.32829 -10.32717 -10.32521 -10.32496 -10.32297
 Alpha  occ. eigenvalues --  -10.32271 -10.32254 -10.32204 -10.32152 -10.31868
 Alpha  occ. eigenvalues --  -10.31848 -10.31811 -10.31711 -10.31698 -10.31694
 Alpha  occ. eigenvalues --  -10.31693 -10.31460 -10.31404 -10.31337 -10.31311
 Alpha  occ. eigenvalues --  -10.31159 -10.31107 -10.31073 -10.30934 -10.30926
 Alpha  occ. eigenvalues --  -10.30880 -10.30819 -10.30798 -10.30782 -10.30759
 Alpha  occ. eigenvalues --  -10.30644 -10.30280 -10.30193 -10.30179 -10.29974
 Alpha  occ. eigenvalues --  -10.29942 -10.29837 -10.29835 -10.29766 -10.29699
 Alpha  occ. eigenvalues --  -10.29664 -10.29517 -10.29499 -10.29296 -10.28800
 Alpha  occ. eigenvalues --  -10.28639  -3.20556  -3.19991  -1.94146  -1.93676
 Alpha  occ. eigenvalues --   -1.93596  -1.93534  -1.93125  -1.92970  -1.17271
 Alpha  occ. eigenvalues --   -1.17257  -1.13804  -1.11744  -1.11105  -1.10132
 Alpha  occ. eigenvalues --   -1.08835  -1.07241  -1.06865  -1.06447  -1.06099
 Alpha  occ. eigenvalues --   -1.05328  -1.05235  -1.04478  -1.04266  -1.03060
 Alpha  occ. eigenvalues --   -0.95052  -0.94055  -0.91034  -0.90869  -0.90647
 Alpha  occ. eigenvalues --   -0.90317  -0.90187  -0.90075  -0.89520  -0.89020
 Alpha  occ. eigenvalues --   -0.88914  -0.88393  -0.88030  -0.88029  -0.86263
 Alpha  occ. eigenvalues --   -0.86125  -0.85546  -0.85328  -0.84715  -0.84326
 Alpha  occ. eigenvalues --   -0.84223  -0.83875  -0.82952  -0.82909  -0.82479
 Alpha  occ. eigenvalues --   -0.82134  -0.80506  -0.80095  -0.79406  -0.79046
 Alpha  occ. eigenvalues --   -0.78758  -0.78751  -0.78115  -0.77826  -0.77215
 Alpha  occ. eigenvalues --   -0.76963  -0.75073  -0.74422  -0.73298  -0.73071
 Alpha  occ. eigenvalues --   -0.72006  -0.71731  -0.70706  -0.70415  -0.69949
 Alpha  occ. eigenvalues --   -0.69653  -0.69088  -0.68068  -0.67117  -0.67002
 Alpha  occ. eigenvalues --   -0.66712  -0.66626  -0.66606  -0.66444  -0.66351
 Alpha  occ. eigenvalues --   -0.65733  -0.63458  -0.63395  -0.61940  -0.61779
 Alpha  occ. eigenvalues --   -0.61590  -0.61126  -0.61077  -0.61035  -0.60571
 Alpha  occ. eigenvalues --   -0.60280  -0.59707  -0.59659  -0.59401  -0.59273
 Alpha  occ. eigenvalues --   -0.58134  -0.57819  -0.57540  -0.57382  -0.57117
 Alpha  occ. eigenvalues --   -0.56856  -0.56611  -0.56327  -0.55754  -0.55621
 Alpha  occ. eigenvalues --   -0.55274  -0.55171  -0.54823  -0.54789  -0.54616
 Alpha  occ. eigenvalues --   -0.54435  -0.54361  -0.54249  -0.54056  -0.53945
 Alpha  occ. eigenvalues --   -0.53894  -0.53792  -0.53547  -0.52987  -0.52777
 Alpha  occ. eigenvalues --   -0.52735  -0.52581  -0.52276  -0.52176  -0.52074
 Alpha  occ. eigenvalues --   -0.51699  -0.51621  -0.51551  -0.51517  -0.51350
 Alpha  occ. eigenvalues --   -0.51311  -0.50970  -0.50911  -0.50892  -0.50699
 Alpha  occ. eigenvalues --   -0.50447  -0.50342  -0.50147  -0.50076  -0.50030
 Alpha  occ. eigenvalues --   -0.49816  -0.49688  -0.49551  -0.49156  -0.49049
 Alpha  occ. eigenvalues --   -0.48678  -0.48675  -0.48443  -0.48190  -0.48144
 Alpha  occ. eigenvalues --   -0.48037  -0.47903  -0.47784  -0.47592  -0.47561
 Alpha  occ. eigenvalues --   -0.47288  -0.47193  -0.47166  -0.47071  -0.46938
 Alpha  occ. eigenvalues --   -0.46684  -0.46566  -0.46239  -0.46158  -0.45882
 Alpha  occ. eigenvalues --   -0.45881  -0.45802  -0.45682  -0.45593  -0.45334
 Alpha  occ. eigenvalues --   -0.45323  -0.45151  -0.44983  -0.44821  -0.44741
 Alpha  occ. eigenvalues --   -0.44673  -0.44659  -0.44378  -0.44272  -0.43922
 Alpha  occ. eigenvalues --   -0.43503  -0.43408  -0.43394  -0.43016  -0.43013
 Alpha  occ. eigenvalues --   -0.42797  -0.42672  -0.42515  -0.42219  -0.42155
 Alpha  occ. eigenvalues --   -0.41992  -0.41819  -0.41576  -0.40810  -0.40433
 Alpha  occ. eigenvalues --   -0.40304  -0.40117  -0.39792  -0.39748  -0.39599
 Alpha  occ. eigenvalues --   -0.38830  -0.38775  -0.38523  -0.38372  -0.38048
 Alpha  occ. eigenvalues --   -0.37691  -0.37591  -0.36312  -0.36288  -0.35743
 Alpha  occ. eigenvalues --   -0.35506  -0.35432  -0.34741  -0.33563  -0.33198
 Alpha  occ. eigenvalues --   -0.33102  -0.32796  -0.32530  -0.32141  -0.31911
 Alpha  occ. eigenvalues --   -0.31792  -0.31470  -0.30838  -0.25537  -0.25422
 Alpha  occ. eigenvalues --   -0.23109  -0.22900
 Alpha virt. eigenvalues --   -0.07274  -0.07029   0.00618   0.00627   0.02648
 Alpha virt. eigenvalues --    0.02768   0.04476   0.04594   0.05682   0.06650
 Alpha virt. eigenvalues --    0.07445   0.07508   0.07776   0.08103   0.08435

 Mulliken charges:
               1
     1  Mg   0.984012
     2  C   -0.026251
     3  C   -0.065013
     4  C   -0.072293
     5  C   -0.099255
     6  N   -0.335636
     7  C   -0.019334
     8  C   -0.046060
     9  C   -0.130705
    10  C    0.025575
    11  C    0.037447
    12  C    0.055327
    13  C   -0.144156
    14  H    0.038428
    15  N   -0.481650
    16  C    0.183391
    17  C   -0.191659
    18  C   -0.022575
    19  C    0.131643
    20  C    0.056878
    21  C    0.038504
    22  O   -0.281134
    23  C    0.024559
    24  N   -0.375293
    25  C    0.076292
    26  C   -0.094233
    27  C   -0.055049
    28  C    0.063586
    29  C    0.027620
    30  C   -0.032307
    31  C   -0.043696
    32  N   -0.452684
    33  C    0.130547
    34  C   -0.169492
    35  C   -0.056376
    36  C    0.215919
    37  C    0.092242
    38  C    0.091513
    39  O   -0.190069
    40  C   -0.123703
    41  C    0.263091
    42  O   -0.290772
    43  O   -0.356955
    44  C    0.146651
    45  H   -0.009023
    46  H    0.021579
    47  H   -0.013521
    48  H    0.038454
    49  H    0.026782
    50  H    0.047589
    51  H    0.032124
    52  H    0.052275
    53  H    0.035800
    54  H    0.047029
    55  H    0.065149
    56  H    0.052643
    57  H    0.057302
    58  H    0.043328
    59  H    0.035672
    60  H    0.042633
    61  H    0.066619
    62  H    0.043740
    63  H    0.047302
    64  H    0.036172
    65  H    0.044662
    66  H    0.039197
    67  H    0.036225
    68  H    0.035240
    69  H    0.040152
    70  H    0.056364
    71  H    0.040430
    72  H    0.028979
    73  H    0.060701
    74  H    0.053791
    75  H    0.024495
    76  H    0.056515
    77  H    0.066041
    78  H    0.067009
    79  H    0.053675
    80  Mg   0.960130
    81  C   -0.000873
    82  C   -0.090224
    83  C   -0.073932
    84  C   -0.087072
    85  N   -0.357070
    86  C   -0.011358
    87  C   -0.047814
    88  C   -0.148982
    89  C    0.067828
    90  C    0.032171
    91  C    0.017161
    92  C   -0.110759
    93  H    0.046844
    94  N   -0.477842
    95  C    0.165631
    96  C   -0.178457
    97  C   -0.089924
    98  C    0.129239
    99  C    0.057126
   100  C    0.082267
   101  O   -0.208415
   102  C   -0.022515
   103  N   -0.338002
   104  C    0.039828
   105  C   -0.081595
   106  C   -0.049259
   107  C    0.051154
   108  C    0.022580
   109  C   -0.042534
   110  C   -0.033388
   111  N   -0.449980
   112  C    0.142136
   113  C   -0.165004
   114  C   -0.034730
   115  C    0.132303
   116  C    0.085483
   117  C    0.094063
   118  O   -0.220688
   119  C   -0.058895
   120  C    0.274323
   121  O   -0.254779
   122  O   -0.379411
   123  C    0.128350
   124  H    0.001343
   125  H    0.020124
   126  H   -0.015912
   127  H    0.038847
   128  H    0.031194
   129  H    0.040101
   130  H    0.043102
   131  H    0.055436
   132  H    0.031064
   133  H    0.031047
   134  H    0.040495
   135  H    0.054362
   136  H    0.029106
   137  H    0.047911
   138  H    0.067787
   139  H    0.082039
   140  H    0.053804
   141  H    0.031783
   142  H    0.039754
   143  H    0.036107
   144  H    0.039817
   145  H    0.035662
   146  H    0.050971
   147  H    0.030132
   148  H    0.031110
   149  H    0.040368
   150  H    0.037228
   151  H    0.046617
   152  H    0.052942
   153  H    0.034605
   154  H    0.057843
   155  H    0.073260
   156  H    0.066877
   157  H    0.054432
   158  H    0.073531
 Sum of Mulliken charges =  -0.00000

 Dipole moment (field-independent basis, Debye):
    X=             -4.2878    Y=              0.7717    Z=              2.6538  Tot=              5.1013
 Quadrupole moment (field-independent basis, Debye-Ang):
   XX=           -357.2366   YY=           -488.0497   ZZ=           -484.6263
   XY=            -36.1721   XZ=             63.5109   YZ=             46.4989

 Normal termination of Gaussian 16 at Sat Sep 18 20:32:46 2021.
