 Gaussian 16, Revision A.03,
 Gaussian 16:  ES64L-G16RevA.03 25-Dec-2016

 --------------------------------
 #p wB97XD/Def2SVP td=(nstates=5)
 --------------------------------

 --------------------------------
 TDDFT excited states in gaussian
 --------------------------------
 Symbolic Z-matrix:
 Charge =  0 Multiplicity = 1

                         Standard orientation:
 ---------------------------------------------------------------------
 Center     Atomic      Atomic             Coordinates (Angstroms)
 Number     Number       Type             X           Y           Z
 ---------------------------------------------------------------------
      1         12           0      -26.763250   -0.807039    0.105165
      2          6           0      -27.957944    2.565054   -0.012753
      3          6           0      -25.085717   -0.156683   -2.794143
      4          6           0      -26.065374   -3.896284   -0.056568
      5          6           0      -29.378741   -1.500799    2.301426
      6          7           0      -26.617003    1.012549   -1.147174
      7          6           0      -27.074894    2.256759   -1.049971
      8          6           0      -26.468315    3.222981   -2.111033
      9          6           0      -26.062664    2.153985   -3.222201
     10          6           0      -25.875654    0.937765   -2.332391
     11          6           0      -27.176062    1.863527   -4.223440
     12          6           0      -25.215243    3.989861   -1.569335
     13          6           0      -24.762104    5.182206   -2.416879
     14          1           0      -24.223079    6.354713   -1.744549
     15          7           0      -25.368642   -1.753198   -0.925710
     16          6           0      -24.786516   -1.333997   -2.074922
     17          6           0      -23.815446   -2.385315   -2.446987
     18          6           0      -24.015890   -3.537034   -1.524241
     19          6           0      -25.190686   -3.113252   -0.806160
     20          6           0      -22.802565   -2.220899   -3.538221
     21          6           0      -23.273607   -4.821175   -1.328977
     22          8           0      -23.750429   -5.783783   -0.635722
     23          6           0      -21.996637   -4.958391   -2.052552
     24          7           0      -27.722875   -2.518800    0.816944
     25          6           0      -27.177836   -3.730356    0.661863
     26          6           0      -27.890135   -4.759414    1.488669
     27          6           0      -28.890690   -3.951030    2.434797
     28          6           0      -28.621548   -2.523542    1.898038
     29          6           0      -28.674262   -5.821404    0.705513
     30          6           0      -28.772574   -4.200199    3.959389
     31          6           0      -27.452308   -3.664344    4.466199
     32          7           0      -28.285338    0.342185    1.141300
     33          6           0      -29.286017   -0.154864    1.988800
     34          6           0      -30.141409    0.986360    2.362940
     35          6           0      -29.585091    2.072084    1.689473
     36          6           0      -28.469614    1.631874    0.921217
     37          6           0      -31.305587    0.923105    3.178490
     38          6           0      -29.688374    3.497201    1.420714
     39          8           0      -30.379934    4.415316    1.863777
     40          6           0      -28.713407    3.851178    0.212424
     41          6           0      -27.924759    5.070095    0.606869
     42          8           0      -27.093392    5.021021    1.536271
     43          8           0      -28.096621    6.028686   -0.316228
     44          6           0      -27.317361    7.255496   -0.000247
     45          1           0      -24.709962   -0.141028   -3.819083
     46          1           0      -25.794346   -4.952423    0.003037
     47          1           0      -30.163087   -1.625565    3.050217
     48          1           0      -27.174030    3.942454   -2.526662
     49          1           0      -25.124352    2.412701   -3.712464
     50          1           0      -28.109858    2.343712   -3.931263
     51          1           0      -27.289949    0.779314   -4.225664
     52          1           0      -26.868822    2.134611   -5.233833
     53          1           0      -24.336094    3.352122   -1.661250
     54          1           0      -25.378369    4.318746   -0.542422
     55          1           0      -25.527341    5.472980   -3.137137
     56          1           0      -23.919236    4.864287   -3.030638
     57          1           0      -23.007111   -1.339736   -4.145063
     58          1           0      -22.933399   -3.058606   -4.222939
     59          1           0      -21.782449   -2.216065   -3.153941
     60          1           0      -22.176849   -4.857078   -3.122977
     61          1           0      -21.564101   -5.902339   -1.722817
     62          1           0      -21.341625   -4.132885   -1.772466
     63          1           0      -27.188577   -5.319090    2.105925
     64          1           0      -29.934434   -4.171252    2.209464
     65          1           0      -28.371748   -6.844222    0.931417
     66          1           0      -28.563771   -5.606536   -0.356990
     67          1           0      -29.756194   -5.771549    0.825326
     68          1           0      -28.787596   -5.268770    4.171231
     69          1           0      -29.574208   -3.736759    4.534591
     70          1           0      -26.760524   -4.477835    4.250564
     71          1           0      -27.506323   -3.471594    5.538179
     72          1           0      -27.126595   -2.798209    3.889826
     73          1           0      -31.249657    1.774632    3.856532
     74          1           0      -31.354271   -0.017381    3.726870
     75          1           0      -32.086383    1.006678    2.422692
     76          1           0      -29.344815    4.035513   -0.656177
     77          1           0      -28.022878    8.086035    0.025919
     78          1           0      -26.506347    7.303245   -0.727146
     79          1           0      -26.894637    7.312872    1.003423
     80         12           0       27.629347    0.312209    0.173252
     81          6           0       24.419477   -0.148653   -1.034171
     82          6           0       26.361939    0.530236    3.384155
     83          6           0       30.783045   -0.007310    1.333827
     84          6           0       28.733250   -0.278969   -3.123648
     85          7           0       25.628020   -0.084666    1.098165
     86          6           0       24.507313   -0.052525    0.371666
     87          6           0       23.263487   -0.203535    1.301064
     88          6           0       23.866785    0.292771    2.698976
     89          6           0       25.410962    0.328706    2.382945
     90          6           0       23.218190    1.604155    3.204055
     91          6           0       22.847960   -1.654031    1.394951
     92          6           0       21.348747   -1.908495    1.380190
     93          1           0       20.665140   -3.030229    2.249399
     94          7           0       28.443434    0.448872    2.142348
     95          6           0       27.797544    0.460411    3.321099
     96          6           0       28.782292    0.551998    4.349712
     97          6           0       30.088470    0.577417    3.773398
     98          6           0       29.836928    0.370324    2.341865
     99          6           0       28.408935    0.800107    5.764407
    100          6           0       31.349456    0.578391    4.562277
    101          8           0       31.311784    0.662371    5.778603
    102          6           0       32.714743    0.546238    3.885861
    103          7           0       29.572727   -0.018488   -0.836902
    104          6           0       30.684648   -0.173168   -0.064914
    105          6           0       31.827422   -0.682086   -0.882028
    106          6           0       31.141313   -0.771732   -2.326528
    107          6           0       29.728335   -0.270191   -2.160004
    108          6           0       33.108151    0.169720   -0.802916
    109          6           0       31.207401   -2.192643   -3.043176
    110          6           0       31.740106   -2.319391   -4.489820
    111          7           0       26.806394   -0.093451   -1.681182
    112          6           0       27.362561   -0.232333   -2.913919
    113          6           0       26.381643   -0.109301   -3.898903
    114          6           0       25.162943   -0.046568   -3.237649
    115          6           0       25.467163   -0.114924   -1.901178
    116          6           0       26.653389   -0.186180   -5.429926
    117          6           0       23.786590    0.062795   -3.376038
    118          8           0       23.125633    0.025031   -4.407960
    119          6           0       23.128896   -0.038050   -1.916117
    120          6           0       22.460489    1.158634   -1.551300
    121          8           0       22.901040    2.247917   -1.176502
    122          8           0       21.100742    0.890394   -1.675371
    123          6           0       20.110761    1.911425   -1.378239
    124          1           0       25.962232    0.755486    4.374857
    125          1           0       31.845843   -0.125235    1.557285
    126          1           0       29.185867   -0.365092   -4.113795
    127          1           0       22.459477    0.401096    0.882353
    128          1           0       23.830297   -0.456289    3.489309
    129          1           0       22.533282    2.026205    2.468875
    130          1           0       23.998650    2.327654    3.441856
    131          1           0       22.712495    1.378009    4.142512
    132          1           0       23.249602   -2.242465    2.220142
    133          1           0       23.367111   -2.136557    0.566869
    134          1           0       21.066917   -2.021308    0.333453
    135          1           0       20.970081   -0.938894    1.703543
    136          1           0       28.546126    1.876935    5.861222
    137          1           0       29.042791    0.238015    6.450517
    138          1           0       27.378069    0.527587    5.990828
    139          1           0       32.884895   -0.496755    3.618381
    140          1           0       33.437327    0.746712    4.676549
    141          1           0       32.741560    1.227496    3.035507
    142          1           0       31.964489   -1.660369   -0.422429
    143          1           0       31.672132   -0.165220   -3.060360
    144          1           0       33.806683   -0.400834   -0.189960
    145          1           0       32.931955    1.165749   -0.395422
    146          1           0       33.549750    0.249320   -1.795974
    147          1           0       30.199929   -2.607697   -3.068142
    148          1           0       31.853213   -2.899976   -2.522413
    149          1           0       30.805758   -2.189486   -5.035760
    150          1           0       32.113346   -3.326820   -4.669268
    151          1           0       32.351001   -1.526280   -4.920757
    152          1           0       26.858317   -1.223635   -5.691005
    153          1           0       27.535559    0.344686   -5.788303
    154          1           0       25.783467    0.146611   -5.996809
    155          1           0       22.491426   -0.921990   -1.941002
    156          1           0       19.256000    1.722470   -2.026955
    157          1           0       20.476976    2.937845   -1.412234
    158          1           0       19.726674    1.712127   -0.377710
 ---------------------------------------------------------------------

 SCF Done:  E(RwB97XD) =  -4070.59154280     A.U. after   20 cycles

 Excitation energies and oscillator strengths:

 Excited State   1:      Singlet-A      1.6216 eV  764.57 nm  f=0.3847  <S**2>=0.000
     310 -> 316       -0.18179
     312 -> 314        0.68318
     310 <- 316       -0.11452
 This state for optimization and/or second-order correction.
 Total Energy, E(TD-HF/TD-DFT) =  -4070.53194935
 Copying the excited state density for this state as the 1-particle RhoCI density.

 Excited State   2:      Singlet-A      1.6375 eV  757.14 nm  f=0.4025  <S**2>=0.000
     309 -> 315       -0.19098
     311 -> 313        0.68245
     309 <- 315       -0.11966

 Excited State   3:      Singlet-A      2.1386 eV  579.75 nm  f=0.0955  <S**2>=0.000
     310 -> 314        0.63841
     312 -> 316        0.28190

 Excited State   4:      Singlet-A      2.1723 eV  570.76 nm  f=0.0973  <S**2>=0.000
     309 -> 313        0.63454
     311 -> 315        0.29670

 Excited State   5:      Singlet-A      3.2597 eV  380.35 nm  f=0.0048  <S**2>=0.000
     306 -> 313        0.67179
     311 -> 315       -0.12876

 The electronic state is 1-A.
 Alpha  occ. eigenvalues --  -46.96050 -46.94108 -19.31478 -19.29902 -19.25154
 Alpha  occ. eigenvalues --  -19.24341 -19.23971 -19.23866 -19.23386 -19.23203
 Alpha  occ. eigenvalues --  -14.47024 -14.46944 -14.46628 -14.46031 -14.44439
 Alpha  occ. eigenvalues --  -14.44001 -14.43835 -14.43139 -10.43473 -10.42916
 Alpha  occ. eigenvalues --  -10.39412 -10.39274 -10.38593 -10.38391 -10.35586
 Alpha  occ. eigenvalues --  -10.35459 -10.35432 -10.35411 -10.35407 -10.35333
 Alpha  occ. eigenvalues --  -10.35170 -10.34907 -10.34888 -10.34591 -10.34525
 Alpha  occ. eigenvalues --  -10.34177 -10.33875 -10.33825 -10.33809 -10.33451
 Alpha  occ. eigenvalues --  -10.33224 -10.32823 -10.32795 -10.32780 -10.32509
 Alpha  occ. eigenvalues --  -10.32495 -10.32446 -10.32410 -10.32366 -10.32312
 Alpha  occ. eigenvalues --  -10.32261 -10.32247 -10.32127 -10.31936 -10.31928
 Alpha  occ. eigenvalues --  -10.31908 -10.31848 -10.31770 -10.31691 -10.31530
 Alpha  occ. eigenvalues --  -10.31492 -10.31455 -10.31452 -10.31408 -10.31169
 Alpha  occ. eigenvalues --  -10.31093 -10.30756 -10.30747 -10.30724 -10.30614
 Alpha  occ. eigenvalues --  -10.30461 -10.30256 -10.30063 -10.30051 -10.30005
 Alpha  occ. eigenvalues --  -10.29973 -10.29925 -10.29743 -10.29718 -10.29659
 Alpha  occ. eigenvalues --  -10.29256 -10.28886 -10.28847 -10.28844 -10.28786
 Alpha  occ. eigenvalues --  -10.28457  -3.21839  -3.20268  -1.95436  -1.94951
 Alpha  occ. eigenvalues --   -1.94797  -1.93844  -1.93411  -1.93249  -1.18802
 Alpha  occ. eigenvalues --   -1.17929  -1.12304  -1.12212  -1.10831  -1.09733
 Alpha  occ. eigenvalues --   -1.09413  -1.08814  -1.07581  -1.06548  -1.06107
 Alpha  occ. eigenvalues --   -1.05890  -1.05749  -1.05237  -1.04686  -1.04416
 Alpha  occ. eigenvalues --   -0.95923  -0.93907  -0.91427  -0.91391  -0.91028
 Alpha  occ. eigenvalues --   -0.91026  -0.90282  -0.90149  -0.89853  -0.89769
 Alpha  occ. eigenvalues --   -0.89569  -0.89209  -0.88869  -0.88192  -0.87391
 Alpha  occ. eigenvalues --   -0.86855  -0.86552  -0.85793  -0.84969  -0.84875
 Alpha  occ. eigenvalues --   -0.84540  -0.84181  -0.83500  -0.83474  -0.82767
 Alpha  occ. eigenvalues --   -0.82532  -0.80750  -0.80153  -0.79574  -0.79120
 Alpha  occ. eigenvalues --   -0.78827  -0.78525  -0.78445  -0.77833  -0.77146
 Alpha  occ. eigenvalues --   -0.76791  -0.75522  -0.74730  -0.74405  -0.73608
 Alpha  occ. eigenvalues --   -0.71857  -0.71776  -0.71220  -0.70809  -0.70114
 Alpha  occ. eigenvalues --   -0.69625  -0.69375  -0.69151  -0.68115  -0.67866
 Alpha  occ. eigenvalues --   -0.67510  -0.67198  -0.66886  -0.66816  -0.66571
 Alpha  occ. eigenvalues --   -0.66203  -0.64730  -0.64257  -0.62506  -0.62414
 Alpha  occ. eigenvalues --   -0.61944  -0.61736  -0.61118  -0.61084  -0.60949
 Alpha  occ. eigenvalues --   -0.60471  -0.60188  -0.60025  -0.59524  -0.59247
 Alpha  occ. eigenvalues --   -0.58356  -0.58271  -0.58126  -0.57836  -0.57483
 Alpha  occ. eigenvalues --   -0.57472  -0.57239  -0.56809  -0.56445  -0.56337
 Alpha  occ. eigenvalues --   -0.55791  -0.55534  -0.55353  -0.55221  -0.55141
 Alpha  occ. eigenvalues --   -0.54853  -0.54658  -0.54609  -0.54300  -0.54275
 Alpha  occ. eigenvalues --   -0.54070  -0.54024  -0.53828  -0.53812  -0.53508
 Alpha  occ. eigenvalues --   -0.53465  -0.53238  -0.53108  -0.52513  -0.52317
 Alpha  occ. eigenvalues --   -0.52102  -0.51949  -0.51920  -0.51857  -0.51541
 Alpha  occ. eigenvalues --   -0.51441  -0.51426  -0.51148  -0.50996  -0.50994
 Alpha  occ. eigenvalues --   -0.50942  -0.50492  -0.50400  -0.50361  -0.50351
 Alpha  occ. eigenvalues --   -0.50222  -0.49598  -0.49455  -0.49220  -0.48855
 Alpha  occ. eigenvalues --   -0.48727  -0.48674  -0.48667  -0.48552  -0.48453
 Alpha  occ. eigenvalues --   -0.48291  -0.48098  -0.48081  -0.47916  -0.47777
 Alpha  occ. eigenvalues --   -0.47713  -0.47441  -0.47278  -0.47111  -0.47083
 Alpha  occ. eigenvalues --   -0.46682  -0.46508  -0.46480  -0.46392  -0.46029
 Alpha  occ. eigenvalues --   -0.45974  -0.45917  -0.45854  -0.45577  -0.45395
 Alpha  occ. eigenvalues --   -0.45356  -0.45303  -0.45104  -0.44940  -0.44848
 Alpha  occ. eigenvalues --   -0.44636  -0.44540  -0.44164  -0.44026  -0.43894
 Alpha  occ. eigenvalues --   -0.43876  -0.43821  -0.43689  -0.43406  -0.43347
 Alpha  occ. eigenvalues --   -0.43007  -0.42938  -0.42840  -0.42718  -0.42431
 Alpha  occ. eigenvalues --   -0.42221  -0.42101  -0.41649  -0.41362  -0.40340
 Alpha  occ. eigenvalues --   -0.40317  -0.40164  -0.39926  -0.39667  -0.39427
 Alpha  occ. eigenvalues --   -0.39336  -0.39262  -0.39168  -0.38690  -0.38302
 Alpha  occ. eigenvalues --   -0.38167  -0.37604  -0.36854  -0.36517  -0.36264
 Alpha  occ. eigenvalues --   -0.35783  -0.35760  -0.35324  -0.34055  -0.33335
 Alpha  occ. eigenvalues --   -0.33290  -0.33166  -0.32695  -0.32643  -0.31983
 Alpha  occ. eigenvalues --   -0.31665  -0.31598  -0.31460  -0.26502  -0.25985
 Alpha  occ. eigenvalues --   -0.23368  -0.22903
 Alpha virt. eigenvalues --   -0.07570  -0.07086  -0.00395   0.00199   0.01874
 Alpha virt. eigenvalues --    0.02004   0.04331   0.04427   0.05658   0.06203
 Alpha virt. eigenvalues --    0.06285   0.07122   0.07165   0.07277   0.08109

 Mulliken charges:
               1
     1  Mg   0.978462
     2  C   -0.019962
     3  C   -0.101402
     4  C   -0.061252
     5  C   -0.070958
     6  N   -0.323303
     7  C   -0.008492
     8  C   -0.058308
     9  C   -0.138038
    10  C    0.061867
    11  C    0.058267
    12  C    0.014070
    13  C   -0.126939
    14  H    0.052384
    15  N   -0.518222
    16  C    0.183529
    17  C   -0.196067
    18  C   -0.036917
    19  C    0.166451
    20  C    0.060839
    21  C    0.056685
    22  O   -0.280039
    23  C    0.001764
    24  N   -0.410184
    25  C    0.066177
    26  C   -0.084877
    27  C   -0.063836
    28  C    0.089611
    29  C    0.031873
    30  C   -0.016707
    31  C   -0.058132
    32  N   -0.398617
    33  C    0.097306
    34  C   -0.187961
    35  C   -0.040108
    36  C    0.126172
    37  C    0.081449
    38  C    0.128904
    39  O   -0.224756
    40  C   -0.076921
    41  C    0.275921
    42  O   -0.284594
    43  O   -0.335640
    44  C    0.120612
    45  H    0.007917
    46  H    0.010680
    47  H   -0.017347
    48  H    0.026012
    49  H    0.022621
    50  H    0.047116
    51  H    0.037799
    52  H    0.040092
    53  H    0.035387
    54  H    0.067681
    55  H    0.038953
    56  H    0.040617
    57  H    0.029658
    58  H    0.048955
    59  H    0.062112
    60  H    0.057792
    61  H    0.061836
    62  H    0.053031
    63  H    0.042943
    64  H    0.035658
    65  H    0.045316
    66  H    0.034328
    67  H    0.025706
    68  H    0.032609
    69  H    0.029408
    70  H    0.029216
    71  H    0.042196
    72  H    0.049653
    73  H    0.070898
    74  H    0.031403
    75  H    0.069402
    76  H    0.065874
    77  H    0.061279
    78  H    0.062818
    79  H    0.070274
    80  Mg   0.939125
    81  C   -0.063443
    82  C   -0.088146
    83  C   -0.039689
    84  C   -0.124244
    85  N   -0.332218
    86  C    0.012994
    87  C   -0.124709
    88  C   -0.103000
    89  C    0.083831
    90  C    0.035825
    91  C    0.029669
    92  C   -0.116598
    93  H    0.044727
    94  N   -0.455953
    95  C    0.158269
    96  C   -0.182230
    97  C   -0.057250
    98  C    0.198350
    99  C    0.076302
   100  C    0.004738
   101  O   -0.236007
   102  C    0.002855
   103  N   -0.353947
   104  C   -0.009522
   105  C   -0.086532
   106  C   -0.051313
   107  C    0.062256
   108  C    0.022931
   109  C   -0.053254
   110  C   -0.067794
   111  N   -0.433975
   112  C    0.194454
   113  C   -0.187380
   114  C    0.053594
   115  C    0.162155
   116  C    0.075232
   117  C    0.056213
   118  O   -0.207029
   119  C   -0.077440
   120  C    0.295317
   121  O   -0.257292
   122  O   -0.388879
   123  C    0.139781
   124  H   -0.000077
   125  H   -0.030045
   126  H   -0.003589
   127  H    0.037094
   128  H    0.045721
   129  H    0.048940
   130  H    0.034017
   131  H    0.036041
   132  H    0.037203
   133  H    0.027161
   134  H    0.055782
   135  H    0.044471
   136  H    0.060690
   137  H    0.065572
   138  H    0.024409
   139  H    0.059359
   140  H    0.052019
   141  H    0.063638
   142  H    0.053038
   143  H    0.024106
   144  H    0.042386
   145  H    0.053157
   146  H    0.040440
   147  H    0.043620
   148  H    0.030923
   149  H    0.022319
   150  H    0.048001
   151  H    0.040152
   152  H    0.047472
   153  H    0.037838
   154  H    0.062222
   155  H    0.083009
   156  H    0.056843
   157  H    0.068857
   158  H    0.036439
 Sum of Mulliken charges =  -0.00000

 Dipole moment (field-independent basis, Debye):
    X=              3.8620    Y=             -2.1115    Z=             -5.0150  Tot=              6.6726
 Quadrupole moment (field-independent basis, Debye-Ang):
   XX=           -472.9335   YY=           -521.6610   ZZ=           -518.6991
   XY=             13.7775   XZ=             37.5588   YZ=            -20.6198

 Normal termination of Gaussian 16 at Sun Sep 19 08:34:22 2021.
