 Gaussian 16, Revision A.03,
 Gaussian 16:  ES64L-G16RevA.03 25-Dec-2016

 --------------------------------
 #p wB97XD/Def2SVP td=(nstates=5)
 --------------------------------

 --------------------------------
 TDDFT excited states in gaussian
 --------------------------------
 Symbolic Z-matrix:
 Charge =  0 Multiplicity = 1

                         Standard orientation:
 ---------------------------------------------------------------------
 Center     Atomic      Atomic             Coordinates (Angstroms)
 Number     Number       Type             X           Y           Z
 ---------------------------------------------------------------------
      1         12           0        8.683352    0.654561    0.297714
      2          6           0        7.326377   -0.963121   -2.368657
      3          6           0        7.517199    3.704223   -1.061749
      4          6           0        9.035613    2.028240    3.321470
      5          6           0        9.349369   -2.531406    1.862533
      6          7           0        7.597350    1.237671   -1.494534
      7          6           0        7.124542    0.492835   -2.438141
      8          6           0        6.635037    1.308404   -3.687286
      9          6           0        6.984390    2.806926   -3.345881
     10          6           0        7.443801    2.626024   -1.858105
     11          6           0        7.894200    3.535694   -4.335819
     12          6           0        5.060888    1.008024   -4.046083
     13          6           0        4.149342    0.484156   -2.948173
     14          1           0        2.630612    0.601909   -3.076478
     15          7           0        8.312400    2.601780    1.018162
     16          6           0        7.911933    3.714419    0.318128
     17          6           0        7.792602    4.801257    1.189870
     18          6           0        8.189690    4.352880    2.508478
     19          6           0        8.505686    2.909493    2.344064
     20          6           0        7.488672    6.191968    0.663599
     21          6           0        8.222191    5.255239    3.755277
     22          8           0        7.880786    6.451456    3.617779
     23          6           0        8.609262    4.846463    5.074566
     24          7           0        8.990581   -0.187527    2.409563
     25          6           0        9.274774    0.663442    3.354199
     26          6           0        9.820601   -0.016801    4.641877
     27          6           0        9.975451   -1.477739    4.165788
     28          6           0        9.425700   -1.471098    2.682220
     29          6           0       11.109361    0.536140    5.133876
     30          6           0        9.233688   -2.525322    5.122771
     31          6           0       10.170397   -3.486835    5.963707
     32          7           0        8.534880   -1.355454   -0.135350
     33          6           0        8.859162   -2.540522    0.536849
     34          6           0        8.562406   -3.696765   -0.365048
     35          6           0        7.932764   -3.096910   -1.464879
     36          6           0        7.902144   -1.682860   -1.279366
     37          6           0        8.790925   -5.112561   -0.147290
     38          6           0        7.292569   -3.440153   -2.650878
     39          8           0        7.081207   -4.514547   -3.232292
     40          6           0        6.953360   -2.086938   -3.338073
     41          6           0        7.621071   -2.075610   -4.733750
     42          8           0        7.087604   -1.868666   -5.810380
     43          8           0        8.973383   -2.332376   -4.665756
     44          6           0        9.719304   -2.388295   -5.928580
     45          1           0        7.078595    4.583396   -1.538004
     46          1           0        9.322607    2.447554    4.287833
     47          1           0        9.713004   -3.473883    2.276949
     48          1           0        7.321869    1.061499   -4.497294
     49          1           0        6.091422    3.425146   -3.248517
     50          1           0        8.842384    3.774286   -3.854423
     51          1           0        7.464958    4.480208   -4.672103
     52          1           0        8.085041    3.015387   -5.274458
     53          1           0        5.164965    0.333801   -4.896524
     54          1           0        4.479853    1.877811   -4.353385
     55          1           0        4.482050    1.039429   -2.071590
     56          1           0        4.455114   -0.551102   -2.795961
     57          1           0        8.173187    7.013931    0.874768
     58          1           0        6.473358    6.459454    0.957262
     59          1           0        7.436581    6.153148   -0.424292
     60          1           0        9.627572    4.485385    5.217579
     61          1           0        8.054512    3.957647    5.373481
     62          1           0        8.360916    5.572278    5.848288
     63          1           0        9.214964    0.016705    5.547422
     64          1           0       11.014135   -1.776415    4.023750
     65          1           0       11.032009    1.172552    6.015269
     66          1           0       11.511945    1.260857    4.425289
     67          1           0       11.811699   -0.271894    5.337924
     68          1           0        8.661759   -3.207844    4.492688
     69          1           0        8.626302   -2.070176    5.903922
     70          1           0        9.824713   -3.522126    6.996075
     71          1           0       11.154661   -3.022495    6.025996
     72          1           0       10.030859   -4.471491    5.517136
     73          1           0        9.679421   -5.147189    0.483601
     74          1           0        8.995628   -5.618865   -1.091292
     75          1           0        7.860325   -5.512140    0.254638
     76          1           0        5.927804   -2.035794   -3.703024
     77          1           0       10.609269   -2.998461   -5.773271
     78          1           0       10.116591   -1.457691   -6.333519
     79          1           0        9.129803   -2.747394   -6.772677
     80         12           0       -8.900850   -0.104421   -0.113236
     81          6           0       -6.215044   -2.344137   -0.037281
     82          6           0       -7.061075    2.083840   -1.724596
     83          6           0      -11.282244    2.292701    0.508510
     84          6           0      -10.694452   -2.240887    2.051025
     85          7           0       -6.932537   -0.214650   -0.858168
     86          6           0       -5.990853   -1.218498   -0.801237
     87          6           0       -4.782891   -0.910945   -1.676709
     88          6           0       -5.009612    0.600357   -2.001819
     89          6           0       -6.430174    0.812670   -1.609001
     90          6           0       -4.036229    1.633740   -1.477261
     91          6           0       -4.604856   -1.857050   -2.906924
     92          6           0       -3.376298   -1.571342   -3.777434
     93          1           0       -2.469358   -2.759432   -4.062739
     94          7           0       -9.114340    2.030931   -0.520801
     95          6           0       -8.276785    2.698414   -1.341584
     96          6           0       -8.806691    4.009936   -1.592722
     97          6           0       -9.995529    4.121996   -0.851353
     98          6           0      -10.163642    2.778098   -0.234476
     99          6           0       -8.116532    5.048758   -2.451266
    100          6           0      -10.964664    5.255148   -0.763582
    101          8           0      -11.937881    5.342991    0.032025
    102          6           0      -10.852812    6.433165   -1.723654
    103          7           0      -10.675836    0.007913    1.107976
    104          6           0      -11.429594    1.124653    1.235985
    105          6           0      -12.793221    0.770221    2.041109
    106          6           0      -12.743242   -0.797315    2.089248
    107          6           0      -11.334545   -1.073362    1.671463
    108          6           0      -12.762569    1.488529    3.446607
    109          6           0      -13.674654   -1.420445    0.986209
    110          6           0      -13.537812   -0.954069   -0.454807
    111          7           0       -8.584309   -2.008069    0.819755
    112          6           0       -9.422790   -2.701706    1.648544
    113          6           0       -8.775677   -3.883857    1.984760
    114          6           0       -7.479134   -3.854590    1.395154
    115          6           0       -7.408426   -2.681700    0.690499
    116          6           0       -9.227082   -4.973155    2.892500
    117          6           0       -6.173049   -4.529364    1.219637
    118          8           0       -5.687858   -5.560271    1.671489
    119          6           0       -5.335078   -3.597692    0.183145
    120          6           0       -3.941676   -3.403487    0.665322
    121          8           0       -3.606152   -3.289700    1.881634
    122          8           0       -3.146099   -3.547501   -0.385920
    123          6           0       -1.768529   -3.850421   -0.047970
    124          1           0       -6.537910    2.804512   -2.356757
    125          1           0      -12.066545    3.032328    0.686304
    126          1           0      -11.327277   -2.930570    2.611734
    127          1           0       -3.930080   -1.144538   -1.039049
    128          1           0       -5.011091    0.809163   -3.072183
    129          1           0       -3.051946    1.274853   -1.176513
    130          1           0       -4.501404    2.174158   -0.652408
    131          1           0       -4.022990    2.450327   -2.199413
    132          1           0       -5.508213   -1.837774   -3.517116
    133          1           0       -4.535863   -2.885815   -2.554905
    134          1           0       -2.605361   -1.045224   -3.214726
    135          1           0       -3.650302   -1.034259   -4.685968
    136          1           0       -7.111249    4.780479   -2.775909
    137          1           0       -7.860340    5.982849   -1.951921
    138          1           0       -8.677877    5.313485   -3.347849
    139          1           0       -9.950793    6.987770   -1.466548
    140          1           0      -11.589557    7.206645   -1.507961
    141          1           0      -10.946741    6.145475   -2.771424
    142          1           0      -13.650573    1.172045    1.501099
    143          1           0      -12.912491   -1.049911    3.135961
    144          1           0      -11.993369    2.256933    3.525947
    145          1           0      -12.568575    0.819731    4.285322
    146          1           0      -13.673106    2.041293    3.673350
    147          1           0      -14.641027   -1.141132    1.406105
    148          1           0      -13.648698   -2.508249    0.929656
    149          1           0      -12.915407   -0.060241   -0.502191
    150          1           0      -14.463917   -0.832735   -1.015635
    151          1           0      -13.083300   -1.820343   -0.935587
    152          1           0      -10.202857   -5.390613    2.642854
    153          1           0       -9.323129   -4.501329    3.869956
    154          1           0       -8.496869   -5.777313    2.977158
    155          1           0       -5.295912   -4.198402   -0.725177
    156          1           0       -1.387097   -4.634197   -0.703617
    157          1           0       -1.589075   -4.223513    0.960062
    158          1           0       -1.209506   -2.931376   -0.226898
 ---------------------------------------------------------------------

 SCF Done:  E(RwB97XD) =  -4070.58876902     A.U. after   19 cycles

 Excitation energies and oscillator strengths:

 Excited State   1:      Singlet-A      1.6526 eV  750.25 nm  f=0.2643  <S**2>=0.000
     309 -> 315       -0.15832
     311 -> 313        0.65419
     312 -> 314        0.20880
     309 <- 315       -0.10633
 This state for optimization and/or second-order correction.
 Total Energy, E(TD-HF/TD-DFT) =  -4070.52803796
 Copying the excited state density for this state as the 1-particle RhoCI density.

 Excited State   2:      Singlet-A      1.6692 eV  742.79 nm  f=0.5344  <S**2>=0.000
     310 -> 316        0.16332
     311 -> 313       -0.20858
     312 -> 314        0.65422
     310 <- 316        0.10630

 Excited State   3:      Singlet-A      2.0905 eV  593.07 nm  f=0.1714  <S**2>=0.000
     310 -> 314        0.66095
     312 -> 316       -0.23025

 Excited State   4:      Singlet-A      2.1985 eV  563.96 nm  f=0.1143  <S**2>=0.000
     309 -> 313        0.64030
     311 -> 315        0.27559

 Excited State   5:      Singlet-A      3.0720 eV  403.59 nm  f=0.0093  <S**2>=0.000
     308 -> 314        0.67871

 The electronic state is 1-A.
 Alpha  occ. eigenvalues --  -46.96782 -46.95601 -19.31656 -19.30305 -19.25246
 Alpha  occ. eigenvalues --  -19.24244 -19.24122 -19.23849 -19.23332 -19.22481
 Alpha  occ. eigenvalues --  -14.47937 -14.47393 -14.46605 -14.46304 -14.45292
 Alpha  occ. eigenvalues --  -14.44491 -14.44253 -14.42475 -10.43778 -10.42899
 Alpha  occ. eigenvalues --  -10.39703 -10.38930 -10.38697 -10.38250 -10.37212
 Alpha  occ. eigenvalues --  -10.36077 -10.36014 -10.35497 -10.35418 -10.35405
 Alpha  occ. eigenvalues --  -10.35059 -10.34889 -10.34876 -10.34792 -10.34767
 Alpha  occ. eigenvalues --  -10.34726 -10.34628 -10.34600 -10.33975 -10.33947
 Alpha  occ. eigenvalues --  -10.33892 -10.33637 -10.33559 -10.33072 -10.33071
 Alpha  occ. eigenvalues --  -10.32991 -10.32720 -10.32605 -10.32518 -10.32434
 Alpha  occ. eigenvalues --  -10.32287 -10.32240 -10.32229 -10.32208 -10.32026
 Alpha  occ. eigenvalues --  -10.31791 -10.31745 -10.31702 -10.31700 -10.31696
 Alpha  occ. eigenvalues --  -10.31695 -10.31688 -10.31233 -10.31191 -10.31187
 Alpha  occ. eigenvalues --  -10.31161 -10.31054 -10.30925 -10.30852 -10.30841
 Alpha  occ. eigenvalues --  -10.30424 -10.30386 -10.30335 -10.30325 -10.30236
 Alpha  occ. eigenvalues --  -10.30104 -10.29993 -10.29950 -10.29906 -10.29842
 Alpha  occ. eigenvalues --  -10.29524 -10.29442 -10.29153 -10.28893 -10.28602
 Alpha  occ. eigenvalues --  -10.28142  -3.22655  -3.21447  -1.96216  -1.95805
 Alpha  occ. eigenvalues --   -1.95587  -1.95042  -1.94538  -1.94426  -1.20091
 Alpha  occ. eigenvalues --   -1.18494  -1.11494  -1.10860  -1.10544  -1.09849
 Alpha  occ. eigenvalues --   -1.09750  -1.07924  -1.07391  -1.07173  -1.06631
 Alpha  occ. eigenvalues --   -1.06257  -1.05837  -1.05208  -1.04349  -1.04349
 Alpha  occ. eigenvalues --   -0.95178  -0.93656  -0.91733  -0.91344  -0.91342
 Alpha  occ. eigenvalues --   -0.91081  -0.91038  -0.90438  -0.90240  -0.89857
 Alpha  occ. eigenvalues --   -0.89846  -0.88944  -0.87473  -0.87331  -0.86675
 Alpha  occ. eigenvalues --   -0.86572  -0.86128  -0.85521  -0.84994  -0.84650
 Alpha  occ. eigenvalues --   -0.84492  -0.83692  -0.83563  -0.83164  -0.82516
 Alpha  occ. eigenvalues --   -0.82391  -0.80769  -0.80541  -0.79456  -0.79374
 Alpha  occ. eigenvalues --   -0.79104  -0.79057  -0.78389  -0.77916  -0.77328
 Alpha  occ. eigenvalues --   -0.77066  -0.75524  -0.74602  -0.74060  -0.73583
 Alpha  occ. eigenvalues --   -0.71756  -0.71734  -0.70980  -0.70885  -0.70536
 Alpha  occ. eigenvalues --   -0.70211  -0.69558  -0.68942  -0.68008  -0.67792
 Alpha  occ. eigenvalues --   -0.67304  -0.67055  -0.66976  -0.66668  -0.66541
 Alpha  occ. eigenvalues --   -0.66402  -0.65486  -0.64548  -0.62992  -0.62966
 Alpha  occ. eigenvalues --   -0.62099  -0.61602  -0.61102  -0.61023  -0.60632
 Alpha  occ. eigenvalues --   -0.60414  -0.60152  -0.59359  -0.59349  -0.59122
 Alpha  occ. eigenvalues --   -0.58398  -0.58109  -0.57800  -0.57733  -0.57725
 Alpha  occ. eigenvalues --   -0.57547  -0.57274  -0.57141  -0.56918  -0.56602
 Alpha  occ. eigenvalues --   -0.56187  -0.55953  -0.55505  -0.55265  -0.55121
 Alpha  occ. eigenvalues --   -0.54980  -0.54929  -0.54773  -0.54707  -0.54350
 Alpha  occ. eigenvalues --   -0.54339  -0.53518  -0.53516  -0.53393  -0.53364
 Alpha  occ. eigenvalues --   -0.52927  -0.52768  -0.52674  -0.52402  -0.52375
 Alpha  occ. eigenvalues --   -0.52298  -0.52018  -0.51898  -0.51626  -0.51411
 Alpha  occ. eigenvalues --   -0.51234  -0.51034  -0.50941  -0.50882  -0.50697
 Alpha  occ. eigenvalues --   -0.50578  -0.50379  -0.50374  -0.50332  -0.50106
 Alpha  occ. eigenvalues --   -0.49911  -0.49685  -0.49412  -0.49242  -0.49108
 Alpha  occ. eigenvalues --   -0.49010  -0.48908  -0.48830  -0.48533  -0.48317
 Alpha  occ. eigenvalues --   -0.48218  -0.48146  -0.47954  -0.47772  -0.47744
 Alpha  occ. eigenvalues --   -0.47647  -0.47322  -0.47229  -0.47113  -0.46967
 Alpha  occ. eigenvalues --   -0.46933  -0.46657  -0.46505  -0.46491  -0.46245
 Alpha  occ. eigenvalues --   -0.46039  -0.45915  -0.45708  -0.45656  -0.45528
 Alpha  occ. eigenvalues --   -0.45246  -0.45001  -0.44839  -0.44695  -0.44668
 Alpha  occ. eigenvalues --   -0.44429  -0.44301  -0.44211  -0.44195  -0.44016
 Alpha  occ. eigenvalues --   -0.43866  -0.43701  -0.43538  -0.43264  -0.43036
 Alpha  occ. eigenvalues --   -0.43007  -0.42823  -0.42724  -0.42609  -0.42255
 Alpha  occ. eigenvalues --   -0.42054  -0.41817  -0.41374  -0.41071  -0.41030
 Alpha  occ. eigenvalues --   -0.40830  -0.40508  -0.40239  -0.39918  -0.39733
 Alpha  occ. eigenvalues --   -0.39221  -0.39036  -0.38745  -0.38650  -0.38539
 Alpha  occ. eigenvalues --   -0.38380  -0.38163  -0.36948  -0.36428  -0.36358
 Alpha  occ. eigenvalues --   -0.35989  -0.35829  -0.34909  -0.34045  -0.33912
 Alpha  occ. eigenvalues --   -0.33311  -0.33253  -0.33076  -0.32849  -0.32105
 Alpha  occ. eigenvalues --   -0.31947  -0.31241  -0.30514  -0.26979  -0.25870
 Alpha  occ. eigenvalues --   -0.23586  -0.23476
 Alpha virt. eigenvalues --   -0.07991  -0.07606  -0.00078   0.00760   0.01877
 Alpha virt. eigenvalues --    0.02096   0.03710   0.04260   0.04659   0.05060
 Alpha virt. eigenvalues --    0.06784   0.07044   0.07318   0.07473   0.07701

 Mulliken charges:
               1
     1  Mg   0.957032
     2  C    0.003496
     3  C   -0.072157
     4  C   -0.043491
     5  C   -0.098625
     6  N   -0.349408
     7  C    0.010349
     8  C   -0.050619
     9  C   -0.100650
    10  C    0.039589
    11  C    0.023991
    12  C   -0.030538
    13  C   -0.100234
    14  H    0.057676
    15  N   -0.458741
    16  C    0.154557
    17  C   -0.150999
    18  C   -0.094257
    19  C    0.205454
    20  C    0.091910
    21  C    0.063370
    22  O   -0.267710
    23  C   -0.000293
    24  N   -0.297870
    25  C    0.010940
    26  C   -0.080698
    27  C   -0.046073
    28  C    0.048391
    29  C    0.002393
    30  C   -0.043085
    31  C   -0.065074
    32  N   -0.464735
    33  C    0.133452
    34  C   -0.171065
    35  C   -0.013355
    36  C    0.155764
    37  C    0.081481
    38  C    0.117469
    39  O   -0.220447
    40  C   -0.108098
    41  C    0.242910
    42  O   -0.244564
    43  O   -0.368688
    44  C    0.139703
    45  H    0.011270
    46  H   -0.042193
    47  H    0.001306
    48  H    0.052781
    49  H    0.037884
    50  H    0.039932
    51  H    0.034473
    52  H    0.041314
    53  H    0.057477
    54  H    0.040388
    55  H    0.053120
    56  H    0.036834
    57  H    0.060803
    58  H    0.046680
    59  H   -0.000147
    60  H    0.063595
    61  H    0.041347
    62  H    0.055100
    63  H    0.045958
    64  H    0.032585
    65  H    0.028837
    66  H    0.031206
    67  H    0.039811
    68  H    0.036346
    69  H    0.041689
    70  H    0.033914
    71  H    0.036055
    72  H    0.047994
    73  H    0.044075
    74  H    0.066952
    75  H    0.074860
    76  H    0.057272
    77  H    0.053072
    78  H    0.037467
    79  H    0.061491
    80  Mg   0.940637
    81  C    0.025496
    82  C   -0.075941
    83  C   -0.054682
    84  C   -0.071610
    85  N   -0.396372
    86  C   -0.020029
    87  C   -0.029665
    88  C   -0.089277
    89  C    0.104687
    90  C    0.044340
    91  C    0.022575
    92  C   -0.129842
    93  H    0.033068
    94  N   -0.379766
    95  C    0.094818
    96  C   -0.112147
    97  C   -0.048862
    98  C    0.101698
    99  C    0.053301
   100  C    0.041219
   101  O   -0.259516
   102  C   -0.009005
   103  N   -0.351607
   104  C    0.069213
   105  C   -0.145358
   106  C   -0.029731
   107  C    0.039069
   108  C    0.014345
   109  C   -0.014262
   110  C   -0.051375
   111  N   -0.418306
   112  C    0.151878
   113  C   -0.204391
   114  C   -0.041218
   115  C    0.088512
   116  C    0.077156
   117  C    0.161811
   118  O   -0.201915
   119  C   -0.128958
   120  C    0.263461
   121  O   -0.280955
   122  O   -0.330188
   123  C    0.126826
   124  H   -0.027625
   125  H    0.024642
   126  H   -0.001376
   127  H    0.031920
   128  H    0.031577
   129  H    0.056689
   130  H    0.033520
   131  H    0.025418
   132  H    0.024115
   133  H    0.045099
   134  H    0.046448
   135  H    0.061936
   136  H    0.028579
   137  H    0.048659
   138  H    0.054905
   139  H    0.043767
   140  H    0.044479
   141  H    0.064112
   142  H    0.043660
   143  H    0.030551
   144  H    0.043566
   145  H    0.032307
   146  H    0.039910
   147  H    0.029380
   148  H    0.030861
   149  H    0.055388
   150  H    0.043652
   151  H    0.033860
   152  H    0.035086
   153  H    0.042632
   154  H    0.057875
   155  H    0.082331
   156  H    0.054635
   157  H    0.078001
   158  H    0.050310
 Sum of Mulliken charges =  -0.00000

 Dipole moment (field-independent basis, Debye):
    X=              4.7259    Y=              2.3407    Z=             -3.2491  Tot=              6.1944
 Quadrupole moment (field-independent basis, Debye-Ang):
   XX=           -411.2738   YY=           -561.5600   ZZ=           -496.3793
   XY=            -23.6309   XZ=             44.7266   YZ=            -40.2905

 Normal termination of Gaussian 16 at Sat Sep 18 21:34:46 2021.
