 Gaussian 16, Revision A.03,
 Gaussian 16:  ES64L-G16RevA.03 25-Dec-2016

 --------------------------------
 #p wB97XD/Def2SVP td=(nstates=5)
 --------------------------------

 --------------------------------
 TDDFT excited states in gaussian
 --------------------------------
 Symbolic Z-matrix:
 Charge =  0 Multiplicity = 1

                         Standard orientation:
 ---------------------------------------------------------------------
 Center     Atomic      Atomic             Coordinates (Angstroms)
 Number     Number       Type             X           Y           Z
 ---------------------------------------------------------------------
      1         12           0       22.032343   -0.622706    0.464287
      2          6           0       21.685494    2.159575   -1.760757
      3          6           0       23.575961    1.502399    2.642414
      4          6           0       22.753779   -3.145686    2.244939
      5          6           0       21.511298   -2.698266   -2.286390
      6          7           0       22.509627    1.535578    0.343224
      7          6           0       22.269397    2.500760   -0.538753
      8          6           0       22.627712    3.922459   -0.011727
      9          6           0       23.703311    3.517586    1.093335
     10          6           0       23.214402    2.114214    1.405487
     11          6           0       25.127861    3.432998    0.554814
     12          6           0       21.395656    4.647852    0.626690
     13          6           0       21.574461    6.149570    0.867990
     14          1           0       20.427808    7.028274    0.693596
     15          7           0       22.570080   -0.740212    2.361623
     16          6           0       23.171770    0.227514    3.094263
     17          6           0       23.365061   -0.344152    4.444269
     18          6           0       22.999622   -1.786697    4.384149
     19          6           0       22.782111   -1.956896    2.970254
     20          6           0       23.801730    0.466007    5.626094
     21          6           0       22.877614   -2.846512    5.432975
     22          8           0       22.774314   -4.086311    5.138353
     23          6           0       22.972375   -2.398179    6.834068
     24          7           0       22.341085   -2.637436    0.013536
     25          6           0       22.582906   -3.531285    0.978700
     26          6           0       22.488467   -4.935146    0.458898
     27          6           0       21.889570   -4.820748   -1.016904
     28          6           0       21.816901   -3.277470   -1.123119
     29          6           0       23.805188   -5.722793    0.415675
     30          6           0       20.612029   -5.642104   -1.322974
     31          6           0       19.446736   -5.092827   -0.530834
     32          7           0       21.487578   -0.354597   -1.619554
     33          6           0       21.348827   -1.356988   -2.590447
     34          6           0       21.077083   -0.681743   -3.872737
     35          6           0       21.093170    0.676071   -3.559803
     36          6           0       21.384154    0.839618   -2.175292
     37          6           0       20.912299   -1.321425   -5.132931
     38          6           0       20.956593    2.027634   -4.077956
     39          8           0       20.618563    2.511835   -5.159056
     40          6           0       21.454905    3.045773   -2.959517
     41          6           0       20.421789    4.133034   -2.841854
     42          8           0       19.280018    3.885822   -2.402981
     43          8           0       21.006612    5.324924   -3.036593
     44          6           0       20.042119    6.449379   -2.904280
     45          1           0       24.278765    2.017266    3.300381
     46          1           0       22.888397   -4.048453    2.844379
     47          1           0       21.254313   -3.283873   -3.170967
     48          1           0       23.083913    4.579968   -0.751989
     49          1           0       23.634094    4.148748    1.979092
     50          1           0       25.150764    3.539123   -0.529683
     51          1           0       25.492159    2.448429    0.848759
     52          1           0       25.774760    4.153680    1.055729
     53          1           0       21.271710    4.308185    1.654952
     54          1           0       20.498557    4.483061    0.028875
     55          1           0       22.439570    6.539346    0.330801
     56          1           0       21.818397    6.299836    1.919710
     57          1           0       24.154066    1.452473    5.327280
     58          1           0       24.683266   -0.023552    6.039537
     59          1           0       23.025487    0.530666    6.388720
     60          1           0       23.933265   -1.907569    6.990727
     61          1           0       22.773875   -3.277830    7.445346
     62          1           0       22.208606   -1.641303    7.015024
     63          1           0       21.816454   -5.534638    1.071624
     64          1           0       22.602978   -5.146629   -1.774217
     65          1           0       23.774856   -6.657544    0.976056
     66          1           0       24.599003   -5.072621    0.782314
     67          1           0       24.163806   -5.959076   -0.585814
     68          1           0       20.746241   -6.679528   -1.018532
     69          1           0       20.340876   -5.638729   -2.378775
     70          1           0       19.560972   -5.577575    0.438084
     71          1           0       18.502612   -5.373469   -0.998894
     72          1           0       19.544697   -4.018825   -0.371434
     73          1           0       20.065343   -0.832888   -5.614559
     74          1           0       20.737974   -2.390622   -5.014477
     75          1           0       21.874186   -1.104068   -5.597027
     76          1           0       22.418179    3.430686   -3.292783
     77          1           0       20.090245    7.024066   -3.829295
     78          1           0       20.290959    6.963428   -1.975713
     79          1           0       18.985856    6.178688   -2.884899
     80         12           0      -21.601377   -0.614909   -0.419178
     81          6           0      -23.338394    1.604652    1.514278
     82          6           0      -19.980227    1.862558   -1.947687
     83          6           0      -20.219072   -2.874731   -2.317857
     84          6           0      -23.811560   -3.108014    0.846551
     85          7           0      -21.772930    1.547779   -0.360672
     86          6           0      -22.347297    2.191938    0.685835
     87          6           0      -21.839481    3.601049    0.824411
     88          6           0      -20.969962    3.733598   -0.489804
     89          6           0      -20.957128    2.321112   -1.032847
     90          6           0      -21.465507    4.808541   -1.486746
     91          6           0      -21.083784    3.913745    2.255680
     92          6           0      -21.458935    5.192595    3.019913
     93          1           0      -22.055854    6.366858    2.182243
     94          7           0      -20.213492   -0.540450   -1.745590
     95          6           0      -19.626302    0.552931   -2.298245
     96          6           0      -18.732164    0.231441   -3.383781
     97          6           0      -18.637268   -1.127290   -3.364066
     98          6           0      -19.803089   -1.563763   -2.534494
     99          6           0      -18.200127    1.388272   -4.209765
    100          6           0      -17.710127   -2.043523   -4.187197
    101          8           0      -17.740437   -3.251450   -4.145787
    102          6           0      -16.770440   -1.302138   -5.091585
    103          7           0      -22.114818   -2.676841   -0.793719
    104          6           0      -21.259938   -3.384943   -1.553544
    105          6           0      -21.608251   -4.876430   -1.523685
    106          6           0      -22.545405   -4.991081   -0.273738
    107          6           0      -22.881425   -3.501237   -0.057625
    108          6           0      -22.226157   -5.534332   -2.830240
    109          6           0      -21.896334   -5.577542    1.036184
    110          6           0      -20.697696   -4.954788    1.702283
    111          7           0      -23.201749   -0.838277    0.966536
    112          6           0      -24.073628   -1.870846    1.326777
    113          6           0      -25.069774   -1.420371    2.307156
    114          6           0      -24.810710   -0.046247    2.420756
    115          6           0      -23.676520    0.214014    1.588842
    116          6           0      -26.083039   -2.245514    3.058127
    117          6           0      -25.205579    1.146047    3.018876
    118          8           0      -26.122860    1.439657    3.769533
    119          6           0      -24.142190    2.214138    2.654265
    120          6           0      -24.975804    3.372792    2.259671
    121          8           0      -25.527860    3.517555    1.166280
    122          8           0      -25.159418    4.227722    3.307566
    123          6           0      -26.186807    5.269969    3.216445
    124          1           0      -19.334409    2.676232   -2.284968
    125          1           0      -19.764632   -3.692738   -2.879395
    126          1           0      -24.385981   -3.976520    1.177759
    127          1           0      -22.651157    4.316569    0.692376
    128          1           0      -19.938206    3.943111   -0.208354
    129          1           0      -21.976876    4.313948   -2.312475
    130          1           0      -20.598116    5.332875   -1.887784
    131          1           0      -22.147015    5.453636   -0.932089
    132          1           0      -20.023446    3.944944    2.004764
    133          1           0      -21.279424    3.116552    2.972137
    134          1           0      -20.567301    5.650358    3.447507
    135          1           0      -22.087845    4.940625    3.873693
    136          1           0      -18.958636    1.976235   -4.726785
    137          1           0      -17.619018    1.201528   -5.112640
    138          1           0      -17.606286    1.915757   -3.463272
    139          1           0      -16.168740   -0.593094   -4.523471
    140          1           0      -17.454423   -0.897345   -5.837228
    141          1           0      -15.985852   -1.857846   -5.603870
    142          1           0      -20.624021   -5.327145   -1.391324
    143          1           0      -23.466406   -5.491510   -0.573605
    144          1           0      -22.306517   -4.779825   -3.612406
    145          1           0      -23.262664   -5.824679   -2.662774
    146          1           0      -21.717825   -6.419001   -3.216745
    147          1           0      -21.677753   -6.587730    0.689055
    148          1           0      -22.610756   -5.641338    1.856316
    149          1           0      -20.286342   -4.176621    1.058038
    150          1           0      -19.909204   -5.694734    1.838781
    151          1           0      -20.879259   -4.437481    2.644159
    152          1           0      -27.099445   -2.078528    2.704330
    153          1           0      -26.022126   -2.023056    4.123581
    154          1           0      -25.821295   -3.266048    2.777540
    155          1           0      -23.452888    2.399827    3.478170
    156          1           0      -26.551189    5.576005    4.197804
    157          1           0      -26.955352    5.022550    2.485770
    158          1           0      -25.814826    6.184265    2.754430
 ---------------------------------------------------------------------

 SCF Done:  E(RwB97XD) =  -4070.60715383     A.U. after   19 cycles

 Excitation energies and oscillator strengths:

 Excited State   1:      Singlet-A      1.6216 eV  764.59 nm  f=0.3841  <S**2>=0.000
     309 -> 315        0.18179
     311 -> 313        0.68329
     309 <- 315        0.11454
 This state for optimization and/or second-order correction.
 Total Energy, E(TD-HF/TD-DFT) =  -4070.54756170
 Copying the excited state density for this state as the 1-particle RhoCI density.

 Excited State   2:      Singlet-A      1.7218 eV  720.06 nm  f=0.3755  <S**2>=0.000
     310 -> 316       -0.19588
     312 -> 314        0.67980
     310 <- 316       -0.11418

 Excited State   3:      Singlet-A      2.1385 eV  579.76 nm  f=0.0953  <S**2>=0.000
     309 -> 313        0.63836
     311 -> 315       -0.28191

 Excited State   4:      Singlet-A      2.2243 eV  557.40 nm  f=0.0564  <S**2>=0.000
     310 -> 314        0.61466
     312 -> 316        0.33873

 Excited State   5:      Singlet-A      3.3014 eV  375.55 nm  f=0.0077  <S**2>=0.000
     307 -> 313       -0.44242
     308 -> 313        0.48811
     311 -> 315       -0.17022

 The electronic state is 1-A.
 Alpha  occ. eigenvalues --  -46.94287 -46.94140 -19.31513 -19.29107 -19.24969
 Alpha  occ. eigenvalues --  -19.24006 -19.23897 -19.23262 -19.23236 -19.22667
 Alpha  occ. eigenvalues --  -14.47054 -14.46267 -14.46066 -14.45618 -14.44630
 Alpha  occ. eigenvalues --  -14.44033 -14.43309 -14.43169 -10.42951 -10.42079
 Alpha  occ. eigenvalues --  -10.39938 -10.39442 -10.38424 -10.37503 -10.35464
 Alpha  occ. eigenvalues --  -10.35447 -10.34923 -10.34920 -10.34623 -10.34605
 Alpha  occ. eigenvalues --  -10.34557 -10.34436 -10.34371 -10.34277 -10.34221
 Alpha  occ. eigenvalues --  -10.34208 -10.33907 -10.33841 -10.33256 -10.33100
 Alpha  occ. eigenvalues --  -10.32977 -10.32887 -10.32827 -10.32649 -10.32480
 Alpha  occ. eigenvalues --  -10.32343 -10.32158 -10.31998 -10.31976 -10.31893
 Alpha  occ. eigenvalues --  -10.31880 -10.31874 -10.31802 -10.31727 -10.31722
 Alpha  occ. eigenvalues --  -10.31706 -10.31629 -10.31587 -10.31561 -10.31523
 Alpha  occ. eigenvalues --  -10.31518 -10.31486 -10.31440 -10.31370 -10.31340
 Alpha  occ. eigenvalues --  -10.31202 -10.30647 -10.30559 -10.30394 -10.30286
 Alpha  occ. eigenvalues --  -10.30170 -10.30095 -10.30082 -10.30005 -10.29890
 Alpha  occ. eigenvalues --  -10.29888 -10.29723 -10.29691 -10.29602 -10.29285
 Alpha  occ. eigenvalues --  -10.28995 -10.28990 -10.28879 -10.28817 -10.28490
 Alpha  occ. eigenvalues --  -10.28038  -3.20546  -3.20298  -1.94108  -1.93875
 Alpha  occ. eigenvalues --   -1.93691  -1.93556  -1.93441  -1.93280  -1.18836
 Alpha  occ. eigenvalues --   -1.16986  -1.13761  -1.11195  -1.10864  -1.09444
 Alpha  occ. eigenvalues --   -1.08849  -1.08080  -1.07627  -1.06739  -1.06580
 Alpha  occ. eigenvalues --   -1.06093  -1.05782  -1.05269  -1.04996  -1.04448
 Alpha  occ. eigenvalues --   -0.94294  -0.93938  -0.91589  -0.91423  -0.91060
 Alpha  occ. eigenvalues --   -0.90336  -0.90181  -0.89876  -0.89836  -0.89800
 Alpha  occ. eigenvalues --   -0.89601  -0.89376  -0.89240  -0.88468  -0.86887
 Alpha  occ. eigenvalues --   -0.86272  -0.85825  -0.85458  -0.84906  -0.84618
 Alpha  occ. eigenvalues --   -0.84572  -0.84480  -0.83533  -0.82975  -0.82565
 Alpha  occ. eigenvalues --   -0.82467  -0.80992  -0.80781  -0.79360  -0.79151
 Alpha  occ. eigenvalues --   -0.78877  -0.78859  -0.77866  -0.77613  -0.77121
 Alpha  occ. eigenvalues --   -0.76822  -0.74762  -0.74599  -0.73649  -0.73639
 Alpha  occ. eigenvalues --   -0.71807  -0.71542  -0.70994  -0.70841  -0.70107
 Alpha  occ. eigenvalues --   -0.69657  -0.69298  -0.69183  -0.67328  -0.67230
 Alpha  occ. eigenvalues --   -0.66889  -0.66849  -0.66732  -0.66603  -0.66235
 Alpha  occ. eigenvalues --   -0.65731  -0.64290  -0.63680  -0.63142  -0.62446
 Alpha  occ. eigenvalues --   -0.61768  -0.61274  -0.61250  -0.60981  -0.60503
 Alpha  occ. eigenvalues --   -0.59861  -0.59775  -0.59557  -0.59512  -0.59279
 Alpha  occ. eigenvalues --   -0.58310  -0.58303  -0.57869  -0.57503  -0.57272
 Alpha  occ. eigenvalues --   -0.57217  -0.57073  -0.56569  -0.56478  -0.56380
 Alpha  occ. eigenvalues --   -0.55823  -0.55578  -0.55253  -0.55173  -0.55102
 Alpha  occ. eigenvalues --   -0.54886  -0.54689  -0.54576  -0.54542  -0.54332
 Alpha  occ. eigenvalues --   -0.54319  -0.54160  -0.53844  -0.53584  -0.53540
 Alpha  occ. eigenvalues --   -0.53177  -0.53140  -0.52544  -0.52518  -0.52401
 Alpha  occ. eigenvalues --   -0.52118  -0.51952  -0.51888  -0.51475  -0.51458
 Alpha  occ. eigenvalues --   -0.51240  -0.51181  -0.51026  -0.50993  -0.50701
 Alpha  occ. eigenvalues --   -0.50524  -0.50468  -0.50431  -0.50393  -0.49998
 Alpha  occ. eigenvalues --   -0.49923  -0.49699  -0.49630  -0.49251  -0.49078
 Alpha  occ. eigenvalues --   -0.48727  -0.48706  -0.48561  -0.48485  -0.48414
 Alpha  occ. eigenvalues --   -0.48323  -0.48112  -0.47746  -0.47602  -0.47382
 Alpha  occ. eigenvalues --   -0.47127  -0.47114  -0.46751  -0.46513  -0.46435
 Alpha  occ. eigenvalues --   -0.46424  -0.46061  -0.46058  -0.46006  -0.45949
 Alpha  occ. eigenvalues --   -0.45788  -0.45748  -0.45488  -0.45389  -0.45334
 Alpha  occ. eigenvalues --   -0.45053  -0.44972  -0.44823  -0.44781  -0.44670
 Alpha  occ. eigenvalues --   -0.44572  -0.44356  -0.44050  -0.43926  -0.43765
 Alpha  occ. eigenvalues --   -0.43721  -0.43492  -0.43438  -0.43138  -0.43039
 Alpha  occ. eigenvalues --   -0.42966  -0.42871  -0.42750  -0.42675  -0.42462
 Alpha  occ. eigenvalues --   -0.42434  -0.42133  -0.41475  -0.41393  -0.41096
 Alpha  occ. eigenvalues --   -0.40372  -0.40363  -0.40079  -0.39700  -0.39367
 Alpha  occ. eigenvalues --   -0.39200  -0.39011  -0.38723  -0.38403  -0.38289
 Alpha  occ. eigenvalues --   -0.38199  -0.37126  -0.36323  -0.36295  -0.35793
 Alpha  occ. eigenvalues --   -0.35421  -0.35357  -0.34933  -0.34621  -0.33389
 Alpha  occ. eigenvalues --   -0.33367  -0.33197  -0.32914  -0.32047  -0.32015
 Alpha  occ. eigenvalues --   -0.31845  -0.31630  -0.31492  -0.26017  -0.25746
 Alpha  occ. eigenvalues --   -0.22935  -0.22414
 Alpha virt. eigenvalues --   -0.07118  -0.06149   0.00168   0.00171   0.01972
 Alpha virt. eigenvalues --    0.02316   0.04299   0.04599   0.05891   0.06252
 Alpha virt. eigenvalues --    0.07090   0.07243   0.07586   0.08504   0.08875

 Mulliken charges:
               1
     1  Mg   0.978316
     2  C   -0.020065
     3  C   -0.101369
     4  C   -0.061238
     5  C   -0.071034
     6  N   -0.323181
     7  C   -0.008535
     8  C   -0.058192
     9  C   -0.138085
    10  C    0.061875
    11  C    0.058269
    12  C    0.014081
    13  C   -0.126952
    14  H    0.052344
    15  N   -0.518320
    16  C    0.183570
    17  C   -0.196018
    18  C   -0.036934
    19  C    0.166471
    20  C    0.060688
    21  C    0.056557
    22  O   -0.280022
    23  C    0.001974
    24  N   -0.410360
    25  C    0.066239
    26  C   -0.084831
    27  C   -0.063961
    28  C    0.089836
    29  C    0.031866
    30  C   -0.016699
    31  C   -0.058135
    32  N   -0.398628
    33  C    0.097170
    34  C   -0.187992
    35  C   -0.040100
    36  C    0.126565
    37  C    0.081476
    38  C    0.128850
    39  O   -0.224774
    40  C   -0.076882
    41  C    0.275787
    42  O   -0.284590
    43  O   -0.335606
    44  C    0.120640
    45  H    0.007912
    46  H    0.010680
    47  H   -0.017357
    48  H    0.026025
    49  H    0.022613
    50  H    0.047120
    51  H    0.037810
    52  H    0.040111
    53  H    0.035371
    54  H    0.067671
    55  H    0.038972
    56  H    0.040626
    57  H    0.029658
    58  H    0.049041
    59  H    0.062135
    60  H    0.057775
    61  H    0.061827
    62  H    0.052968
    63  H    0.042938
    64  H    0.035685
    65  H    0.045335
    66  H    0.034343
    67  H    0.025727
    68  H    0.032634
    69  H    0.029403
    70  H    0.029215
    71  H    0.042176
    72  H    0.049642
    73  H    0.070863
    74  H    0.031393
    75  H    0.069420
    76  H    0.065885
    77  H    0.061275
    78  H    0.062817
    79  H    0.070225
    80  Mg   0.992875
    81  C    0.010848
    82  C   -0.117727
    83  C   -0.080870
    84  C   -0.116984
    85  N   -0.330613
    86  C   -0.016800
    87  C   -0.037163
    88  C   -0.154020
    89  C    0.076285
    90  C    0.047333
    91  C    0.007356
    92  C   -0.126015
    93  H    0.026398
    94  N   -0.509717
    95  C    0.180063
    96  C   -0.131365
    97  C   -0.119535
    98  C    0.182717
    99  C    0.046262
   100  C    0.071639
   101  O   -0.201853
   102  C   -0.025186
   103  N   -0.321181
   104  C    0.020845
   105  C   -0.086053
   106  C   -0.050034
   107  C   -0.008371
   108  C    0.024212
   109  C   -0.010781
   110  C   -0.046763
   111  N   -0.398782
   112  C    0.159978
   113  C   -0.187033
   114  C    0.034849
   115  C    0.091406
   116  C    0.104721
   117  C    0.050724
   118  O   -0.214296
   119  C   -0.074713
   120  C    0.264401
   121  O   -0.268167
   122  O   -0.355792
   123  C    0.151831
   124  H   -0.008445
   125  H    0.016498
   126  H   -0.010541
   127  H    0.043134
   128  H    0.031892
   129  H    0.045730
   130  H    0.038596
   131  H    0.045923
   132  H    0.033220
   133  H    0.041102
   134  H    0.049092
   135  H    0.062504
   136  H    0.060515
   137  H    0.029702
   138  H    0.066573
   139  H    0.061510
   140  H    0.069391
   141  H    0.048083
   142  H    0.035061
   143  H    0.029190
   144  H    0.038301
   145  H    0.025914
   146  H    0.050248
   147  H    0.032273
   148  H    0.032276
   149  H    0.028541
   150  H    0.041163
   151  H    0.043820
   152  H    0.059439
   153  H    0.063935
   154  H    0.019670
   155  H    0.072638
   156  H    0.061542
   157  H    0.057164
   158  H    0.029414
 Sum of Mulliken charges =  -0.00000

 Dipole moment (field-independent basis, Debye):
    X=              8.3341    Y=              1.8678    Z=              1.7384  Tot=              8.7159
 Quadrupole moment (field-independent basis, Debye-Ang):
   XX=           -618.7084   YY=           -465.8818   ZZ=           -510.0634
   XY=             45.6932   XZ=            112.4751   YZ=             21.8518

 Normal termination of Gaussian 16 at Sun Sep 19 07:34:27 2021.
