 Gaussian 16, Revision A.03,
 Gaussian 16:  ES64L-G16RevA.03 25-Dec-2016

 --------------------------------
 #p wB97XD/Def2SVP td=(nstates=5)
 --------------------------------

 --------------------------------
 TDDFT excited states in gaussian
 --------------------------------
 Symbolic Z-matrix:
 Charge =  0 Multiplicity = 1

                         Standard orientation:
 ---------------------------------------------------------------------
 Center     Atomic      Atomic             Coordinates (Angstroms)
 Number     Number       Type             X           Y           Z
 ---------------------------------------------------------------------
      1         12           0       24.786845   -0.827538    0.253071
      2          6           0       24.799780    2.208966   -1.669952
      3          6           0       25.288671    1.232588    3.094714
      4          6           0       24.942038   -3.656288    2.295227
      5          6           0       24.709718   -2.685127   -2.522487
      6          7           0       25.226408    1.529429    0.587554
      7          6           0       25.053625    2.508836   -0.325800
      8          6           0       25.348141    3.907245    0.326807
      9          6           0       25.702207    3.468863    1.792789
     10          6           0       25.311805    1.975782    1.883519
     11          6           0       27.202603    3.750379    2.153524
     12          6           0       24.160380    4.867359    0.266200
     13          6           0       24.469702    6.276781   -0.119095
     14          1           0       23.309007    7.266551   -0.295278
     15          7           0       24.862598   -1.183694    2.362944
     16          6           0       25.077009   -0.203880    3.326597
     17          6           0       25.067329   -0.842916    4.627569
     18          6           0       24.872296   -2.203588    4.457553
     19          6           0       24.962324   -2.422603    2.974544
     20          6           0       25.376701   -0.149751    5.923301
     21          6           0       24.796770   -3.385666    5.508456
     22          8           0       24.625772   -4.559424    5.286723
     23          6           0       24.767892   -3.041767    6.981936
     24          7           0       24.972730   -2.824329   -0.026827
     25          6           0       25.019136   -3.837403    0.895082
     26          6           0       25.305587   -5.209604    0.241735
     27          6           0       24.983648   -4.937108   -1.289105
     28          6           0       24.848116   -3.366764   -1.271606
     29          6           0       26.743449   -5.741294    0.542427
     30          6           0       23.700666   -5.648082   -1.817404
     31          6           0       22.379124   -5.139898   -1.245491
     32          7           0       24.788992   -0.420442   -1.678563
     33          6           0       24.683127   -1.310286   -2.783671
     34          6           0       24.666792   -0.567047   -4.041665
     35          6           0       24.655952    0.781458   -3.642270
     36          6           0       24.717028    0.840070   -2.224752
     37          6           0       24.600754   -1.142699   -5.379678
     38          6           0       24.624595    2.130591   -4.197749
     39          8           0       24.512122    2.489470   -5.357937
     40          6           0       24.807723    3.138666   -2.939654
     41          6           0       23.589878    4.040173   -3.156057
     42          8           0       22.388163    3.772204   -2.976618
     43          8           0       23.999151    5.196028   -3.649303
     44          6           0       23.035425    6.369714   -3.689500
     45          1           0       25.368453    1.881706    3.968857
     46          1           0       24.990192   -4.596155    2.850689
     47          1           0       24.610580   -3.350653   -3.382202
     48          1           0       26.132862    4.332149   -0.298206
     49          1           0       25.074102    3.974785    2.527247
     50          1           0       27.374425    4.357464    3.042356
     51          1           0       27.808671    4.078558    1.308871
     52          1           0       27.782458    2.893523    2.497285
     53          1           0       23.992677    5.054219    1.327036
     54          1           0       23.278863    4.431752   -0.205496
     55          1           0       25.108890    6.478540   -0.980176
     56          1           0       25.032845    6.644031    0.738937
     57          1           0       25.432931    0.930590    5.792376
     58          1           0       26.302203   -0.463859    6.408387
     59          1           0       24.627932   -0.260982    6.707738
     60          1           0       23.916564   -2.414226    7.245404
     61          1           0       25.742458   -2.571109    7.111944
     62          1           0       24.842242   -4.016479    7.464162
     63          1           0       24.643432   -5.891003    0.777073
     64          1           0       25.814982   -4.984798   -1.992809
     65          1           0       26.740708   -6.614880    1.194250
     66          1           0       27.489900   -5.033025    0.900253
     67          1           0       27.077970   -6.003749   -0.461387
     68          1           0       23.900332   -6.719726   -1.820397
     69          1           0       23.628955   -5.432792   -2.883387
     70          1           0       22.457654   -4.407972   -0.442437
     71          1           0       21.887967   -6.017879   -0.826686
     72          1           0       21.754320   -4.568742   -1.931188
     73          1           0       24.606366   -0.418243   -6.194320
     74          1           0       23.675175   -1.718102   -5.392296
     75          1           0       25.432146   -1.842399   -5.476231
     76          1           0       25.659825    3.806742   -3.064810
     77          1           0       23.657575    7.255989   -3.816120
     78          1           0       22.507333    6.517464   -2.747976
     79          1           0       22.266491    6.274923   -4.457098
     80         12           0      -25.306430   -0.609570   -0.314362
     81          6           0      -23.081705    2.341955    0.076299
     82          6           0      -27.303766    1.020007    1.871740
     83          6           0      -26.980909   -3.294577   -0.500054
     84          6           0      -22.527918   -2.195581   -1.875887
     85          7           0      -25.147985    1.405392    0.851531
     86          6           0      -24.272791    2.467145    0.696975
     87          6           0      -24.727083    3.771115    1.362786
     88          6           0      -25.831413    3.185716    2.296118
     89          6           0      -26.141958    1.771817    1.668852
     90          6           0      -25.454214    3.076919    3.739998
     91          6           0      -25.176308    4.937459    0.420052
     92          6           0      -24.963639    6.338980    0.886132
     93          1           0      -26.061610    7.326864    0.504870
     94          7           0      -26.995697   -1.090359    0.545233
     95          6           0      -27.747271   -0.258306    1.401178
     96          6           0      -29.007486   -0.901699    1.637331
     97          6           0      -28.951111   -2.098616    0.798953
     98          6           0      -27.638955   -2.170289    0.265156
     99          6           0      -30.196431   -0.286765    2.464442
    100          6           0      -30.084397   -3.053278    0.578493
    101          8           0      -29.952117   -4.098004   -0.104481
    102          6           0      -31.456031   -2.822166    1.098883
    103          7           0      -24.824258   -2.532015   -0.915810
    104          6           0      -25.724398   -3.517238   -0.921725
    105          6           0      -25.197030   -4.853904   -1.535135
    106          6           0      -23.970440   -4.279487   -2.337310
    107          6           0      -23.711191   -2.915007   -1.641960
    108          6           0      -24.743940   -5.869941   -0.437783
    109          6           0      -24.305894   -4.053131   -3.871241
    110          6           0      -24.877031   -5.220895   -4.702822
    111          7           0      -23.246848   -0.061858   -0.851537
    112          6           0      -22.298910   -0.813415   -1.536597
    113          6           0      -21.078993   -0.051696   -1.668140
    114          6           0      -21.354100    1.193468   -1.088584
    115          6           0      -22.656476    1.127864   -0.521583
    116          6           0      -19.848085   -0.453061   -2.409157
    117          6           0      -20.787084    2.507566   -0.815567
    118          8           0      -19.726020    3.049968   -1.094675
    119          6           0      -22.002119    3.305584   -0.109697
    120          6           0      -21.441623    3.876791    1.102855
    121          8           0      -20.975535    3.257431    2.072100
    122          8           0      -21.104252    5.172223    0.833498
    123          6           0      -20.467649    5.954705    1.843904
    124          1           0      -27.963153    1.662231    2.459589
    125          1           0      -27.524004   -4.237406   -0.590627
    126          1           0      -21.717116   -2.729912   -2.376200
    127          1           0      -23.897144    4.122455    1.976231
    128          1           0      -26.767824    3.727664    2.167071
    129          1           0      -25.287314    2.019498    3.945292
    130          1           0      -26.293387    3.386471    4.362784
    131          1           0      -24.567505    3.619247    4.067629
    132          1           0      -26.253658    4.838577    0.290326
    133          1           0      -24.717855    4.761197   -0.552642
    134          1           0      -24.036035    6.631117    0.394295
    135          1           0      -24.648926    6.391008    1.928504
    136          1           0      -31.040628    0.073519    1.877286
    137          1           0      -29.847031    0.487900    3.146496
    138          1           0      -30.488767   -1.139505    3.078461
    139          1           0      -31.454318   -3.030371    2.169118
    140          1           0      -32.092623   -3.533143    0.571526
    141          1           0      -31.725862   -1.805144    0.816297
    142          1           0      -26.018888   -5.250336   -2.132318
    143          1           0      -23.050555   -4.859905   -2.273210
    144          1           0      -25.448054   -6.701299   -0.480107
    145          1           0      -24.647810   -5.470191    0.571181
    146          1           0      -23.775321   -6.188568   -0.825558
    147          1           0      -23.382680   -3.796742   -4.390349
    148          1           0      -24.930892   -3.161270   -3.913053
    149          1           0      -25.832744   -4.851448   -5.074299
    150          1           0      -25.049421   -6.008507   -3.968743
    151          1           0      -24.234026   -5.494437   -5.539240
    152          1           0      -20.158348   -1.318347   -2.995370
    153          1           0      -19.120573   -0.738747   -1.649465
    154          1           0      -19.403295    0.347301   -3.000470
    155          1           0      -22.360936    4.087870   -0.778314
    156          1           0      -20.350767    5.397479    2.773647
    157          1           0      -21.153660    6.780154    2.034380
    158          1           0      -19.551432    6.411354    1.472297
 ---------------------------------------------------------------------

 SCF Done:  E(RwB97XD) =  -4070.59118700     A.U. after   20 cycles

 Excitation energies and oscillator strengths:

 Excited State   1:      Singlet-A      1.5889 eV  780.34 nm  f=0.3636  <S**2>=0.000
     310 -> 315        0.18990
     312 -> 314        0.68300
     310 <- 315        0.12269
 This state for optimization and/or second-order correction.
 Total Energy, E(TD-HF/TD-DFT) =  -4070.53279760
 Copying the excited state density for this state as the 1-particle RhoCI density.

 Excited State   2:      Singlet-A      1.6008 eV  774.50 nm  f=0.3923  <S**2>=0.000
     309 -> 316       -0.16169
     311 -> 313        0.68925
     309 <- 316       -0.11298

 Excited State   3:      Singlet-A      2.1246 eV  583.55 nm  f=0.2104  <S**2>=0.000
     309 -> 313        0.66538
     311 -> 316        0.22068

 Excited State   4:      Singlet-A      2.1588 eV  574.31 nm  f=0.0898  <S**2>=0.000
     310 -> 314        0.62442
     312 -> 315       -0.32205

 Excited State   5:      Singlet-A      3.1833 eV  389.48 nm  f=0.0051  <S**2>=0.000
     305 -> 313        0.18179
     307 -> 313        0.66089

 The electronic state is 1-A.
 Alpha  occ. eigenvalues --  -46.95231 -46.94605 -19.30121 -19.30047 -19.24989
 Alpha  occ. eigenvalues --  -19.24519 -19.24395 -19.24382 -19.22947 -19.22438
 Alpha  occ. eigenvalues --  -14.47049 -14.46930 -14.46114 -14.45995 -14.44711
 Alpha  occ. eigenvalues --  -14.44278 -14.44268 -14.44192 -10.43011 -10.42301
 Alpha  occ. eigenvalues --  -10.40047 -10.39555 -10.39398 -10.37919 -10.35962
 Alpha  occ. eigenvalues --  -10.35451 -10.35446 -10.35362 -10.35247 -10.35116
 Alpha  occ. eigenvalues --  -10.35109 -10.34846 -10.34787 -10.34769 -10.34685
 Alpha  occ. eigenvalues --  -10.34677 -10.34475 -10.34440 -10.34011 -10.33920
 Alpha  occ. eigenvalues --  -10.33836 -10.33201 -10.33113 -10.32913 -10.32908
 Alpha  occ. eigenvalues --  -10.32875 -10.32707 -10.32640 -10.32483 -10.32457
 Alpha  occ. eigenvalues --  -10.32447 -10.32392 -10.32388 -10.32376 -10.32263
 Alpha  occ. eigenvalues --  -10.32212 -10.32176 -10.32158 -10.32054 -10.32036
 Alpha  occ. eigenvalues --  -10.31993 -10.31698 -10.31632 -10.31535 -10.31408
 Alpha  occ. eigenvalues --  -10.31319 -10.30987 -10.30830 -10.30764 -10.30747
 Alpha  occ. eigenvalues --  -10.30659 -10.30317 -10.30081 -10.30071 -10.30001
 Alpha  occ. eigenvalues --  -10.29904 -10.29858 -10.29777 -10.29635 -10.29614
 Alpha  occ. eigenvalues --  -10.29581 -10.29552 -10.29441 -10.29428 -10.29373
 Alpha  occ. eigenvalues --  -10.29190  -3.21333  -3.20734  -1.94892  -1.94455
 Alpha  occ. eigenvalues --   -1.94320  -1.94311  -1.93874  -1.93706  -1.18732
 Alpha  occ. eigenvalues --   -1.18107  -1.13663  -1.12508  -1.12250  -1.09630
 Alpha  occ. eigenvalues --   -1.09222  -1.07452  -1.06921  -1.06050  -1.05760
 Alpha  occ. eigenvalues --   -1.05659  -1.05100  -1.04590  -1.04243  -1.03723
 Alpha  occ. eigenvalues --   -0.95706  -0.92800  -0.91411  -0.91078  -0.90673
 Alpha  occ. eigenvalues --   -0.90585  -0.89951  -0.89911  -0.89386  -0.89279
 Alpha  occ. eigenvalues --   -0.88875  -0.88783  -0.88377  -0.88174  -0.86627
 Alpha  occ. eigenvalues --   -0.86019  -0.85972  -0.85444  -0.85018  -0.84248
 Alpha  occ. eigenvalues --   -0.84013  -0.83420  -0.83027  -0.82952  -0.82776
 Alpha  occ. eigenvalues --   -0.82110  -0.80503  -0.80084  -0.79413  -0.79210
 Alpha  occ. eigenvalues --   -0.79193  -0.78861  -0.78165  -0.77877  -0.77378
 Alpha  occ. eigenvalues --   -0.77046  -0.75356  -0.74561  -0.73604  -0.72894
 Alpha  occ. eigenvalues --   -0.71949  -0.71208  -0.70711  -0.70588  -0.70172
 Alpha  occ. eigenvalues --   -0.69478  -0.68909  -0.68236  -0.67649  -0.67405
 Alpha  occ. eigenvalues --   -0.67080  -0.67046  -0.66893  -0.66578  -0.66454
 Alpha  occ. eigenvalues --   -0.66053  -0.64046  -0.63755  -0.62730  -0.61779
 Alpha  occ. eigenvalues --   -0.61582  -0.61493  -0.61272  -0.60896  -0.60835
 Alpha  occ. eigenvalues --   -0.60383  -0.59693  -0.59690  -0.59347  -0.58168
 Alpha  occ. eigenvalues --   -0.57852  -0.57622  -0.57600  -0.57393  -0.57021
 Alpha  occ. eigenvalues --   -0.56855  -0.56609  -0.56562  -0.56092  -0.55875
 Alpha  occ. eigenvalues --   -0.55658  -0.55257  -0.55178  -0.55132  -0.54814
 Alpha  occ. eigenvalues --   -0.54768  -0.54628  -0.54463  -0.54346  -0.54310
 Alpha  occ. eigenvalues --   -0.54036  -0.53692  -0.53440  -0.53343  -0.53179
 Alpha  occ. eigenvalues --   -0.52929  -0.52880  -0.52819  -0.52214  -0.52040
 Alpha  occ. eigenvalues --   -0.51837  -0.51814  -0.51726  -0.51633  -0.51539
 Alpha  occ. eigenvalues --   -0.51444  -0.51196  -0.51152  -0.51143  -0.50890
 Alpha  occ. eigenvalues --   -0.50645  -0.50544  -0.50344  -0.50248  -0.50067
 Alpha  occ. eigenvalues --   -0.50054  -0.49779  -0.49511  -0.49424  -0.49342
 Alpha  occ. eigenvalues --   -0.49164  -0.48654  -0.48560  -0.48447  -0.48348
 Alpha  occ. eigenvalues --   -0.48270  -0.48137  -0.48101  -0.47890  -0.47728
 Alpha  occ. eigenvalues --   -0.47409  -0.47372  -0.47189  -0.47030  -0.46914
 Alpha  occ. eigenvalues --   -0.46812  -0.46736  -0.46316  -0.46288  -0.46047
 Alpha  occ. eigenvalues --   -0.45913  -0.45871  -0.45663  -0.45575  -0.45445
 Alpha  occ. eigenvalues --   -0.45175  -0.45054  -0.45047  -0.44935  -0.44883
 Alpha  occ. eigenvalues --   -0.44757  -0.44590  -0.44489  -0.44041  -0.44030
 Alpha  occ. eigenvalues --   -0.43908  -0.43761  -0.43596  -0.43280  -0.43232
 Alpha  occ. eigenvalues --   -0.42808  -0.42650  -0.42581  -0.42248  -0.42087
 Alpha  occ. eigenvalues --   -0.41737  -0.41447  -0.41367  -0.41226  -0.41064
 Alpha  occ. eigenvalues --   -0.40511  -0.40470  -0.40158  -0.39957  -0.39682
 Alpha  occ. eigenvalues --   -0.39522  -0.39225  -0.38692  -0.38399  -0.38014
 Alpha  occ. eigenvalues --   -0.37854  -0.37630  -0.36619  -0.36266  -0.35880
 Alpha  occ. eigenvalues --   -0.35391  -0.35318  -0.34692  -0.33776  -0.33581
 Alpha  occ. eigenvalues --   -0.33437  -0.32968  -0.32785  -0.32489  -0.32240
 Alpha  occ. eigenvalues --   -0.32130  -0.32068  -0.31763  -0.26170  -0.26003
 Alpha  occ. eigenvalues --   -0.23543  -0.22736
 Alpha virt. eigenvalues --   -0.08019  -0.07044  -0.00105   0.01145   0.02362
 Alpha virt. eigenvalues --    0.02727   0.04285   0.04503   0.04948   0.06107
 Alpha virt. eigenvalues --    0.06530   0.07615   0.07650   0.07995   0.08309

 Mulliken charges:
               1
     1  Mg   0.988028
     2  C    0.030725
     3  C   -0.071673
     4  C   -0.057291
     5  C   -0.104991
     6  N   -0.311446
     7  C   -0.008566
     8  C   -0.088518
     9  C   -0.082901
    10  C    0.047621
    11  C    0.016133
    12  C    0.051533
    13  C   -0.150369
    14  H    0.031602
    15  N   -0.450242
    16  C    0.180590
    17  C   -0.160890
    18  C   -0.081907
    19  C    0.134269
    20  C    0.055253
    21  C    0.057017
    22  O   -0.216008
    23  C   -0.009365
    24  N   -0.398424
    25  C    0.036474
    26  C   -0.083139
    27  C   -0.076529
    28  C    0.060731
    29  C    0.027347
    30  C   -0.006054
    31  C   -0.051470
    32  N   -0.527422
    33  C    0.158604
    34  C   -0.163631
    35  C   -0.041812
    36  C    0.162035
    37  C    0.081435
    38  C    0.128600
    39  O   -0.198777
    40  C   -0.130076
    41  C    0.252178
    42  O   -0.286940
    43  O   -0.341684
    44  C    0.147864
    45  H   -0.001401
    46  H    0.022964
    47  H   -0.006047
    48  H    0.039114
    49  H    0.035214
    50  H    0.033065
    51  H    0.038301
    52  H    0.025647
    53  H    0.023403
    54  H    0.069099
    55  H    0.048360
    56  H    0.037552
    57  H    0.022346
    58  H    0.055761
    59  H    0.037850
    60  H    0.076508
    61  H    0.035015
    62  H    0.053189
    63  H    0.040848
    64  H    0.042979
    65  H    0.048269
    66  H    0.047184
    67  H    0.024249
    68  H    0.039495
    69  H    0.022300
    70  H    0.040676
    71  H    0.045477
    72  H    0.042434
    73  H    0.065312
    74  H    0.051818
    75  H    0.044422
    76  H    0.067537
    77  H    0.057675
    78  H    0.052445
    79  H    0.073029
    80  Mg   0.983141
    81  C   -0.013703
    82  C   -0.065824
    83  C   -0.042874
    84  C   -0.083006
    85  N   -0.296662
    86  C   -0.036667
    87  C   -0.083922
    88  C   -0.102421
    89  C   -0.016652
    90  C    0.047892
    91  C    0.043102
    92  C   -0.116549
    93  H    0.053872
    94  N   -0.496684
    95  C    0.190153
    96  C   -0.170724
    97  C   -0.082116
    98  C    0.148039
    99  C    0.071857
   100  C    0.008733
   101  O   -0.274950
   102  C    0.009663
   103  N   -0.391723
   104  C    0.045178
   105  C   -0.110501
   106  C   -0.102356
   107  C    0.088855
   108  C    0.051775
   109  C   -0.033933
   110  C   -0.032706
   111  N   -0.399860
   112  C    0.123198
   113  C   -0.202530
   114  C   -0.040115
   115  C    0.129278
   116  C    0.087819
   117  C    0.156514
   118  O   -0.192244
   119  C   -0.060043
   120  C    0.245533
   121  O   -0.268759
   122  O   -0.350382
   123  C    0.133667
   124  H   -0.007703
   125  H    0.013680
   126  H    0.005016
   127  H    0.033317
   128  H    0.025418
   129  H    0.044485
   130  H    0.034238
   131  H    0.048404
   132  H    0.032025
   133  H    0.031297
   134  H    0.048021
   135  H    0.042919
   136  H    0.067977
   137  H    0.040264
   138  H    0.043046
   139  H    0.064029
   140  H    0.055104
   141  H    0.045525
   142  H    0.047105
   143  H    0.025427
   144  H    0.046371
   145  H    0.060243
   146  H    0.027967
   147  H    0.024676
   148  H    0.033420
   149  H    0.042552
   150  H    0.036203
   151  H    0.048613
   152  H    0.031185
   153  H    0.060039
   154  H    0.065052
   155  H    0.071937
   156  H    0.066089
   157  H    0.033732
   158  H    0.061961
 Sum of Mulliken charges =  -0.00000

 Dipole moment (field-independent basis, Debye):
    X=             -0.3696    Y=              1.9336    Z=              3.1350  Tot=              3.7019
 Quadrupole moment (field-independent basis, Debye-Ang):
   XX=           -257.2778   YY=           -473.0355   ZZ=           -505.4032
   XY=            -57.0949   XZ=             73.4773   YZ=             44.2868

 Normal termination of Gaussian 16 at Sun Sep 19 07:43:55 2021.
