 Gaussian 16, Revision A.03,
 Gaussian 16:  ES64L-G16RevA.03 25-Dec-2016

 --------------------------------
 #p wB97XD/Def2SVP td=(nstates=5)
 --------------------------------

 --------------------------------
 TDDFT excited states in gaussian
 --------------------------------
 Symbolic Z-matrix:
 Charge =  0 Multiplicity = 1

                         Standard orientation:
 ---------------------------------------------------------------------
 Center     Atomic      Atomic             Coordinates (Angstroms)
 Number     Number       Type             X           Y           Z
 ---------------------------------------------------------------------
      1         12           0       29.220285    0.429179    0.066897
      2          6           0       26.591690   -1.265768   -1.554997
      3          6           0       30.794807   -2.544255    0.525443
      4          6           0       31.658733    2.092448    1.718397
      5          6           0       27.331106    3.340346   -0.054150
      6          7           0       28.716041   -1.642352   -0.355973
      7          6           0       27.643430   -2.094467   -1.129448
      8          6           0       27.820740   -3.554468   -1.420192
      9          6           0       28.861613   -3.981725   -0.358210
     10          6           0       29.515509   -2.613953   -0.033232
     11          6           0       28.325893   -4.632468    0.956068
     12          6           0       28.257132   -3.914847   -2.890104
     13          6           0       27.467005   -5.018956   -3.517359
     14          1           0       28.268771   -6.095997   -4.271773
     15          7           0       30.982594   -0.138076    0.872651
     16          6           0       31.531781   -1.430960    0.892428
     17          6           0       32.811515   -1.402934    1.480177
     18          6           0       33.122950   -0.011804    1.854465
     19          6           0       31.934870    0.701145    1.480680
     20          6           0       33.652491   -2.601572    1.809346
     21          6           0       34.364356    0.651694    2.594444
     22          8           0       34.411131    1.844710    2.779442
     23          6           0       35.572858   -0.181012    2.997796
     24          7           0       29.405024    2.415464    0.832408
     25          6           0       30.515581    2.830971    1.494614
     26          6           0       30.350144    4.360566    1.945534
     27          6           0       29.085763    4.842311    1.108052
     28          6           0       28.548726    3.442973    0.583604
     29          6           0       30.166500    4.614152    3.467403
     30          6           0       29.425444    5.835787   -0.059541
     31          6           0       28.609657    7.057149    0.020834
     32          7           0       27.332470    0.948160   -0.603477
     33          6           0       26.737994    2.206472   -0.684887
     34          6           0       25.467159    2.103979   -1.349065
     35          6           0       25.361042    0.767841   -1.677467
     36          6           0       26.478552    0.120051   -1.254254
     37          6           0       24.577550    3.339912   -1.643379
     38          6           0       24.502329   -0.231733   -2.285734
     39          8           0       23.363799   -0.098399   -2.677202
     40          6           0       25.280824   -1.637521   -2.207205
     41          6           0       24.464933   -2.593397   -1.436176
     42          8           0       24.081083   -2.409971   -0.251223
     43          8           0       24.179864   -3.659625   -2.237870
     44          6           0       23.067030   -4.514916   -1.746854
     45          1           0       31.220354   -3.538870    0.673866
     46          1           0       32.388054    2.701186    2.256588
     47          1           0       26.721387    4.245096   -0.020744
     48          1           0       26.949533   -4.164240   -1.177823
     49          1           0       29.594589   -4.697602   -0.730584
     50          1           0       27.430852   -5.239974    0.815886
     51          1           0       28.141371   -3.819324    1.658576
     52          1           0       29.045632   -5.227528    1.517610
     53          1           0       29.319148   -4.148645   -2.818001
     54          1           0       28.233345   -3.040568   -3.541275
     55          1           0       26.803427   -4.452673   -4.171069
     56          1           0       26.950270   -5.584181   -2.741836
     57          1           0       34.523657   -2.756980    1.172555
     58          1           0       33.066491   -3.504443    1.642296
     59          1           0       34.044599   -2.696700    2.821562
     60          1           0       36.317921    0.534478    3.343568
     61          1           0       35.880985   -0.856117    2.198893
     62          1           0       35.270230   -0.944194    3.715380
     63          1           0       31.267195    4.910483    1.733459
     64          1           0       28.368393    5.288047    1.798719
     65          1           0       30.087251    3.730373    4.101309
     66          1           0       29.277835    5.201874    3.698874
     67          1           0       31.032076    5.191698    3.793023
     68          1           0       29.171168    5.357263   -1.006034
     69          1           0       30.460034    6.177756   -0.078478
     70          1           0       29.210407    7.845232    0.475605
     71          1           0       27.630799    7.011385    0.496853
     72          1           0       28.303294    7.352121   -0.982837
     73          1           0       25.182945    4.241464   -1.546580
     74          1           0       23.655038    3.317063   -1.061445
     75          1           0       24.335453    3.244487   -2.701206
     76          1           0       25.484361   -2.040204   -3.199759
     77          1           0       22.805187   -5.261456   -2.496481
     78          1           0       22.202293   -3.852213   -1.706511
     79          1           0       23.371858   -4.896664   -0.772055
     80         12           0      -29.324995   -0.131137    0.010322
     81          6           0      -25.913772   -0.386443   -0.615603
     82          6           0      -28.738647   -1.484034    3.148721
     83          6           0      -32.420898    0.554051    0.943656
     84          6           0      -29.703574    1.657641   -2.928296
     85          7           0      -27.532384   -0.698228    1.195756
     86          6           0      -26.259627   -0.850226    0.684991
     87          6           0      -25.327710   -1.537699    1.638520
     88          6           0      -26.350591   -2.206939    2.658875
     89          6           0      -27.615374   -1.409041    2.370887
     90          6           0      -26.499865   -3.796467    2.793835
     91          6           0      -24.199576   -0.607200    2.284660
     92          6           0      -24.550877    0.889479    2.535617
     93          1           0      -24.043634    1.434505    3.849106
     94          7           0      -30.411842   -0.313705    1.842523
     95          6           0      -29.982531   -0.921446    3.028930
     96          6           0      -30.983261   -0.836812    4.057043
     97          6           0      -32.092630   -0.211242    3.439755
     98          6           0      -31.693994    0.075566    2.029512
     99          6           0      -30.807219   -1.602659    5.369263
    100          6           0      -33.417522    0.029472    4.198601
    101          8           0      -33.539203   -0.223066    5.401589
    102          6           0      -34.541791    0.524310    3.389720
    103          7           0      -30.767187    1.066266   -0.861307
    104          6           0      -32.063264    0.945280   -0.389050
    105          6           0      -33.108434    1.590993   -1.325204
    106          6           0      -32.116800    2.130437   -2.435990
    107          6           0      -30.789977    1.647856   -2.049123
    108          6           0      -34.213661    0.751445   -1.883838
    109          6           0      -32.091642    3.739608   -2.527451
    110          6           0      -32.177015    4.203063   -3.958326
    111          7           0      -28.125971    0.372291   -1.617916
    112          6           0      -28.425500    1.109382   -2.748616
    113          6           0      -27.218023    1.247527   -3.594624
    114          6           0      -26.188383    0.659102   -2.780744
    115          6           0      -26.803984    0.167568   -1.623709
    116          6           0      -26.987998    2.049038   -4.810978
    117          6           0      -24.743796    0.394703   -2.610372
    118          8           0      -23.816170    0.725524   -3.312123
    119          6           0      -24.520780   -0.319634   -1.238577
    120          6           0      -23.829396   -1.594207   -1.435971
    121          8           0      -22.731507   -1.971466   -1.025690
    122          8           0      -24.525942   -2.283091   -2.463336
    123          6           0      -24.016272   -3.634646   -2.779317
    124          1           0      -28.558012   -2.134865    4.007368
    125          1           0      -33.501763    0.656391    1.059735
    126          1           0      -29.945861    2.166066   -3.863211
    127          1           0      -24.753684   -2.304237    1.118046
    128          1           0      -25.946094   -1.844675    3.604328
    129          1           0      -25.793480   -4.390384    2.214121
    130          1           0      -27.460912   -4.178281    2.449541
    131          1           0      -26.229868   -4.096501    3.806721
    132          1           0      -23.269934   -0.685856    1.721988
    133          1           0      -23.941271   -1.068290    3.237926
    134          1           0      -25.626987    1.049935    2.462993
    135          1           0      -24.095367    1.509109    1.763664
    136          1           0      -31.283407   -1.124114    6.225616
    137          1           0      -29.751557   -1.609555    5.639350
    138          1           0      -31.262720   -2.579297    5.203870
    139          1           0      -34.869338   -0.276200    2.727065
    140          1           0      -34.238183    1.419390    2.845900
    141          1           0      -35.326261    0.753552    4.110881
    142          1           0      -33.463899    2.498749   -0.837076
    143          1           0      -32.396646    1.535489   -3.305349
    144          1           0      -34.680510    1.356567   -2.661173
    145          1           0      -34.968248    0.658587   -1.102741
    146          1           0      -33.829032   -0.211648   -2.221509
    147          1           0      -31.178510    4.060155   -2.026082
    148          1           0      -32.826960    4.282446   -1.932189
    149          1           0      -31.213466    4.636042   -4.225958
    150          1           0      -32.805444    5.087049   -4.071688
    151          1           0      -32.318179    3.345799   -4.616243
    152          1           0      -27.850394    2.601935   -5.186331
    153          1           0      -26.729465    1.335085   -5.592211
    154          1           0      -26.306477    2.803790   -4.419089
    155          1           0      -23.911457    0.378534   -0.665132
    156          1           0      -24.938549   -4.213978   -2.835819
    157          1           0      -23.332552   -4.150231   -2.104871
    158          1           0      -23.707158   -3.567894   -3.822600
 ---------------------------------------------------------------------

 SCF Done:  E(RwB97XD) =  -4070.63008521     A.U. after   19 cycles

 Excitation energies and oscillator strengths:

 Excited State   1:      Singlet-A      1.6615 eV  746.21 nm  f=0.3708  <S**2>=0.000
     309 -> 315        0.18778
     312 -> 314        0.68148
     309 <- 315        0.11477
 This state for optimization and/or second-order correction.
 Total Energy, E(TD-HF/TD-DFT) =  -4070.56902514
 Copying the excited state density for this state as the 1-particle RhoCI density.

 Excited State   2:      Singlet-A      1.6894 eV  733.89 nm  f=0.3945  <S**2>=0.000
     310 -> 316       -0.18339
     311 -> 313        0.68253
     310 <- 316       -0.11554

 Excited State   3:      Singlet-A      2.1431 eV  578.52 nm  f=0.1542  <S**2>=0.000
     310 -> 313        0.65150
     311 -> 316        0.25247

 Excited State   4:      Singlet-A      2.1479 eV  577.24 nm  f=0.0863  <S**2>=0.000
     309 -> 314        0.62828
     312 -> 315       -0.30699

 Excited State   5:      Singlet-A      3.1999 eV  387.47 nm  f=0.0021  <S**2>=0.000
     306 -> 313        0.29707
     308 -> 313        0.62282

 The electronic state is 1-A.
 Alpha  occ. eigenvalues --  -46.95443 -46.93527 -19.30855 -19.29567 -19.25476
 Alpha  occ. eigenvalues --  -19.24918 -19.24456 -19.24051 -19.24051 -19.23864
 Alpha  occ. eigenvalues --  -14.46832 -14.46773 -14.46655 -14.46074 -14.44251
 Alpha  occ. eigenvalues --  -14.43951 -14.43765 -14.43135 -10.43587 -10.43260
 Alpha  occ. eigenvalues --  -10.40341 -10.39131 -10.39067 -10.39020 -10.35891
 Alpha  occ. eigenvalues --  -10.35677 -10.35200 -10.35054 -10.35011 -10.34721
 Alpha  occ. eigenvalues --  -10.34717 -10.34672 -10.34655 -10.34633 -10.34404
 Alpha  occ. eigenvalues --  -10.34128 -10.34073 -10.33990 -10.33385 -10.33134
 Alpha  occ. eigenvalues --  -10.33063 -10.32936 -10.32786 -10.32605 -10.32597
 Alpha  occ. eigenvalues --  -10.32559 -10.32366 -10.32363 -10.32306 -10.32264
 Alpha  occ. eigenvalues --  -10.32165 -10.32134 -10.32103 -10.32019 -10.31831
 Alpha  occ. eigenvalues --  -10.31812 -10.31800 -10.31710 -10.31681 -10.31655
 Alpha  occ. eigenvalues --  -10.31461 -10.31415 -10.31196 -10.31180 -10.31082
 Alpha  occ. eigenvalues --  -10.31011 -10.31002 -10.30857 -10.30817 -10.30731
 Alpha  occ. eigenvalues --  -10.30614 -10.30404 -10.30334 -10.30067 -10.30055
 Alpha  occ. eigenvalues --  -10.29954 -10.29937 -10.29895 -10.29888 -10.29836
 Alpha  occ. eigenvalues --  -10.29589 -10.29556 -10.29434 -10.29167 -10.28422
 Alpha  occ. eigenvalues --  -10.28322  -3.21411  -3.19661  -1.94984  -1.94551
 Alpha  occ. eigenvalues --   -1.94373  -1.93262  -1.92779  -1.92662  -1.17914
 Alpha  occ. eigenvalues --   -1.16959  -1.13941  -1.12597  -1.12528  -1.11584
 Alpha  occ. eigenvalues --   -1.09099  -1.08496  -1.07049  -1.06934  -1.05713
 Alpha  occ. eigenvalues --   -1.05332  -1.05208  -1.04553  -1.04381  -1.03492
 Alpha  occ. eigenvalues --   -0.94525  -0.94420  -0.91497  -0.91156  -0.91055
 Alpha  occ. eigenvalues --   -0.90537  -0.89920  -0.89873  -0.89549  -0.88946
 Alpha  occ. eigenvalues --   -0.88804  -0.88365  -0.88147  -0.87750  -0.86720
 Alpha  occ. eigenvalues --   -0.86352  -0.86198  -0.85686  -0.84795  -0.84651
 Alpha  occ. eigenvalues --   -0.84264  -0.84036  -0.83126  -0.82784  -0.82617
 Alpha  occ. eigenvalues --   -0.82094  -0.80226  -0.80215  -0.79446  -0.79225
 Alpha  occ. eigenvalues --   -0.78749  -0.78672  -0.78130  -0.77694  -0.77632
 Alpha  occ. eigenvalues --   -0.76812  -0.74848  -0.74620  -0.74113  -0.72899
 Alpha  occ. eigenvalues --   -0.71345  -0.71230  -0.70586  -0.70071  -0.70009
 Alpha  occ. eigenvalues --   -0.69504  -0.68814  -0.68510  -0.68333  -0.67443
 Alpha  occ. eigenvalues --   -0.67084  -0.66890  -0.66569  -0.66502  -0.66034
 Alpha  occ. eigenvalues --   -0.65978  -0.64517  -0.63917  -0.62323  -0.62241
 Alpha  occ. eigenvalues --   -0.62080  -0.61390  -0.61237  -0.60926  -0.60263
 Alpha  occ. eigenvalues --   -0.60134  -0.59675  -0.59574  -0.59499  -0.59185
 Alpha  occ. eigenvalues --   -0.58286  -0.58170  -0.57756  -0.57627  -0.57403
 Alpha  occ. eigenvalues --   -0.57333  -0.57034  -0.56872  -0.56536  -0.55782
 Alpha  occ. eigenvalues --   -0.55703  -0.55520  -0.55371  -0.54851  -0.54641
 Alpha  occ. eigenvalues --   -0.54555  -0.54548  -0.54486  -0.54098  -0.53904
 Alpha  occ. eigenvalues --   -0.53811  -0.53731  -0.53531  -0.53499  -0.53033
 Alpha  occ. eigenvalues --   -0.52955  -0.52794  -0.52737  -0.52430  -0.52358
 Alpha  occ. eigenvalues --   -0.52221  -0.52040  -0.51729  -0.51540  -0.51484
 Alpha  occ. eigenvalues --   -0.51343  -0.51333  -0.51243  -0.51095  -0.50745
 Alpha  occ. eigenvalues --   -0.50630  -0.50488  -0.50176  -0.50086  -0.49875
 Alpha  occ. eigenvalues --   -0.49670  -0.49566  -0.49192  -0.49153  -0.48861
 Alpha  occ. eigenvalues --   -0.48741  -0.48556  -0.48451  -0.48371  -0.48203
 Alpha  occ. eigenvalues --   -0.48131  -0.48049  -0.47762  -0.47662  -0.47647
 Alpha  occ. eigenvalues --   -0.47308  -0.47303  -0.47046  -0.46974  -0.46898
 Alpha  occ. eigenvalues --   -0.46846  -0.46677  -0.46620  -0.46571  -0.46562
 Alpha  occ. eigenvalues --   -0.46388  -0.46271  -0.45850  -0.45346  -0.45338
 Alpha  occ. eigenvalues --   -0.45243  -0.45154  -0.45033  -0.44849  -0.44772
 Alpha  occ. eigenvalues --   -0.44736  -0.44558  -0.44437  -0.44287  -0.44052
 Alpha  occ. eigenvalues --   -0.43948  -0.43859  -0.43774  -0.43662  -0.43569
 Alpha  occ. eigenvalues --   -0.43123  -0.43111  -0.42866  -0.42359  -0.42333
 Alpha  occ. eigenvalues --   -0.41951  -0.41867  -0.41030  -0.41001  -0.40719
 Alpha  occ. eigenvalues --   -0.40421  -0.40261  -0.39951  -0.39884  -0.39742
 Alpha  occ. eigenvalues --   -0.39390  -0.38894  -0.38751  -0.38536  -0.38390
 Alpha  occ. eigenvalues --   -0.37905  -0.37644  -0.37135  -0.36759  -0.36221
 Alpha  occ. eigenvalues --   -0.36087  -0.35559  -0.35362  -0.33730  -0.33488
 Alpha  occ. eigenvalues --   -0.33469  -0.33132  -0.32816  -0.32784  -0.32159
 Alpha  occ. eigenvalues --   -0.32147  -0.31821  -0.31736  -0.26007  -0.25869
 Alpha  occ. eigenvalues --   -0.23326  -0.23011
 Alpha virt. eigenvalues --   -0.07356  -0.06997  -0.00304   0.00654   0.02733
 Alpha virt. eigenvalues --    0.02796   0.04572   0.04869   0.04886   0.06222
 Alpha virt. eigenvalues --    0.06488   0.06711   0.07473   0.08061   0.08673

 Mulliken charges:
               1
     1  Mg   0.978546
     2  C   -0.032813
     3  C   -0.099669
     4  C   -0.063546
     5  C   -0.089484
     6  N   -0.322095
     7  C    0.015227
     8  C   -0.082480
     9  C   -0.128304
    10  C    0.030559
    11  C    0.020657
    12  C    0.044882
    13  C   -0.121094
    14  H    0.030783
    15  N   -0.522978
    16  C    0.241900
    17  C   -0.149358
    18  C   -0.081260
    19  C    0.154465
    20  C    0.042043
    21  C    0.076230
    22  O   -0.213767
    23  C   -0.007805
    24  N   -0.359221
    25  C    0.071812
    26  C   -0.108436
    27  C   -0.079613
    28  C    0.063385
    29  C    0.008324
    30  C    0.027444
    31  C   -0.074076
    32  N   -0.443865
    33  C    0.130303
    34  C   -0.214708
    35  C    0.007933
    36  C    0.121354
    37  C    0.094291
    38  C    0.108365
    39  O   -0.190799
    40  C   -0.041958
    41  C    0.275570
    42  O   -0.281934
    43  O   -0.372040
    44  C    0.141511
    45  H   -0.011155
    46  H    0.021685
    47  H   -0.003606
    48  H    0.026691
    49  H    0.025640
    50  H    0.045054
    51  H    0.043252
    52  H    0.033138
    53  H    0.030093
    54  H    0.030092
    55  H    0.065256
    56  H    0.054080
    57  H    0.051068
    58  H    0.023050
    59  H    0.045297
    60  H    0.070853
    61  H    0.046672
    62  H    0.048721
    63  H    0.037836
    64  H    0.037781
    65  H    0.044162
    66  H    0.029748
    67  H    0.037005
    68  H    0.035364
    69  H    0.037538
    70  H    0.038902
    71  H    0.028214
    72  H    0.026674
    73  H    0.030828
    74  H    0.066482
    75  H    0.049396
    76  H    0.057615
    77  H    0.060448
    78  H    0.064192
    79  H    0.067651
    80  Mg   0.956566
    81  C   -0.040729
    82  C   -0.109760
    83  C   -0.099657
    84  C   -0.098474
    85  N   -0.351170
    86  C    0.005464
    87  C   -0.079423
    88  C   -0.049962
    89  C    0.025486
    90  C    0.014897
    91  C   -0.014119
    92  C   -0.131214
    93  H    0.040663
    94  N   -0.438338
    95  C    0.180501
    96  C   -0.147285
    97  C   -0.106933
    98  C    0.207057
    99  C    0.079920
   100  C    0.051171
   101  O   -0.236325
   102  C   -0.010209
   103  N   -0.368819
   104  C    0.022409
   105  C   -0.081709
   106  C   -0.120619
   107  C    0.043113
   108  C    0.052831
   109  C   -0.004588
   110  C   -0.029176
   111  N   -0.431143
   112  C    0.160581
   113  C   -0.200493
   114  C   -0.051291
   115  C    0.127585
   116  C    0.085796
   117  C    0.113353
   118  O   -0.186369
   119  C   -0.040806
   120  C    0.283527
   121  O   -0.239882
   122  O   -0.406691
   123  C    0.140490
   124  H   -0.005344
   125  H   -0.020555
   126  H   -0.017687
   127  H    0.039147
   128  H    0.033399
   129  H    0.033388
   130  H    0.047804
   131  H    0.043635
   132  H    0.053336
   133  H    0.034512
   134  H    0.067857
   135  H    0.053331
   136  H    0.060253
   137  H    0.036800
   138  H    0.064838
   139  H    0.070806
   140  H    0.065147
   141  H    0.051321
   142  H    0.031708
   143  H    0.032422
   144  H    0.042837
   145  H    0.037331
   146  H    0.047636
   147  H    0.039945
   148  H    0.030700
   149  H    0.027374
   150  H    0.038717
   151  H    0.043343
   152  H    0.019162
   153  H    0.066789
   154  H    0.074759
   155  H    0.069326
   156  H    0.037383
   157  H    0.075552
   158  H    0.056801
 Sum of Mulliken charges =  -0.00000

 Dipole moment (field-independent basis, Debye):
    X=             -1.4754    Y=             -4.0009    Z=             -1.9270  Tot=              4.6795
 Quadrupole moment (field-independent basis, Debye-Ang):
   XX=            -43.2554   YY=           -450.7277   ZZ=           -528.6590
   XY=            -54.0409   XZ=            100.2466   YZ=             -6.6411

 Normal termination of Gaussian 16 at Sat Sep 18 18:31:59 2021.
