 Gaussian 16, Revision A.03,
 Gaussian 16:  ES64L-G16RevA.03 25-Dec-2016

 --------------------------------
 #p wB97XD/Def2SVP td=(nstates=5)
 --------------------------------

 --------------------------------
 TDDFT excited states in gaussian
 --------------------------------
 Symbolic Z-matrix:
 Charge =  0 Multiplicity = 1

                         Standard orientation:
 ---------------------------------------------------------------------
 Center     Atomic      Atomic             Coordinates (Angstroms)
 Number     Number       Type             X           Y           Z
 ---------------------------------------------------------------------
      1         12           0       28.856642   -0.175836   -0.095030
      2          6           0       25.572126   -0.319371    0.832988
      3          6           0       28.032567   -2.356677   -2.783424
      4          6           0       31.989133    0.250689   -1.274646
      5          6           0       29.284045    2.605707    1.958621
      6          7           0       26.835418   -0.949627   -1.118128
      7          6           0       25.694726   -1.053105   -0.380000
      8          6           0       24.650969   -1.805932   -1.157670
      9          6           0       25.451721   -2.453588   -2.369645
     10          6           0       26.899809   -1.926054   -2.118769
     11          6           0       25.103494   -3.854201   -2.719708
     12          6           0       23.283055   -1.079806   -1.566245
     13          6           0       23.316620    0.395491   -1.835205
     14          1           0       22.642160    0.881664   -3.110364
     15          7           0       29.913628   -1.129618   -1.641812
     16          6           0       29.437883   -1.981235   -2.590059
     17          6           0       30.457202   -2.384863   -3.512933
     18          6           0       31.680849   -1.705052   -3.003175
     19          6           0       31.225851   -0.812835   -1.914522
     20          6           0       30.349301   -3.284490   -4.650037
     21          6           0       33.120908   -1.854120   -3.472602
     22          8           0       33.373046   -2.464950   -4.449850
     23          6           0       34.331477   -1.201790   -2.864484
     24          7           0       30.335018    1.283847    0.190678
     25          6           0       31.580482    1.109236   -0.276955
     26          6           0       32.507603    2.387357    0.074957
     27          6           0       31.730616    2.885312    1.389411
     28          6           0       30.378231    2.266800    1.126583
     29          6           0       33.989950    2.089767    0.317386
     30          6           0       31.807364    4.410054    1.586669
     31          6           0       32.174785    5.007078    2.950266
     32          7           0       27.649773    1.006545    1.072768
     33          6           0       27.935441    2.087491    1.897526
     34          6           0       26.826622    2.438297    2.696926
     35          6           0       25.856028    1.501707    2.381796
     36          6           0       26.397018    0.628966    1.372358
     37          6           0       26.741473    3.524107    3.724666
     38          6           0       24.579833    0.971555    2.627042
     39          8           0       23.740858    1.391297    3.421532
     40          6           0       24.258796   -0.098497    1.545016
     41          6           0       23.774855   -1.284495    2.366306
     42          8           0       22.699167   -1.886259    2.162470
     43          8           0       24.786400   -1.626413    3.232595
     44          6           0       24.761401   -2.886614    4.014738
     45          1           0       27.690063   -2.921665   -3.652796
     46          1           0       32.915241    0.519384   -1.786838
     47          1           0       29.448516    3.433360    2.651207
     48          1           0       24.242504   -2.587436   -0.515916
     49          1           0       25.174331   -1.875983   -3.250948
     50          1           0       25.972698   -4.501760   -2.834213
     51          1           0       24.416109   -3.909894   -3.563819
     52          1           0       24.567533   -4.309391   -1.886799
     53          1           0       22.493270   -1.154705   -0.818671
     54          1           0       22.945196   -1.462620   -2.529771
     55          1           0       24.284928    0.867624   -1.672529
     56          1           0       22.646089    0.861097   -1.112165
     57          1           0       29.578562   -4.024787   -4.437794
     58          1           0       31.275645   -3.800861   -4.898891
     59          1           0       30.046821   -2.674715   -5.502141
     60          1           0       33.942550   -1.210725   -1.845992
     61          1           0       34.485912   -0.181903   -3.215350
     62          1           0       35.281491   -1.728056   -2.958768
     63          1           0       32.324913    3.110136   -0.720805
     64          1           0       32.012311    2.463668    2.353960
     65          1           0       34.155498    2.167855    1.392255
     66          1           0       34.610290    2.677259   -0.358842
     67          1           0       34.270973    1.070527    0.053964
     68          1           0       30.831586    4.807409    1.305992
     69          1           0       32.459959    4.812618    0.811822
     70          1           0       32.949012    5.773266    2.993400
     71          1           0       32.365390    4.247813    3.709874
     72          1           0       31.209339    5.372586    3.298692
     73          1           0       26.108625    3.292382    4.581690
     74          1           0       26.359036    4.424273    3.242919
     75          1           0       27.702259    3.758151    4.185020
     76          1           0       23.474256    0.380869    0.960787
     77          1           0       25.743841   -3.352331    4.090348
     78          1           0       24.075973   -3.576445    3.522110
     79          1           0       24.415282   -2.893651    5.047544
     80         12           0      -28.804449    0.321928   -0.453007
     81          6           0      -26.161432   -0.310833    1.918467
     82          6           0      -29.933377   -2.930654    0.212995
     83          6           0      -31.286800    0.918340   -2.517497
     84          6           0      -27.335672    3.405487   -1.198316
     85          7           0      -28.049060   -1.429467    0.939438
     86          6           0      -27.122424   -1.373753    1.932158
     87          6           0      -27.223350   -2.563598    2.872652
     88          6           0      -28.225563   -3.590415    2.100419
     89          6           0      -28.754938   -2.619289    1.005881
     90          6           0      -27.564833   -4.901020    1.604490
     91          6           0      -27.720876   -2.163696    4.302731
     92          6           0      -26.753526   -2.572336    5.443749
     93          1           0      -27.383816   -3.670742    6.479478
     94          7           0      -30.345242   -0.808313   -1.042718
     95          6           0      -30.687586   -2.163818   -0.714750
     96          6           0      -31.928054   -2.634182   -1.375444
     97          6           0      -32.319995   -1.469033   -2.112552
     98          6           0      -31.318587   -0.409326   -1.906183
     99          6           0      -32.518652   -4.038815   -1.236977
    100          6           0      -33.464355   -1.307672   -3.039176
    101          8           0      -33.895122   -0.240768   -3.463339
    102          6           0      -34.279278   -2.564264   -3.403300
    103          7           0      -29.312890    1.977514   -1.520978
    104          6           0      -30.387337    1.981046   -2.342611
    105          6           0      -30.417330    3.167942   -3.264948
    106          6           0      -29.192040    4.014628   -2.840923
    107          6           0      -28.576148    3.126336   -1.736527
    108          6           0      -30.500294    2.824747   -4.737520
    109          6           0      -29.670945    5.461629   -2.234371
    110          6           0      -28.998564    6.770699   -2.921764
    111          7           0      -26.952020    1.259352    0.006251
    112          6           0      -26.557249    2.575525   -0.334469
    113          6           0      -25.311729    2.867064    0.384437
    114          6           0      -25.237381    1.825132    1.345964
    115          6           0      -26.161960    0.839339    0.997626
    116          6           0      -24.341080    4.033914    0.229088
    117          6           0      -24.318715    1.278789    2.384392
    118          8           0      -23.220768    1.638408    2.892952
    119          6           0      -24.992290   -0.068447    2.853583
    120          6           0      -23.967130   -1.161561    2.782940
    121          8           0      -23.212125   -1.321557    1.866011
    122          8           0      -23.954927   -1.853509    3.962136
    123          6           0      -22.754985   -2.716684    4.102222
    124          1           0      -30.162273   -3.988934    0.353332
    125          1           0      -32.084336    1.177190   -3.217482
    126          1           0      -26.879596    4.379373   -1.386776
    127          1           0      -26.231596   -3.015543    2.890986
    128          1           0      -29.096144   -3.855065    2.701145
    129          1           0      -27.562490   -4.946728    0.515056
    130          1           0      -28.086684   -5.768322    2.011003
    131          1           0      -26.550035   -5.085366    1.957135
    132          1           0      -28.681011   -2.623093    4.539095
    133          1           0      -27.846938   -1.084814    4.397248
    134          1           0      -26.561439   -1.765530    6.151525
    135          1           0      -25.757855   -2.876279    5.122235
    136          1           0      -32.178702   -4.638956   -0.392368
    137          1           0      -32.447976   -4.667258   -2.124708
    138          1           0      -33.585977   -3.876797   -1.083073
    139          1           0      -33.648158   -3.290619   -3.915279
    140          1           0      -35.165870   -2.327478   -3.992477
    141          1           0      -34.636205   -3.009253   -2.474504
    142          1           0      -31.357390    3.696094   -3.099802
    143          1           0      -28.481956    4.121169   -3.660474
    144          1           0      -31.475137    3.034389   -5.178640
    145          1           0      -30.370618    1.768783   -4.974360
    146          1           0      -29.712303    3.373978   -5.253218
    147          1           0      -29.493661    5.574167   -1.165286
    148          1           0      -30.743692    5.622533   -2.337954
    149          1           0      -28.648923    6.436996   -3.898945
    150          1           0      -28.178578    7.168329   -2.322338
    151          1           0      -29.749853    7.521515   -3.165201
    152          1           0      -23.859422    4.296890    1.170667
    153          1           0      -24.934635    4.919905    0.000681
    154          1           0      -23.737820    3.746482   -0.632172
    155          1           0      -25.205316    0.065723    3.913808
    156          1           0      -22.708755   -3.352866    3.218554
    157          1           0      -23.008251   -3.365129    4.940814
    158          1           0      -21.772248   -2.253146    4.188164
 ---------------------------------------------------------------------

 SCF Done:  E(RwB97XD) =  -4070.54930419     A.U. after   20 cycles

 Excitation energies and oscillator strengths:

 Excited State   1:      Singlet-A      1.5770 eV  786.18 nm  f=0.3872  <S**2>=0.000
     309 -> 315        0.17494
     311 -> 313        0.68653
     309 <- 315        0.11857
 This state for optimization and/or second-order correction.
 Total Energy, E(TD-HF/TD-DFT) =  -4070.49134884
 Copying the excited state density for this state as the 1-particle RhoCI density.

 Excited State   2:      Singlet-A      1.6155 eV  767.47 nm  f=0.3707  <S**2>=0.000
     310 -> 316       -0.19316
     312 -> 314        0.68203
     310 <- 316       -0.12122

 Excited State   3:      Singlet-A      2.0921 eV  592.62 nm  f=0.1443  <S**2>=0.000
     309 -> 313        0.64987
     311 -> 315       -0.25889

 Excited State   4:      Singlet-A      2.1191 eV  585.07 nm  f=0.1301  <S**2>=0.000
     310 -> 314        0.64524
     312 -> 316        0.27987

 Excited State   5:      Singlet-A      3.0083 eV  412.14 nm  f=0.0074  <S**2>=0.000
     306 -> 313       -0.21744
     308 -> 313        0.63599
     308 -> 318       -0.12455

 The electronic state is 1-A.
 Alpha  occ. eigenvalues --  -46.96303 -46.94854 -19.31479 -19.30854 -19.25329
 Alpha  occ. eigenvalues --  -19.24652 -19.24005 -19.23733 -19.23611 -19.22185
 Alpha  occ. eigenvalues --  -14.47237 -14.47180 -14.46653 -14.46489 -14.45360
 Alpha  occ. eigenvalues --  -14.44612 -14.44286 -14.43818 -10.44398 -10.42642
 Alpha  occ. eigenvalues --  -10.39170 -10.39112 -10.38354 -10.37469 -10.36570
 Alpha  occ. eigenvalues --  -10.36149 -10.35901 -10.35677 -10.35663 -10.35662
 Alpha  occ. eigenvalues --  -10.35616 -10.35286 -10.35014 -10.34925 -10.34905
 Alpha  occ. eigenvalues --  -10.34894 -10.34861 -10.34764 -10.34697 -10.34152
 Alpha  occ. eigenvalues --  -10.33966 -10.33447 -10.33282 -10.33112 -10.33045
 Alpha  occ. eigenvalues --  -10.32959 -10.32947 -10.32906 -10.32701 -10.32578
 Alpha  occ. eigenvalues --  -10.32521 -10.32509 -10.32496 -10.32366 -10.32366
 Alpha  occ. eigenvalues --  -10.32361 -10.32220 -10.32019 -10.31995 -10.31919
 Alpha  occ. eigenvalues --  -10.31875 -10.31855 -10.31594 -10.31561 -10.31281
 Alpha  occ. eigenvalues --  -10.31271 -10.31180 -10.31150 -10.30756 -10.30753
 Alpha  occ. eigenvalues --  -10.30708 -10.30707 -10.30692 -10.30450 -10.30210
 Alpha  occ. eigenvalues --  -10.30179 -10.30069 -10.29942 -10.29926 -10.29912
 Alpha  occ. eigenvalues --  -10.29718 -10.29624 -10.29339 -10.29198 -10.29004
 Alpha  occ. eigenvalues --  -10.28939  -3.22238  -3.20930  -1.95779  -1.95393
 Alpha  occ. eigenvalues --   -1.95178  -1.94519  -1.94055  -1.93920  -1.19107
 Alpha  occ. eigenvalues --   -1.17891  -1.13580  -1.12203  -1.11658  -1.10861
 Alpha  occ. eigenvalues --   -1.09491  -1.09278  -1.07214  -1.06434  -1.05970
 Alpha  occ. eigenvalues --   -1.05262  -1.04937  -1.04619  -1.04164  -1.04056
 Alpha  occ. eigenvalues --   -0.95747  -0.93529  -0.91722  -0.90630  -0.90600
 Alpha  occ. eigenvalues --   -0.90352  -0.90317  -0.89991  -0.89916  -0.89347
 Alpha  occ. eigenvalues --   -0.89190  -0.88935  -0.87792  -0.87537  -0.86458
 Alpha  occ. eigenvalues --   -0.85932  -0.85915  -0.85047  -0.85010  -0.84101
 Alpha  occ. eigenvalues --   -0.83687  -0.83327  -0.82943  -0.82606  -0.82557
 Alpha  occ. eigenvalues --   -0.81701  -0.81075  -0.80471  -0.79755  -0.79004
 Alpha  occ. eigenvalues --   -0.78919  -0.78693  -0.78657  -0.77951  -0.77439
 Alpha  occ. eigenvalues --   -0.77157  -0.75594  -0.74538  -0.73749  -0.73390
 Alpha  occ. eigenvalues --   -0.71975  -0.71387  -0.71148  -0.70648  -0.70356
 Alpha  occ. eigenvalues --   -0.69520  -0.69093  -0.68568  -0.68208  -0.67817
 Alpha  occ. eigenvalues --   -0.67592  -0.67513  -0.66698  -0.66398  -0.66386
 Alpha  occ. eigenvalues --   -0.66005  -0.65608  -0.64330  -0.62830  -0.62290
 Alpha  occ. eigenvalues --   -0.61460  -0.61208  -0.60862  -0.60725  -0.60318
 Alpha  occ. eigenvalues --   -0.60055  -0.59912  -0.59581  -0.59217  -0.59119
 Alpha  occ. eigenvalues --   -0.58508  -0.58139  -0.57805  -0.57266  -0.57245
 Alpha  occ. eigenvalues --   -0.57070  -0.56933  -0.56450  -0.56403  -0.55962
 Alpha  occ. eigenvalues --   -0.55708  -0.55335  -0.55287  -0.55096  -0.54617
 Alpha  occ. eigenvalues --   -0.54508  -0.54431  -0.54128  -0.54051  -0.53758
 Alpha  occ. eigenvalues --   -0.53735  -0.53601  -0.53331  -0.53323  -0.53275
 Alpha  occ. eigenvalues --   -0.53047  -0.52762  -0.52649  -0.52552  -0.52399
 Alpha  occ. eigenvalues --   -0.51964  -0.51916  -0.51880  -0.51695  -0.51632
 Alpha  occ. eigenvalues --   -0.51454  -0.51396  -0.51149  -0.51126  -0.50947
 Alpha  occ. eigenvalues --   -0.50717  -0.50197  -0.50142  -0.50037  -0.49931
 Alpha  occ. eigenvalues --   -0.49822  -0.49526  -0.49486  -0.49403  -0.49291
 Alpha  occ. eigenvalues --   -0.49157  -0.49043  -0.48965  -0.48821  -0.48761
 Alpha  occ. eigenvalues --   -0.48472  -0.48379  -0.48117  -0.48066  -0.47861
 Alpha  occ. eigenvalues --   -0.47579  -0.47474  -0.47472  -0.47266  -0.46969
 Alpha  occ. eigenvalues --   -0.46891  -0.46820  -0.46729  -0.46665  -0.46327
 Alpha  occ. eigenvalues --   -0.46126  -0.46018  -0.45942  -0.45774  -0.45709
 Alpha  occ. eigenvalues --   -0.45308  -0.45259  -0.44986  -0.44755  -0.44664
 Alpha  occ. eigenvalues --   -0.44554  -0.44529  -0.44376  -0.44175  -0.44046
 Alpha  occ. eigenvalues --   -0.43999  -0.43939  -0.43651  -0.43494  -0.43419
 Alpha  occ. eigenvalues --   -0.43246  -0.43207  -0.42694  -0.42591  -0.42458
 Alpha  occ. eigenvalues --   -0.42369  -0.42182  -0.42055  -0.41292  -0.40947
 Alpha  occ. eigenvalues --   -0.40631  -0.40502  -0.40158  -0.39949  -0.39439
 Alpha  occ. eigenvalues --   -0.39432  -0.39320  -0.38980  -0.38509  -0.38155
 Alpha  occ. eigenvalues --   -0.37541  -0.37496  -0.36803  -0.36626  -0.36379
 Alpha  occ. eigenvalues --   -0.35856  -0.35321  -0.35239  -0.33847  -0.33802
 Alpha  occ. eigenvalues --   -0.33069  -0.32954  -0.32584  -0.32582  -0.32466
 Alpha  occ. eigenvalues --   -0.31531  -0.31489  -0.30400  -0.26388  -0.25806
 Alpha  occ. eigenvalues --   -0.23524  -0.23100
 Alpha virt. eigenvalues --   -0.08041  -0.07333  -0.00024   0.00083   0.02185
 Alpha virt. eigenvalues --    0.02334   0.04076   0.04163   0.04830   0.06578
 Alpha virt. eigenvalues --    0.06651   0.06804   0.07357   0.07735   0.07916

 Mulliken charges:
               1
     1  Mg   0.958664
     2  C    0.008419
     3  C   -0.083348
     4  C   -0.083857
     5  C   -0.096608
     6  N   -0.330812
     7  C   -0.005485
     8  C   -0.018782
     9  C   -0.091837
    10  C    0.035703
    11  C    0.041607
    12  C   -0.010894
    13  C   -0.168745
    14  H    0.030037
    15  N   -0.448545
    16  C    0.171519
    17  C   -0.181733
    18  C   -0.096599
    19  C    0.137273
    20  C    0.086262
    21  C    0.013464
    22  O   -0.209803
    23  C   -0.014999
    24  N   -0.361700
    25  C    0.084133
    26  C   -0.139022
    27  C   -0.084300
    28  C    0.074831
    29  C    0.050090
    30  C   -0.015285
    31  C   -0.044762
    32  N   -0.441909
    33  C    0.139239
    34  C   -0.188108
    35  C    0.058681
    36  C    0.109831
    37  C    0.078531
    38  C    0.062376
    39  O   -0.216423
    40  C   -0.121424
    41  C    0.312923
    42  O   -0.256610
    43  O   -0.379227
    44  C    0.145016
    45  H    0.008423
    46  H    0.003740
    47  H   -0.014157
    48  H    0.042122
    49  H    0.049760
    50  H    0.035476
    51  H    0.041462
    52  H    0.026938
    53  H    0.059229
    54  H    0.045135
    55  H    0.064503
    56  H    0.055854
    57  H    0.031690
    58  H    0.063192
    59  H    0.053813
    60  H    0.032405
    61  H    0.070920
    62  H    0.057977
    63  H    0.056102
    64  H    0.040613
    65  H    0.038893
    66  H    0.039565
    67  H    0.032328
    68  H    0.030263
    69  H    0.027703
    70  H    0.056409
    71  H    0.025812
    72  H    0.030888
    73  H    0.060953
    74  H    0.060893
    75  H    0.031911
    76  H    0.065606
    77  H    0.053558
    78  H    0.053925
    79  H    0.058316
    80  Mg   0.990512
    81  C   -0.017355
    82  C   -0.078416
    83  C   -0.086380
    84  C   -0.079812
    85  N   -0.298177
    86  C   -0.019874
    87  C   -0.052924
    88  C   -0.107265
    89  C    0.010967
    90  C    0.015718
    91  C    0.042964
    92  C   -0.139028
    93  H   -0.009649
    94  N   -0.512310
    95  C    0.177176
    96  C   -0.130220
    97  C   -0.070972
    98  C    0.182077
    99  C    0.070198
   100  C    0.029610
   101  O   -0.236680
   102  C   -0.016433
   103  N   -0.420524
   104  C    0.093726
   105  C   -0.078867
   106  C   -0.074227
   107  C    0.102015
   108  C    0.012665
   109  C   -0.031809
   110  C   -0.079633
   111  N   -0.424399
   112  C    0.112377
   113  C   -0.186363
   114  C   -0.110867
   115  C    0.145428
   116  C    0.092646
   117  C    0.193645
   118  O   -0.247679
   119  C   -0.086777
   120  C    0.237229
   121  O   -0.214992
   122  O   -0.372189
   123  C    0.133783
   124  H   -0.004499
   125  H    0.020953
   126  H   -0.003313
   127  H    0.041514
   128  H    0.042914
   129  H    0.048261
   130  H    0.034627
   131  H    0.041328
   132  H    0.049081
   133  H    0.046162
   134  H    0.054714
   135  H    0.060362
   136  H    0.047041
   137  H    0.062956
   138  H    0.044844
   139  H    0.052793
   140  H    0.053667
   141  H    0.038466
   142  H    0.046244
   143  H    0.048439
   144  H    0.040251
   145  H    0.042083
   146  H    0.029145
   147  H    0.043051
   148  H    0.034656
   149  H    0.027518
   150  H    0.051972
   151  H    0.040925
   152  H    0.063941
   153  H    0.026450
   154  H    0.068705
   155  H    0.067103
   156  H    0.050134
   157  H    0.052100
   158  H    0.076497
 Sum of Mulliken charges =  -0.00000

 Dipole moment (field-independent basis, Debye):
    X=             -0.0859    Y=             -2.4201    Z=              1.7571  Tot=              2.9919
 Quadrupole moment (field-independent basis, Debye-Ang):
   XX=           -159.1332   YY=           -458.8666   ZZ=           -517.3670
   XY=            136.0503   XZ=            103.3609   YZ=            -21.4788

 Normal termination of Gaussian 16 at Sat Sep 18 23:03:14 2021.
