 Gaussian 16, Revision A.03,
 Gaussian 16:  ES64L-G16RevA.03 25-Dec-2016

 --------------------------------
 #p wB97XD/Def2SVP td=(nstates=5)
 --------------------------------

 --------------------------------
 TDDFT excited states in gaussian
 --------------------------------
 Symbolic Z-matrix:
 Charge =  0 Multiplicity = 1

                         Standard orientation:
 ---------------------------------------------------------------------
 Center     Atomic      Atomic             Coordinates (Angstroms)
 Number     Number       Type             X           Y           Z
 ---------------------------------------------------------------------
      1         12           0      -30.573716    0.278955    0.280848
      2          6           0      -27.954504   -1.820663   -0.815309
      3          6           0      -31.477283    0.833107   -2.967943
      4          6           0      -32.519987    2.713401    1.355832
      5          6           0      -29.241267    0.014630    3.558128
      6          7           0      -29.845989   -0.529074   -1.656786
      7          6           0      -28.820327   -1.339926   -1.826213
      8          6           0      -28.884003   -1.899307   -3.235977
      9          6           0      -29.669251   -0.785360   -4.029881
     10          6           0      -30.392489   -0.082717   -2.820999
     11          6           0      -28.695378    0.091368   -4.905478
     12          6           0      -29.673917   -3.231135   -3.311717
     13          6           0      -29.377836   -4.137860   -4.586115
     14          1           0      -28.402211   -3.700931   -5.682202
     15          7           0      -31.947946    1.425461   -0.630029
     16          6           0      -32.269233    1.491655   -2.010075
     17          6           0      -33.408131    2.424660   -2.175979
     18          6           0      -33.656509    3.042260   -0.897814
     19          6           0      -32.708160    2.422562    0.053081
     20          6           0      -34.121696    2.640367   -3.463771
     21          6           0      -34.696475    4.126371   -0.413978
     22          8           0      -34.832369    4.480792    0.764981
     23          6           0      -35.476258    4.877160   -1.454166
     24          7           0      -30.770874    1.326997    2.191713
     25          6           0      -31.676127    2.248730    2.386848
     26          6           0      -31.765909    2.772660    3.792747
     27          6           0      -30.689411    1.904769    4.534518
     28          6           0      -30.248656    0.940625    3.387647
     29          6           0      -31.644451    4.298589    3.840673
     30          6           0      -31.213805    1.128198    5.735806
     31          6           0      -30.276411    1.058305    6.994224
     32          7           0      -28.957392   -0.754738    1.294572
     33          6           0      -28.578587   -0.786896    2.650974
     34          6           0      -27.570374   -1.776198    2.819327
     35          6           0      -27.148387   -2.098351    1.490063
     36          6           0      -28.033548   -1.506696    0.624900
     37          6           0      -27.119534   -2.353898    4.130223
     38          6           0      -26.295827   -2.918301    0.596047
     39          8           0      -25.386110   -3.675295    0.864064
     40          6           0      -26.659108   -2.531399   -0.915945
     41          6           0      -26.447926   -3.697709   -1.824911
     42          8           0      -27.006839   -4.753519   -1.774420
     43          8           0      -25.403179   -3.453805   -2.735880
     44          6           0      -24.623414   -4.629381   -3.177962
     45          1           0      -31.696850    1.207379   -3.970450
     46          1           0      -33.218181    3.399121    1.839109
     47          1           0      -28.905744   -0.100932    4.590926
     48          1           0      -27.840083   -2.125123   -3.453293
     49          1           0      -30.417083   -1.218574   -4.694941
     50          1           0      -27.666224   -0.240292   -4.771966
     51          1           0      -28.728688    1.066258   -4.419033
     52          1           0      -28.895615    0.065181   -5.976681
     53          1           0      -30.718739   -2.919357   -3.341946
     54          1           0      -29.478923   -3.770914   -2.385116
     55          1           0      -30.360184   -4.312559   -5.027581
     56          1           0      -29.058163   -5.095190   -4.173778
     57          1           0      -33.922294    1.971667   -4.300362
     58          1           0      -33.907729    3.617081   -3.896859
     59          1           0      -35.171908    2.515084   -3.199043
     60          1           0      -36.399842    4.385022   -1.758577
     61          1           0      -34.717403    4.928594   -2.235900
     62          1           0      -35.650567    5.869003   -1.037978
     63          1           0      -32.771434    2.464724    4.079150
     64          1           0      -29.828922    2.472640    4.886188
     65          1           0      -31.098132    4.725093    2.998842
     66          1           0      -31.057558    4.508217    4.734068
     67          1           0      -32.612882    4.796739    3.891410
     68          1           0      -31.434517    0.094694    5.469403
     69          1           0      -32.212493    1.535285    5.893216
     70          1           0      -29.291159    1.472915    6.781651
     71          1           0      -30.170120   -0.008238    7.191337
     72          1           0      -30.611412    1.515094    7.926050
     73          1           0      -26.934461   -1.488213    4.766360
     74          1           0      -26.203901   -2.943072    4.076145
     75          1           0      -27.933478   -2.918150    4.586547
     76          1           0      -25.897960   -1.846590   -1.288462
     77          1           0      -24.787200   -4.753286   -4.248543
     78          1           0      -24.891876   -5.534297   -2.631732
     79          1           0      -23.583258   -4.371359   -2.979129
     80         12           0       30.585548    0.198756   -0.257192
     81          6           0       27.469134   -1.287849    0.156790
     82          6           0       28.967959    2.963686   -1.584688
     83          6           0       33.395916    1.937677   -0.200645
     84          6           0       32.028573   -2.389932    1.530238
     85          7           0       28.473817    0.841431   -0.517685
     86          6           0       27.374347    0.014818   -0.409187
     87          6           0       26.119788    0.641459   -0.941828
     88          6           0       26.705915    1.828026   -1.827157
     89          6           0       28.119974    1.936232   -1.272193
     90          6           0       26.537449    1.863970   -3.420085
     91          6           0       25.039519    1.056437    0.161270
     92          6           0       25.565259    1.511306    1.555233
     93          1           0       24.831704    2.694516    2.139623
     94          7           0       31.102395    2.224466   -0.705403
     95          6           0       30.277194    3.209224   -1.262640
     96          6           0       30.970466    4.460218   -1.404164
     97          6           0       32.294089    4.197414   -0.977504
     98          6           0       32.337128    2.761026   -0.571433
     99          6           0       30.325145    5.617144   -2.168702
    100          6           0       33.392952    5.283707   -1.017456
    101          8           0       33.147638    6.453160   -1.330448
    102          6           0       34.758649    4.829130   -0.715190
    103          7           0       32.390856   -0.177679    0.676933
    104          6           0       33.475459    0.595059    0.297468
    105          6           0       34.825705    0.010321    0.767179
    106          6           0       34.270656   -1.266291    1.522404
    107          6           0       32.826112   -1.268697    1.285132
    108          6           0       35.876872   -0.318545   -0.245409
    109          6           0       34.548836   -1.227308    3.109705
    110          6           0       35.087163   -2.546615    3.598697
    111          7           0       29.963887   -1.632067    0.519909
    112          6           0       30.673575   -2.585190    1.226592
    113          6           0       29.774561   -3.694402    1.619323
    114          6           0       28.481187   -3.218856    1.207203
    115          6           0       28.675452   -1.988713    0.568214
    116          6           0       30.015398   -4.858572    2.491994
    117          6           0       27.019647   -3.441617    1.213851
    118          8           0       26.381464   -4.325062    1.737908
    119          6           0       26.322936   -2.234860    0.506628
    120          6           0       25.498689   -2.705609   -0.607161
    121          8           0       24.283429   -2.618852   -0.785009
    122          8           0       26.311613   -3.577098   -1.378443
    123          6           0       25.677786   -4.122629   -2.597857
    124          1           0       28.457731    3.691758   -2.219560
    125          1           0       34.408758    2.331209   -0.307883
    126          1           0       32.592821   -3.187760    2.016406
    127          1           0       25.579848   -0.068924   -1.567765
    128          1           0       26.135335    2.667259   -1.428583
    129          1           0       25.917331    1.077354   -3.849589
    130          1           0       27.474335    1.743264   -3.963782
    131          1           0       25.962340    2.747248   -3.699240
    132          1           0       24.292028    0.272580    0.278938
    133          1           0       24.463407    1.871835   -0.276066
    134          1           0       26.633379    1.726552    1.512550
    135          1           0       25.443521    0.703456    2.276275
    136          1           0       30.633936    6.602689   -1.818775
    137          1           0       29.250893    5.610156   -1.986086
    138          1           0       30.632347    5.491789   -3.207245
    139          1           0       35.105945    4.206703   -1.539317
    140          1           0       34.768498    4.302436    0.239578
    141          1           0       35.352591    5.741575   -0.663277
    142          1           0       35.191145    0.646009    1.574025
    143          1           0       34.662686   -2.082976    0.916269
    144          1           0       36.629392   -0.899698    0.287833
    145          1           0       36.371018    0.617402   -0.506100
    146          1           0       35.434528   -0.821156   -1.106352
    147          1           0       33.605426   -0.948160    3.578732
    148          1           0       35.183490   -0.422630    3.483080
    149          1           0       34.318077   -3.012181    4.214554
    150          1           0       35.866133   -2.423743    4.351900
    151          1           0       35.246525   -3.216285    2.753812
    152          1           0       31.028297   -4.956598    2.885362
    153          1           0       29.852702   -5.736232    1.867384
    154          1           0       29.395656   -4.590406    3.347391
    155          1           0       25.714071   -1.778127    1.286518
    156          1           0       26.467886   -3.992093   -3.338206
    157          1           0       24.762043   -3.688035   -2.998757
    158          1           0       25.671024   -5.200908   -2.437505
 ---------------------------------------------------------------------

 SCF Done:  E(RwB97XD) =  -4070.59905211     A.U. after   19 cycles

 Excitation energies and oscillator strengths:

 Excited State   1:      Singlet-A      1.6615 eV  746.21 nm  f=0.3696  <S**2>=0.000
     309 -> 315        0.18778
     312 -> 313        0.68151
     309 <- 315        0.11477
 This state for optimization and/or second-order correction.
 Total Energy, E(TD-HF/TD-DFT) =  -4070.53799281
 Copying the excited state density for this state as the 1-particle RhoCI density.

 Excited State   2:      Singlet-A      1.7664 eV  701.91 nm  f=0.3734  <S**2>=0.000
     310 -> 316       -0.19125
     311 -> 314        0.67833
     310 <- 316       -0.11016

 Excited State   3:      Singlet-A      2.1196 eV  584.93 nm  f=0.0966  <S**2>=0.000
     310 -> 314        0.63987
     311 -> 316        0.27486

 Excited State   4:      Singlet-A      2.1479 eV  577.24 nm  f=0.0863  <S**2>=0.000
     309 -> 313        0.62830
     312 -> 315       -0.30701

 Excited State   5:      Singlet-A      3.2681 eV  379.38 nm  f=0.0032  <S**2>=0.000
     304 -> 314       -0.16876
     306 -> 314        0.15519
     308 -> 314        0.64106
     308 -> 317        0.10637

 The electronic state is 1-A.
 Alpha  occ. eigenvalues --  -46.95443 -46.94850 -19.29568 -19.28451 -19.25479
 Alpha  occ. eigenvalues --  -19.25408 -19.24431 -19.24052 -19.23865 -19.23306
 Alpha  occ. eigenvalues --  -14.46835 -14.46778 -14.46506 -14.46302 -14.44423
 Alpha  occ. eigenvalues --  -14.44252 -14.43762 -14.42549 -10.43589 -10.42346
 Alpha  occ. eigenvalues --  -10.40844 -10.39133 -10.39068 -10.38743 -10.36323
 Alpha  occ. eigenvalues --  -10.35711 -10.35678 -10.35202 -10.35012 -10.34940
 Alpha  occ. eigenvalues --  -10.34885 -10.34722 -10.34656 -10.34634 -10.34564
 Alpha  occ. eigenvalues --  -10.34131 -10.34075 -10.34044 -10.33647 -10.33418
 Alpha  occ. eigenvalues --  -10.33387 -10.32936 -10.32788 -10.32606 -10.32560
 Alpha  occ. eigenvalues --  -10.32368 -10.32365 -10.32307 -10.32265 -10.32241
 Alpha  occ. eigenvalues --  -10.32159 -10.32104 -10.31969 -10.31966 -10.31934
 Alpha  occ. eigenvalues --  -10.31793 -10.31721 -10.31711 -10.31641 -10.31636
 Alpha  occ. eigenvalues --  -10.31598 -10.31416 -10.31375 -10.31197 -10.31083
 Alpha  occ. eigenvalues --  -10.31003 -10.30857 -10.30818 -10.30806 -10.30732
 Alpha  occ. eigenvalues --  -10.30730 -10.30123 -10.30109 -10.30068 -10.30056
 Alpha  occ. eigenvalues --  -10.29939 -10.29902 -10.29897 -10.29890 -10.29702
 Alpha  occ. eigenvalues --  -10.29677 -10.29558 -10.29523 -10.29435 -10.29390
 Alpha  occ. eigenvalues --  -10.28355  -3.21412  -3.20763  -1.94984  -1.94550
 Alpha  occ. eigenvalues --   -1.94374  -1.94364  -1.93884  -1.93723  -1.17290
 Alpha  occ. eigenvalues --   -1.16961  -1.12764  -1.12598  -1.11683  -1.11585
 Alpha  occ. eigenvalues --   -1.09151  -1.09100  -1.07089  -1.07052  -1.06495
 Alpha  occ. eigenvalues --   -1.05714  -1.05209  -1.04382  -1.03640  -1.03061
 Alpha  occ. eigenvalues --   -0.94422  -0.93714  -0.91499  -0.91157  -0.91140
 Alpha  occ. eigenvalues --   -0.90834  -0.89874  -0.89654  -0.89551  -0.89523
 Alpha  occ. eigenvalues --   -0.89163  -0.88805  -0.88148  -0.87298  -0.86721
 Alpha  occ. eigenvalues --   -0.86353  -0.85892  -0.85562  -0.84828  -0.84652
 Alpha  occ. eigenvalues --   -0.84265  -0.83583  -0.82786  -0.82556  -0.82096
 Alpha  occ. eigenvalues --   -0.81784  -0.80603  -0.80227  -0.79447  -0.79065
 Alpha  occ. eigenvalues --   -0.78751  -0.78266  -0.78131  -0.77695  -0.77274
 Alpha  occ. eigenvalues --   -0.77071  -0.74621  -0.74439  -0.74114  -0.73669
 Alpha  occ. eigenvalues --   -0.71729  -0.71347  -0.71232  -0.70588  -0.70072
 Alpha  occ. eigenvalues --   -0.69214  -0.68815  -0.68620  -0.68335  -0.67931
 Alpha  occ. eigenvalues --   -0.67091  -0.66891  -0.66532  -0.66503  -0.65979
 Alpha  occ. eigenvalues --   -0.65423  -0.64518  -0.62999  -0.62251  -0.62243
 Alpha  occ. eigenvalues --   -0.61391  -0.61069  -0.60928  -0.60556  -0.60264
 Alpha  occ. eigenvalues --   -0.59998  -0.59517  -0.59500  -0.59186  -0.58755
 Alpha  occ. eigenvalues --   -0.58448  -0.58287  -0.57757  -0.57383  -0.57335
 Alpha  occ. eigenvalues --   -0.57035  -0.56997  -0.56537  -0.56132  -0.55783
 Alpha  occ. eigenvalues --   -0.55659  -0.55117  -0.55039  -0.54852  -0.54737
 Alpha  occ. eigenvalues --   -0.54643  -0.54549  -0.54119  -0.54099  -0.53906
 Alpha  occ. eigenvalues --   -0.53905  -0.53652  -0.53532  -0.53257  -0.53145
 Alpha  occ. eigenvalues --   -0.53034  -0.52842  -0.52739  -0.52430  -0.52359
 Alpha  occ. eigenvalues --   -0.52222  -0.52050  -0.51919  -0.51541  -0.51485
 Alpha  occ. eigenvalues --   -0.51244  -0.51161  -0.50817  -0.50747  -0.50622
 Alpha  occ. eigenvalues --   -0.50489  -0.50226  -0.50178  -0.50087  -0.49923
 Alpha  occ. eigenvalues --   -0.49734  -0.49671  -0.49456  -0.49208  -0.49193
 Alpha  occ. eigenvalues --   -0.48913  -0.48862  -0.48535  -0.48453  -0.48420
 Alpha  occ. eigenvalues --   -0.48204  -0.48132  -0.48064  -0.47648  -0.47477
 Alpha  occ. eigenvalues --   -0.47326  -0.47309  -0.47048  -0.46934  -0.46899
 Alpha  occ. eigenvalues --   -0.46847  -0.46741  -0.46622  -0.46563  -0.46142
 Alpha  occ. eigenvalues --   -0.45868  -0.45851  -0.45624  -0.45347  -0.45304
 Alpha  occ. eigenvalues --   -0.45155  -0.45034  -0.44995  -0.44738  -0.44693
 Alpha  occ. eigenvalues --   -0.44514  -0.44438  -0.44192  -0.44053  -0.43949
 Alpha  occ. eigenvalues --   -0.43918  -0.43664  -0.43594  -0.43571  -0.43440
 Alpha  occ. eigenvalues --   -0.43245  -0.43112  -0.43042  -0.42882  -0.42361
 Alpha  occ. eigenvalues --   -0.42003  -0.41872  -0.41868  -0.41002  -0.40951
 Alpha  occ. eigenvalues --   -0.40672  -0.40423  -0.39951  -0.39695  -0.39580
 Alpha  occ. eigenvalues --   -0.39392  -0.38896  -0.38537  -0.38358  -0.37654
 Alpha  occ. eigenvalues --   -0.37645  -0.37328  -0.37136  -0.36761  -0.36197
 Alpha  occ. eigenvalues --   -0.35763  -0.35561  -0.35191  -0.33903  -0.33490
 Alpha  occ. eigenvalues --   -0.33391  -0.33133  -0.32785  -0.32491  -0.32160
 Alpha  occ. eigenvalues --   -0.32009  -0.31822  -0.30371  -0.26008  -0.25647
 Alpha  occ. eigenvalues --   -0.23135  -0.23012
 Alpha virt. eigenvalues --   -0.06998  -0.06797  -0.00305  -0.00076   0.01906
 Alpha virt. eigenvalues --    0.02732   0.04571   0.04867   0.04903   0.06055
 Alpha virt. eigenvalues --    0.06221   0.07008   0.07472   0.08129   0.08696

 Mulliken charges:
               1
     1  Mg   0.949366
     2  C    0.045731
     3  C   -0.095119
     4  C   -0.065601
     5  C   -0.086061
     6  N   -0.314085
     7  C    0.001101
     8  C   -0.120538
     9  C   -0.103195
    10  C    0.089385
    11  C    0.035012
    12  C   -0.006427
    13  C   -0.094830
    14  H    0.041433
    15  N   -0.554578
    16  C    0.176031
    17  C   -0.150902
    18  C   -0.082865
    19  C    0.208139
    20  C    0.034942
    21  C    0.082039
    22  O   -0.237319
    23  C   -0.013148
    24  N   -0.304512
    25  C   -0.029724
    26  C   -0.047666
    27  C   -0.103726
    28  C    0.058315
    29  C    0.030136
    30  C   -0.003874
    31  C   -0.057120
    32  N   -0.438166
    33  C    0.134213
    34  C   -0.193295
    35  C   -0.035285
    36  C    0.077422
    37  C    0.080568
    38  C    0.135326
    39  O   -0.202613
    40  C   -0.093380
    41  C    0.221121
    42  O   -0.208236
    43  O   -0.410342
    44  C    0.136773
    45  H    0.001456
    46  H    0.012928
    47  H   -0.022020
    48  H    0.031996
    49  H    0.036178
    50  H    0.038434
    51  H    0.032954
    52  H    0.048358
    53  H    0.023404
    54  H    0.054534
    55  H    0.041779
    56  H    0.065398
    57  H    0.043011
    58  H    0.065281
    59  H    0.060779
    60  H    0.079982
    61  H    0.041613
    62  H    0.065160
    63  H    0.042232
    64  H    0.040200
    65  H    0.046679
    66  H    0.033122
    67  H    0.056288
    68  H    0.030804
    69  H    0.022358
    70  H    0.035981
    71  H    0.038521
    72  H    0.045678
    73  H    0.035937
    74  H    0.058426
    75  H    0.050932
    76  H    0.080262
    77  H    0.051943
    78  H    0.069241
    79  H    0.055723
    80  Mg   0.956491
    81  C   -0.040689
    82  C   -0.109707
    83  C   -0.099687
    84  C   -0.098415
    85  N   -0.351156
    86  C    0.005641
    87  C   -0.079565
    88  C   -0.049959
    89  C    0.025522
    90  C    0.014889
    91  C   -0.013916
    92  C   -0.131299
    93  H    0.040654
    94  N   -0.438273
    95  C    0.180431
    96  C   -0.147190
    97  C   -0.106993
    98  C    0.207168
    99  C    0.079788
   100  C    0.051213
   101  O   -0.236323
   102  C   -0.010325
   103  N   -0.369010
   104  C    0.022490
   105  C   -0.081704
   106  C   -0.120599
   107  C    0.043075
   108  C    0.052828
   109  C   -0.004592
   110  C   -0.029193
   111  N   -0.431111
   112  C    0.160433
   113  C   -0.200560
   114  C   -0.051235
   115  C    0.127658
   116  C    0.085798
   117  C    0.113367
   118  O   -0.186376
   119  C   -0.040872
   120  C    0.283518
   121  O   -0.239858
   122  O   -0.406698
   123  C    0.140543
   124  H   -0.005350
   125  H   -0.020578
   126  H   -0.017688
   127  H    0.039152
   128  H    0.033407
   129  H    0.033393
   130  H    0.047811
   131  H    0.043633
   132  H    0.053296
   133  H    0.034489
   134  H    0.067869
   135  H    0.053335
   136  H    0.060286
   137  H    0.036789
   138  H    0.064866
   139  H    0.070837
   140  H    0.065187
   141  H    0.051323
   142  H    0.031705
   143  H    0.032433
   144  H    0.042836
   145  H    0.037338
   146  H    0.047641
   147  H    0.039945
   148  H    0.030703
   149  H    0.027380
   150  H    0.038714
   151  H    0.043352
   152  H    0.019159
   153  H    0.066792
   154  H    0.074756
   155  H    0.069279
   156  H    0.037376
   157  H    0.075529
   158  H    0.056800
 Sum of Mulliken charges =  -0.00000

 Dipole moment (field-independent basis, Debye):
    X=              1.1424    Y=              3.1798    Z=             -4.4655  Tot=              5.5997
 Quadrupole moment (field-independent basis, Debye-Ang):
   XX=             39.2024   YY=           -558.7935   ZZ=           -461.0872
   XY=           -168.9016   XZ=             20.9740   YZ=              8.5064

 Normal termination of Gaussian 16 at Sun Sep 19 00:52:03 2021.
