 Gaussian 16, Revision A.03,
 Gaussian 16:  ES64L-G16RevA.03 25-Dec-2016

 --------------------------------
 #p wB97XD/Def2SVP td=(nstates=5)
 --------------------------------

 --------------------------------
 TDDFT excited states in gaussian
 --------------------------------
 Symbolic Z-matrix:
 Charge =  0 Multiplicity = 1

                         Standard orientation:
 ---------------------------------------------------------------------
 Center     Atomic      Atomic             Coordinates (Angstroms)
 Number     Number       Type             X           Y           Z
 ---------------------------------------------------------------------
      1         12           0       -9.798348    0.017333    0.896755
      2          6           0       -9.472528   -2.217805   -1.810008
      3          6           0       -6.753055   -1.055543    1.984085
      4          6           0       -9.763244    2.675277    3.045140
      5          6           0      -12.681145    1.280379   -0.774834
      6          7           0       -8.197856   -1.395703    0.069971
      7          6           0       -8.307111   -2.313055   -0.935504
      8          6           0       -7.003662   -3.101855   -1.149276
      9          6           0       -6.406872   -2.905203    0.329809
     10          6           0       -7.168716   -1.706118    0.837140
     11          6           0       -6.561293   -4.118624    1.285472
     12          6           0       -6.029356   -2.487650   -2.252389
     13          6           0       -5.025145   -3.401469   -2.937664
     14          1           0       -3.506004   -3.286344   -2.689711
     15          7           0       -8.466343    0.773783    2.405774
     16          6           0       -7.347022    0.077717    2.759093
     17          6           0       -6.782252    0.593410    3.926831
     18          6           0       -7.647244    1.687888    4.306416
     19          6           0       -8.680739    1.802213    3.238817
     20          6           0       -5.537003    0.046036    4.613958
     21          6           0       -7.421174    2.507034    5.557001
     22          8           0       -6.452724    2.233096    6.311835
     23          6           0       -8.397303    3.633238    6.048489
     24          7           0      -11.051156    1.670950    1.056724
     25          6           0      -10.843374    2.638858    2.076427
     26          6           0      -12.061615    3.509240    2.212895
     27          6           0      -12.807892    3.337133    0.872107
     28          6           0      -12.226531    1.984778    0.366137
     29          6           0      -13.081302    3.234062    3.341125
     30          6           0      -12.462366    4.517300   -0.180463
     31          6           0      -13.240433    5.821441   -0.090622
     32          7           0      -10.953476   -0.524954   -0.837074
     33          6           0      -12.086936    0.066972   -1.373835
     34          6           0      -12.463702   -0.533365   -2.560432
     35          6           0      -11.476872   -1.511429   -2.772019
     36          6           0      -10.568938   -1.443376   -1.701833
     37          6           0      -13.663662   -0.161658   -3.373095
     38          6           0      -11.119780   -2.563195   -3.568698
     39          8           0      -11.711547   -3.080505   -4.495520
     40          6           0       -9.678972   -2.888372   -3.121759
     41          6           0       -8.808435   -2.391792   -4.237265
     42          8           0       -8.794190   -1.264010   -4.621944
     43          8           0       -8.090196   -3.450252   -4.796405
     44          6           0       -7.378430   -3.061960   -5.964134
     45          1           0       -5.891370   -1.506654    2.481009
     46          1           0       -9.913617    3.421497    3.828663
     47          1           0      -13.645564    1.628703   -1.149764
     48          1           0       -7.176256   -4.172902   -1.249542
     49          1           0       -5.335119   -2.750290    0.208655
     50          1           0       -5.582749   -4.594945    1.218681
     51          1           0       -7.312527   -4.827065    0.936593
     52          1           0       -6.733435   -3.800471    2.313827
     53          1           0       -5.401953   -1.711272   -1.814447
     54          1           0       -6.666159   -1.967861   -2.968542
     55          1           0       -5.217201   -3.248713   -4.000672
     56          1           0       -5.319664   -4.426540   -2.713315
     57          1           0       -5.475442    0.048229    5.702734
     58          1           0       -4.800366    0.670702    4.109264
     59          1           0       -5.440566   -1.020769    4.412038
     60          1           0       -9.371357    3.197345    6.268909
     61          1           0       -8.393114    4.324367    5.205851
     62          1           0       -8.040087    4.254552    6.869640
     63          1           0      -11.698378    4.535093    2.265184
     64          1           0      -13.889181    3.292967    1.002865
     65          1           0      -14.057895    2.883385    3.007832
     66          1           0      -12.981123    3.956558    4.151370
     67          1           0      -12.686581    2.345033    3.832725
     68          1           0      -12.669934    3.996504   -1.115012
     69          1           0      -11.404527    4.777271   -0.137467
     70          1           0      -12.538119    6.653001   -0.039298
     71          1           0      -13.854305    5.811728    0.810454
     72          1           0      -13.843327    5.986910   -0.983881
     73          1           0      -13.306290   -0.044694   -4.395770
     74          1           0      -14.079802    0.806164   -3.090644
     75          1           0      -14.435372   -0.931609   -3.367021
     76          1           0       -9.593283   -3.970146   -3.025129
     77          1           0       -7.991573   -3.249798   -6.845115
     78          1           0       -6.515169   -3.693628   -6.177032
     79          1           0       -7.098256   -2.010064   -5.949785
     80         12           0        9.668719    0.817546   -0.203403
     81          6           0        8.625648   -2.246842    1.227703
     82          6           0        6.466669    1.371683   -1.113937
     83          6           0       10.713501    3.572963   -1.629734
     84          6           0       13.042590   -0.332313    0.199912
     85          7           0        7.722243   -0.364290   -0.067794
     86          6           0        7.554365   -1.443749    0.783299
     87          6           0        6.085964   -1.634334    0.954437
     88          6           0        5.455010   -0.865279   -0.206713
     89          6           0        6.583717    0.153232   -0.504632
     90          6           0        5.218882   -1.809404   -1.444686
     91          6           0        5.452624   -1.188635    2.380207
     92          6           0        4.387780   -2.082547    3.086523
     93          1           0        3.186884   -2.559349    2.219362
     94          7           0        8.673210    2.269000   -1.251876
     95          6           0        7.395040    2.310075   -1.487824
     96          6           0        7.112929    3.510688   -2.293574
     97          6           0        8.296465    4.309424   -2.290962
     98          6           0        9.315807    3.378588   -1.728703
     99          6           0        5.772848    3.925295   -3.003286
    100          6           0        8.556438    5.743861   -2.749951
    101          8           0        9.683703    6.272515   -2.794176
    102          6           0        7.463711    6.480315   -3.366426
    103          7           0       11.675232    1.426923   -0.801900
    104          6           0       11.829843    2.719549   -1.295854
    105          6           0       13.364622    3.083804   -1.300425
    106          6           0       14.019037    1.874816   -0.586518
    107          6           0       12.840901    0.931061   -0.335078
    108          6           0       13.888691    3.446260   -2.690227
    109          6           0       14.893829    2.201912    0.649835
    110          6           0       16.201311    1.398196    0.840323
    111          7           0       10.678654   -0.909419    0.528684
    112          6           0       12.024283   -1.258527    0.584383
    113          6           0       12.148477   -2.486950    1.327023
    114          6           0       10.844067   -2.932951    1.545066
    115          6           0        9.948591   -1.941320    1.057814
    116          6           0       13.335514   -3.098245    1.760075
    117          6           0       10.012989   -3.976168    2.163939
    118          8           0       10.283091   -4.988289    2.790867
    119          6           0        8.520006   -3.542477    1.995732
    120          6           0        7.801902   -4.668631    1.273689
    121          8           0        7.684199   -4.967446    0.106872
    122          8           0        7.158473   -5.292635    2.303144
    123          6           0        6.074911   -6.245353    1.962987
    124          1           0        5.423663    1.606935   -1.337579
    125          1           0       10.994333    4.585664   -1.926205
    126          1           0       14.050062   -0.591806    0.530361
    127          1           0        5.725888   -2.661213    0.886722
    128          1           0        4.602335   -0.261195    0.102373
    129          1           0        4.345954   -1.545974   -2.040977
    130          1           0        4.981014   -2.835687   -1.163856
    131          1           0        6.102702   -1.677877   -2.067978
    132          1           0        5.108731   -0.156964    2.313813
    133          1           0        6.251899   -1.076912    3.113800
    134          1           0        3.959565   -1.393393    3.815301
    135          1           0        5.006220   -2.890068    3.478443
    136          1           0        5.265387    4.789304   -2.574848
    137          1           0        5.110208    3.060679   -2.955989
    138          1           0        5.879770    4.274374   -4.030361
    139          1           0        6.589677    6.498733   -2.714872
    140          1           0        7.193599    6.040848   -4.326722
    141          1           0        7.765838    7.526830   -3.392339
    142          1           0       13.476711    3.909299   -0.597345
    143          1           0       14.587207    1.273162   -1.295688
    144          1           0       14.235081    2.539680   -3.187532
    145          1           0       14.766703    4.091380   -2.689809
    146          1           0       13.047601    3.726755   -3.323397
    147          1           0       14.348055    2.199486    1.593226
    148          1           0       15.197522    3.249603    0.645233
    149          1           0       15.930731    0.618542    1.552531
    150          1           0       16.880045    2.090299    1.339770
    151          1           0       16.540098    0.998830   -0.115229
    152          1           0       13.351034   -4.165551    1.979641
    153          1           0       13.688942   -2.521387    2.615304
    154          1           0       14.032230   -2.989895    0.929629
    155          1           0        8.074650   -3.351905    2.972002
    156          1           0        5.276977   -6.015020    2.668341
    157          1           0        6.311204   -7.303412    2.073141
    158          1           0        5.713510   -6.052455    0.953239
 ---------------------------------------------------------------------

 SCF Done:  E(RwB97XD) =  -4070.57893610     A.U. after   20 cycles

 Excitation energies and oscillator strengths:

 Excited State   1:      Singlet-A      1.6458 eV  753.33 nm  f=0.3987  <S**2>=0.000
     309 -> 315        0.19120
     311 -> 313        0.68052
     309 <- 315        0.11800
 This state for optimization and/or second-order correction.
 Total Energy, E(TD-HF/TD-DFT) =  -4070.51845330
 Copying the excited state density for this state as the 1-particle RhoCI density.

 Excited State   2:      Singlet-A      1.6744 eV  740.46 nm  f=0.3774  <S**2>=0.000
     310 -> 316        0.19707
     312 -> 314        0.67925
     310 <- 316        0.11762

 Excited State   3:      Singlet-A      2.0908 eV  592.99 nm  f=0.1290  <S**2>=0.000
     309 -> 313        0.64851
     311 -> 315       -0.26293

 Excited State   4:      Singlet-A      2.2067 eV  561.85 nm  f=0.0686  <S**2>=0.000
     310 -> 314        0.62037
     312 -> 316       -0.32389

 Excited State   5:      Singlet-A      3.2418 eV  382.45 nm  f=0.0000  <S**2>=0.000
     312 -> 313        0.70679

 The electronic state is 1-A.
 Alpha  occ. eigenvalues --  -46.96794 -46.95712 -19.30764 -19.29634 -19.25980
 Alpha  occ. eigenvalues --  -19.24997 -19.24296 -19.23734 -19.23299 -19.23073
 Alpha  occ. eigenvalues --  -14.47926 -14.47412 -14.46367 -14.46006 -14.44547
 Alpha  occ. eigenvalues --  -14.44430 -14.43953 -14.43554 -10.43694 -10.43110
 Alpha  occ. eigenvalues --  -10.39486 -10.39168 -10.38838 -10.37486 -10.36605
 Alpha  occ. eigenvalues --  -10.36514 -10.35827 -10.35777 -10.35244 -10.35129
 Alpha  occ. eigenvalues --  -10.34871 -10.34870 -10.34835 -10.34821 -10.34426
 Alpha  occ. eigenvalues --  -10.34326 -10.34120 -10.34051 -10.33993 -10.33861
 Alpha  occ. eigenvalues --  -10.33649 -10.33560 -10.33475 -10.33254 -10.32615
 Alpha  occ. eigenvalues --  -10.32512 -10.32501 -10.32264 -10.32239 -10.32201
 Alpha  occ. eigenvalues --  -10.32176 -10.32038 -10.31991 -10.31974 -10.31926
 Alpha  occ. eigenvalues --  -10.31848 -10.31829 -10.31788 -10.31673 -10.31636
 Alpha  occ. eigenvalues --  -10.31632 -10.31630 -10.31597 -10.31586 -10.31472
 Alpha  occ. eigenvalues --  -10.31346 -10.31309 -10.31252 -10.30767 -10.30619
 Alpha  occ. eigenvalues --  -10.30568 -10.30557 -10.30465 -10.30372 -10.30298
 Alpha  occ. eigenvalues --  -10.30230 -10.30083 -10.29961 -10.29907 -10.29627
 Alpha  occ. eigenvalues --  -10.29596 -10.29581 -10.29467 -10.29092 -10.28839
 Alpha  occ. eigenvalues --  -10.28333  -3.22563  -3.21556  -1.96144  -1.95673
 Alpha  occ. eigenvalues --   -1.95522  -1.95139  -1.94678  -1.94515  -1.19933
 Alpha  occ. eigenvalues --   -1.18315  -1.12395  -1.11874  -1.11832  -1.11574
 Alpha  occ. eigenvalues --   -1.09993  -1.09678  -1.07924  -1.07187  -1.06855
 Alpha  occ. eigenvalues --   -1.06120  -1.05950  -1.05049  -1.04091  -1.04041
 Alpha  occ. eigenvalues --   -0.96511  -0.94750  -0.91016  -0.90783  -0.90764
 Alpha  occ. eigenvalues --   -0.90687  -0.90369  -0.89884  -0.89663  -0.89489
 Alpha  occ. eigenvalues --   -0.89169  -0.89070  -0.88808  -0.88012  -0.86446
 Alpha  occ. eigenvalues --   -0.86146  -0.85663  -0.85485  -0.84982  -0.84625
 Alpha  occ. eigenvalues --   -0.84397  -0.83955  -0.83454  -0.82791  -0.82573
 Alpha  occ. eigenvalues --   -0.82443  -0.80342  -0.80159  -0.79440  -0.79371
 Alpha  occ. eigenvalues --   -0.79049  -0.78963  -0.78037  -0.77802  -0.77792
 Alpha  occ. eigenvalues --   -0.77055  -0.75747  -0.74496  -0.74381  -0.73795
 Alpha  occ. eigenvalues --   -0.71618  -0.70863  -0.70665  -0.70552  -0.70541
 Alpha  occ. eigenvalues --   -0.69697  -0.69332  -0.69309  -0.68402  -0.67466
 Alpha  occ. eigenvalues --   -0.67432  -0.67285  -0.66977  -0.66848  -0.66378
 Alpha  occ. eigenvalues --   -0.66332  -0.64941  -0.63953  -0.62650  -0.62482
 Alpha  occ. eigenvalues --   -0.62300  -0.61725  -0.61566  -0.61331  -0.61233
 Alpha  occ. eigenvalues --   -0.61170  -0.60293  -0.60226  -0.59909  -0.59498
 Alpha  occ. eigenvalues --   -0.58637  -0.58157  -0.57861  -0.57831  -0.57417
 Alpha  occ. eigenvalues --   -0.57220  -0.57144  -0.56422  -0.55953  -0.55648
 Alpha  occ. eigenvalues --   -0.55646  -0.55512  -0.55255  -0.55179  -0.55141
 Alpha  occ. eigenvalues --   -0.54881  -0.54872  -0.54664  -0.54368  -0.54345
 Alpha  occ. eigenvalues --   -0.54041  -0.53922  -0.53604  -0.53507  -0.53503
 Alpha  occ. eigenvalues --   -0.53295  -0.53155  -0.52931  -0.52713  -0.52696
 Alpha  occ. eigenvalues --   -0.52355  -0.52198  -0.51922  -0.51903  -0.51794
 Alpha  occ. eigenvalues --   -0.51590  -0.51475  -0.51328  -0.51078  -0.50936
 Alpha  occ. eigenvalues --   -0.50871  -0.50752  -0.50559  -0.50108  -0.50015
 Alpha  occ. eigenvalues --   -0.49571  -0.49421  -0.49325  -0.49304  -0.49101
 Alpha  occ. eigenvalues --   -0.49028  -0.48850  -0.48685  -0.48577  -0.48490
 Alpha  occ. eigenvalues --   -0.48388  -0.48196  -0.48115  -0.47867  -0.47867
 Alpha  occ. eigenvalues --   -0.47469  -0.47388  -0.47136  -0.46978  -0.46829
 Alpha  occ. eigenvalues --   -0.46799  -0.46646  -0.46608  -0.46303  -0.46006
 Alpha  occ. eigenvalues --   -0.45956  -0.45857  -0.45764  -0.45613  -0.45421
 Alpha  occ. eigenvalues --   -0.45315  -0.45031  -0.44948  -0.44894  -0.44690
 Alpha  occ. eigenvalues --   -0.44690  -0.44577  -0.44303  -0.44240  -0.44089
 Alpha  occ. eigenvalues --   -0.43915  -0.43599  -0.43522  -0.43442  -0.43325
 Alpha  occ. eigenvalues --   -0.43217  -0.43064  -0.42801  -0.42522  -0.42451
 Alpha  occ. eigenvalues --   -0.42332  -0.42125  -0.41775  -0.41520  -0.41479
 Alpha  occ. eigenvalues --   -0.40668  -0.40582  -0.39963  -0.39723  -0.39701
 Alpha  occ. eigenvalues --   -0.39330  -0.39271  -0.39058  -0.38766  -0.38587
 Alpha  occ. eigenvalues --   -0.38500  -0.37840  -0.37629  -0.37201  -0.36668
 Alpha  occ. eigenvalues --   -0.35916  -0.35812  -0.35314  -0.33796  -0.33678
 Alpha  occ. eigenvalues --   -0.33364  -0.32727  -0.32595  -0.32440  -0.32295
 Alpha  occ. eigenvalues --   -0.32127  -0.31785  -0.31422  -0.26377  -0.25891
 Alpha  occ. eigenvalues --   -0.23979  -0.22775
 Alpha virt. eigenvalues --   -0.08097  -0.06621  -0.00724  -0.00145   0.01864
 Alpha virt. eigenvalues --    0.01929   0.04284   0.04433   0.04558   0.05028
 Alpha virt. eigenvalues --    0.06596   0.07300   0.07815   0.07816   0.08027

 Mulliken charges:
               1
     1  Mg   0.948270
     2  C    0.000427
     3  C   -0.065082
     4  C   -0.087291
     5  C   -0.085791
     6  N   -0.297958
     7  C   -0.037818
     8  C   -0.036626
     9  C   -0.151726
    10  C    0.082351
    11  C    0.029968
    12  C   -0.000937
    13  C   -0.097454
    14  H    0.042676
    15  N   -0.425930
    16  C    0.122587
    17  C   -0.157935
    18  C   -0.085146
    19  C    0.168667
    20  C    0.086309
    21  C    0.031921
    22  O   -0.271944
    23  C   -0.011358
    24  N   -0.428313
    25  C    0.087119
    26  C   -0.091972
    27  C   -0.113469
    28  C    0.082677
    29  C    0.055236
    30  C   -0.033218
    31  C   -0.022711
    32  N   -0.388312
    33  C    0.120956
    34  C   -0.174715
    35  C    0.039011
    36  C    0.121428
    37  C    0.098355
    38  C    0.026115
    39  O   -0.205939
    40  C   -0.074449
    41  C    0.253884
    42  O   -0.209812
    43  O   -0.358001
    44  C    0.118547
    45  H   -0.004849
    46  H   -0.015844
    47  H    0.010239
    48  H    0.028475
    49  H    0.040805
    50  H    0.038894
    51  H    0.043281
    52  H    0.043501
    53  H    0.043446
    54  H    0.047822
    55  H    0.049912
    56  H    0.043510
    57  H    0.069672
    58  H    0.064640
    59  H    0.029216
    60  H    0.067963
    61  H    0.050217
    62  H    0.051475
    63  H    0.031749
    64  H    0.028145
    65  H    0.049325
    66  H    0.044488
    67  H    0.015861
    68  H    0.024936
    69  H    0.036806
    70  H    0.035973
    71  H    0.032995
    72  H    0.043249
    73  H    0.055853
    74  H    0.023884
    75  H    0.064006
    76  H    0.048129
    77  H    0.049260
    78  H    0.048578
    79  H    0.061795
    80  Mg   0.942441
    81  C   -0.051942
    82  C   -0.101097
    83  C   -0.067599
    84  C   -0.090782
    85  N   -0.320414
    86  C    0.052448
    87  C   -0.094536
    88  C   -0.080820
    89  C   -0.005959
    90  C    0.042027
    91  C   -0.021022
    92  C   -0.113588
    93  H    0.028180
    94  N   -0.428109
    95  C    0.195009
    96  C   -0.167404
    97  C   -0.071001
    98  C    0.113761
    99  C    0.059048
   100  C    0.067157
   101  O   -0.250739
   102  C   -0.004457
   103  N   -0.356366
   104  C    0.033221
   105  C   -0.062111
   106  C   -0.056407
   107  C    0.068556
   108  C    0.048400
   109  C   -0.039104
   110  C   -0.040892
   111  N   -0.439373
   112  C    0.135257
   113  C   -0.196822
   114  C   -0.015758
   115  C    0.167373
   116  C    0.061232
   117  C    0.109501
   118  O   -0.199734
   119  C   -0.077125
   120  C    0.279488
   121  O   -0.226569
   122  O   -0.373760
   123  C    0.131720
   124  H   -0.012385
   125  H    0.026256
   126  H   -0.012818
   127  H    0.024199
   128  H    0.020121
   129  H    0.028979
   130  H    0.045527
   131  H    0.057578
   132  H    0.021993
   133  H    0.024830
   134  H    0.065836
   135  H    0.071845
   136  H    0.043922
   137  H    0.040855
   138  H    0.041450
   139  H    0.037884
   140  H    0.075225
   141  H    0.054695
   142  H    0.039286
   143  H    0.033337
   144  H    0.015945
   145  H    0.046733
   146  H    0.047940
   147  H    0.025373
   148  H    0.023010
   149  H    0.043239
   150  H    0.039888
   151  H    0.045407
   152  H    0.059965
   153  H    0.054230
   154  H    0.037929
   155  H    0.081440
   156  H    0.047343
   157  H    0.063777
   158  H    0.057839
 Sum of Mulliken charges =  -0.00000

 Dipole moment (field-independent basis, Debye):
    X=             -3.6930    Y=              4.1363    Z=              2.0346  Tot=              5.9065
 Quadrupole moment (field-independent basis, Debye-Ang):
   XX=           -489.5749   YY=           -523.2707   ZZ=           -540.1132
   XY=              0.5415   XZ=            -31.3000   YZ=             -3.1891

 Normal termination of Gaussian 16 at Sun Sep 19 11:56:03 2021.
