 Gaussian 16, Revision A.03,
 Gaussian 16:  ES64L-G16RevA.03 25-Dec-2016

 --------------------------------
 #p wB97XD/Def2SVP td=(nstates=5)
 --------------------------------

 --------------------------------
 TDDFT excited states in gaussian
 --------------------------------
 Symbolic Z-matrix:
 Charge =  0 Multiplicity = 1

                         Standard orientation:
 ---------------------------------------------------------------------
 Center     Atomic      Atomic             Coordinates (Angstroms)
 Number     Number       Type             X           Y           Z
 ---------------------------------------------------------------------
      1         12           0      -14.535550    0.784578    0.082379
      2          6           0      -14.395243   -2.677037   -0.191272
      3          6           0      -11.168767    0.904052    0.084800
      4          6           0      -14.678571    3.999821    1.122037
      5          6           0      -17.970865    0.501519    0.902279
      6          7           0      -13.066022   -0.740176   -0.129811
      7          6           0      -13.155772   -2.090448   -0.389111
      8          6           0      -11.739172   -2.717912   -0.503236
      9          6           0      -10.860778   -1.603778    0.145071
     10          6           0      -11.711277   -0.361149   -0.073722
     11          6           0      -10.564177   -1.806776    1.672624
     12          6           0      -11.535581   -3.158707   -1.964349
     13          6           0      -10.882867   -4.479736   -2.116662
     14          1           0      -11.083817   -5.121013   -3.414545
     15          7           0      -13.121895    2.267706    0.310665
     16          6           0      -11.776958    2.113171    0.202255
     17          6           0      -11.175296    3.419115    0.102303
     18          6           0      -12.232258    4.349871    0.409971
     19          6           0      -13.408082    3.530110    0.716729
     20          6           0       -9.723899    3.643060   -0.129455
     21          6           0      -12.216769    5.902009    0.597465
     22          8           0      -13.230183    6.554592    0.855560
     23          6           0      -10.976250    6.707284    0.328733
     24          7           0      -16.062799    1.956761    1.225604
     25          6           0      -15.875503    3.355070    1.400652
     26          6           0      -17.110000    4.069136    1.842160
     27          6           0      -18.147913    2.941727    1.532932
     28          6           0      -17.340025    1.713435    1.122385
     29          6           0      -17.075504    4.552460    3.331607
     30          6           0      -19.161134    3.320493    0.391676
     31          6           0      -18.527362    3.832487   -0.926873
     32          7           0      -15.955012   -0.725002    0.214974
     33          6           0      -17.326839   -0.687261    0.508883
     34          6           0      -17.794467   -2.019924    0.421953
     35          6           0      -16.685973   -2.803145    0.125238
     36          6           0      -15.615518   -1.976883    0.025526
     37          6           0      -19.218724   -2.451427    0.570117
     38          6           0      -16.271591   -4.118174   -0.029959
     39          8           0      -16.935314   -5.169122    0.031887
     40          6           0      -14.732499   -4.175855   -0.268057
     41          6           0      -14.609091   -4.843712   -1.673156
     42          8           0      -14.945980   -4.323522   -2.751675
     43          8           0      -14.065524   -6.111964   -1.499797
     44          6           0      -14.078127   -7.055621   -2.662513
     45          1           0      -10.084671    0.802836    0.169056
     46          1           0      -14.944845    5.034012    1.353182
     47          1           0      -19.055673    0.381241    0.938242
     48          1           0      -11.695893   -3.656631    0.048037
     49          1           0       -9.946622   -1.487536   -0.436333
     50          1           0      -10.927595   -2.735323    2.113812
     51          1           0      -11.089129   -1.059620    2.266467
     52          1           0       -9.484334   -1.823033    1.818758
     53          1           0      -10.822636   -2.450829   -2.384782
     54          1           0      -12.507420   -3.125087   -2.457534
     55          1           0      -11.357486   -5.127209   -1.379175
     56          1           0       -9.833805   -4.380600   -1.838536
     57          1           0       -9.246198    2.758730   -0.550762
     58          1           0       -9.300509    4.085394    0.772939
     59          1           0       -9.597794    4.399859   -0.903778
     60          1           0      -11.102535    7.606112    0.932702
     61          1           0      -10.929777    7.011154   -0.717275
     62          1           0      -10.073776    6.192649    0.660027
     63          1           0      -17.360913    4.937503    1.231383
     64          1           0      -18.700139    2.716097    2.445773
     65          1           0      -16.326782    3.973725    3.873188
     66          1           0      -18.001378    4.459576    3.899480
     67          1           0      -16.811771    5.598865    3.487853
     68          1           0      -19.861687    4.024929    0.840439
     69          1           0      -19.734975    2.404201    0.253467
     70          1           0      -18.789509    3.215032   -1.786250
     71          1           0      -17.448566    3.846036   -0.769099
     72          1           0      -18.838882    4.846189   -1.177010
     73          1           0      -19.219089   -3.197280    1.364928
     74          1           0      -19.550124   -2.835835   -0.394498
     75          1           0      -19.910039   -1.678755    0.906739
     76          1           0      -14.298822   -4.841168    0.478051
     77          1           0      -15.126282   -7.192537   -2.927492
     78          1           0      -13.642191   -8.044115   -2.518141
     79          1           0      -13.518955   -6.421055   -3.350141
     80         12           0       15.209826   -0.092622   -0.062596
     81          6           0       11.816830   -0.468847   -0.766576
     82          6           0       15.201686    2.877159   -1.813285
     83          6           0       18.368265    0.111389    0.803974
     84          6           0       14.821986   -2.584492    2.568507
     85          7           0       13.595444    1.041829   -1.247256
     86          6           0       12.273070    0.721947   -1.376201
     87          6           0       11.570950    1.702728   -2.246739
     88          6           0       12.662877    2.805946   -2.545658
     89          6           0       13.950827    2.237520   -1.831588
     90          6           0       12.793879    3.200535   -4.038301
     91          6           0       10.309604    2.307684   -1.583815
     92          6           0        9.098258    2.177896   -2.505580
     93          1           0        8.286035    3.472178   -2.812394
     94          7           0       16.608736    1.298348   -0.482941
     95          6           0       16.453781    2.446081   -1.258971
     96          6           0       17.781009    3.042378   -1.338537
     97          6           0       18.753835    2.222371   -0.598724
     98          6           0       17.935990    1.077392   -0.087425
     99          6           0       18.018206    4.347591   -1.914732
    100          6           0       20.138563    2.663932   -0.362511
    101          8           0       20.613601    3.688459   -0.805924
    102          6           0       21.094732    1.955130    0.532030
    103          7           0       16.343525   -1.039821    1.447868
    104          6           0       17.712287   -0.966877    1.391059
    105          6           0       18.325470   -1.826373    2.476367
    106          6           0       17.168145   -2.256530    3.297820
    107          6           0       16.037999   -1.904664    2.464431
    108          6           0       19.287040   -2.974540    1.961667
    109          6           0       17.016650   -1.439748    4.626850
    110          6           0       16.409842   -2.134333    5.756955
    111          7           0       13.663569   -1.337001    0.759092
    112          6           0       13.659220   -2.325324    1.752117
    113          6           0       12.434592   -3.058212    1.674437
    114          6           0       11.663507   -2.363513    0.750018
    115          6           0       12.450462   -1.273697    0.232178
    116          6           0       12.129926   -4.253061    2.500457
    117          6           0       10.390448   -2.294741    0.150696
    118          8           0        9.417999   -2.999903    0.302742
    119          6           0       10.446822   -1.136112   -0.869798
    120          6           0       10.103065   -1.653925   -2.203649
    121          8           0       10.897919   -2.171339   -3.006451
    122          8           0        8.737398   -1.626119   -2.369949
    123          6           0        8.146212   -1.993549   -3.646375
    124          1           0       15.139700    3.773275   -2.433355
    125          1           0       19.379010    0.091519    1.219139
    126          1           0       14.759738   -3.343746    3.350913
    127          1           0       11.496488    1.197458   -3.210093
    128          1           0       12.448036    3.768151   -2.081804
    129          1           0       11.849696    2.846997   -4.454349
    130          1           0       13.685744    2.852617   -4.559590
    131          1           0       12.816496    4.285890   -4.133157
    132          1           0       10.366141    3.383784   -1.420800
    133          1           0       10.176812    1.774597   -0.642563
    134          1           0        8.451570    1.584785   -1.859132
    135          1           0        9.419098    1.618525   -3.383129
    136          1           0       17.072130    4.717180   -2.310840
    137          1           0       18.682156    4.375168   -2.779261
    138          1           0       18.345297    5.033021   -1.132086
    139          1           0       20.946944    0.938046    0.168944
    140          1           0       20.752159    2.061347    1.561670
    141          1           0       22.117133    2.296761    0.369072
    142          1           0       18.970117   -1.125820    3.005897
    143          1           0       17.034735   -3.324314    3.471734
    144          1           0       19.500718   -2.846491    0.900349
    145          1           0       18.983774   -3.985741    2.235204
    146          1           0       20.306058   -2.879561    2.335715
    147          1           0       16.463400   -0.523194    4.421682
    148          1           0       17.990120   -1.104601    4.984460
    149          1           0       17.192101   -2.668219    6.297618
    150          1           0       15.601832   -2.798898    5.449276
    151          1           0       16.122711   -1.410394    6.520244
    152          1           0       13.010528   -4.883953    2.620596
    153          1           0       11.289775   -4.842723    2.133301
    154          1           0       11.951849   -3.837437    3.492292
    155          1           0        9.650084   -0.406027   -0.726753
    156          1           0        8.140019   -3.041633   -3.945855
    157          1           0        8.589019   -1.390389   -4.438719
    158          1           0        7.088856   -1.763830   -3.520068
 ---------------------------------------------------------------------

 SCF Done:  E(RwB97XD) =  -4070.58586221     A.U. after   19 cycles

 Excitation energies and oscillator strengths:

 Excited State   1:      Singlet-A      1.6037 eV  773.10 nm  f=0.4376  <S**2>=0.000
     310 -> 316       -0.16765
     312 -> 314        0.68442
     310 <- 316       -0.11317
 This state for optimization and/or second-order correction.
 Total Energy, E(TD-HF/TD-DFT) =  -4070.52692648
 Copying the excited state density for this state as the 1-particle RhoCI density.

 Excited State   2:      Singlet-A      1.6145 eV  767.96 nm  f=0.3103  <S**2>=0.000
     309 -> 315       -0.19366
     311 -> 313        0.67910
     309 <- 315       -0.12078

 Excited State   3:      Singlet-A      2.1300 eV  582.10 nm  f=0.1005  <S**2>=0.000
     309 -> 313        0.63361
     311 -> 315        0.30004

 Excited State   4:      Singlet-A      2.1619 eV  573.50 nm  f=0.1242  <S**2>=0.000
     310 -> 314        0.64148
     312 -> 316        0.27552

 Excited State   5:      Singlet-A      3.2511 eV  381.36 nm  f=0.0002  <S**2>=0.000
     304 -> 314        0.18593
     304 -> 318       -0.11055
     304 -> 320        0.12794
     305 -> 314        0.55498
     308 -> 314       -0.31210

 The electronic state is 1-A.
 Alpha  occ. eigenvalues --  -46.95345 -46.94652 -19.30181 -19.29965 -19.24961
 Alpha  occ. eigenvalues --  -19.24395 -19.23724 -19.23469 -19.22734 -19.22463
 Alpha  occ. eigenvalues --  -14.46991 -14.46617 -14.46538 -14.46052 -14.44973
 Alpha  occ. eigenvalues --  -14.43900 -14.43823 -14.43095 -10.43920 -10.43020
 Alpha  occ. eigenvalues --  -10.39223 -10.38272 -10.37707 -10.37650 -10.35747
 Alpha  occ. eigenvalues --  -10.35715 -10.35704 -10.35653 -10.35497 -10.35214
 Alpha  occ. eigenvalues --  -10.35148 -10.34991 -10.34535 -10.34518 -10.34319
 Alpha  occ. eigenvalues --  -10.34214 -10.34197 -10.33951 -10.33351 -10.33160
 Alpha  occ. eigenvalues --  -10.33142 -10.33055 -10.32772 -10.32769 -10.32499
 Alpha  occ. eigenvalues --  -10.32448 -10.32383 -10.32328 -10.32320 -10.32314
 Alpha  occ. eigenvalues --  -10.32268 -10.32189 -10.32132 -10.31948 -10.31932
 Alpha  occ. eigenvalues --  -10.31788 -10.31781 -10.31585 -10.31574 -10.31472
 Alpha  occ. eigenvalues --  -10.31405 -10.31379 -10.31267 -10.31230 -10.31206
 Alpha  occ. eigenvalues --  -10.31040 -10.30893 -10.30768 -10.30725 -10.30506
 Alpha  occ. eigenvalues --  -10.30413 -10.30402 -10.30316 -10.30215 -10.30158
 Alpha  occ. eigenvalues --  -10.29945 -10.29771 -10.29674 -10.29642 -10.29620
 Alpha  occ. eigenvalues --  -10.29416 -10.29386 -10.29115 -10.28845 -10.28817
 Alpha  occ. eigenvalues --  -10.27798  -3.21283  -3.20680  -1.94875  -1.94415
 Alpha  occ. eigenvalues --   -1.94249  -1.94239  -1.93809  -1.93654  -1.17710
 Alpha  occ. eigenvalues --   -1.16575  -1.12359  -1.12117  -1.11647  -1.10171
 Alpha  occ. eigenvalues --   -1.08978  -1.08845  -1.07049  -1.06841  -1.05904
 Alpha  occ. eigenvalues --   -1.05881  -1.05503  -1.05073  -1.04212  -1.03692
 Alpha  occ. eigenvalues --   -0.94704  -0.94527  -0.92709  -0.91532  -0.91054
 Alpha  occ. eigenvalues --   -0.90996  -0.90889  -0.90437  -0.89711  -0.89687
 Alpha  occ. eigenvalues --   -0.89252  -0.89056  -0.88453  -0.88334  -0.87230
 Alpha  occ. eigenvalues --   -0.86515  -0.86465  -0.85448  -0.85424  -0.84566
 Alpha  occ. eigenvalues --   -0.84035  -0.83503  -0.83444  -0.82916  -0.82855
 Alpha  occ. eigenvalues --   -0.82327  -0.80650  -0.80131  -0.79981  -0.79133
 Alpha  occ. eigenvalues --   -0.78966  -0.78834  -0.78317  -0.77934  -0.77404
 Alpha  occ. eigenvalues --   -0.77371  -0.75465  -0.75221  -0.74091  -0.73980
 Alpha  occ. eigenvalues --   -0.71686  -0.71383  -0.71088  -0.70727  -0.70016
 Alpha  occ. eigenvalues --   -0.69545  -0.69495  -0.68470  -0.68464  -0.67962
 Alpha  occ. eigenvalues --   -0.67355  -0.67306  -0.66763  -0.66564  -0.66431
 Alpha  occ. eigenvalues --   -0.66021  -0.64095  -0.63573  -0.62782  -0.61854
 Alpha  occ. eigenvalues --   -0.61735  -0.61538  -0.61523  -0.61112  -0.61039
 Alpha  occ. eigenvalues --   -0.60413  -0.59997  -0.59540  -0.59454  -0.58939
 Alpha  occ. eigenvalues --   -0.58463  -0.57925  -0.57894  -0.57541  -0.57475
 Alpha  occ. eigenvalues --   -0.57248  -0.57200  -0.56947  -0.56701  -0.56443
 Alpha  occ. eigenvalues --   -0.56248  -0.55412  -0.55210  -0.54942  -0.54873
 Alpha  occ. eigenvalues --   -0.54807  -0.54744  -0.54563  -0.54358  -0.54296
 Alpha  occ. eigenvalues --   -0.54097  -0.53834  -0.53752  -0.53649  -0.53612
 Alpha  occ. eigenvalues --   -0.53376  -0.53283  -0.53253  -0.52426  -0.52401
 Alpha  occ. eigenvalues --   -0.52256  -0.52033  -0.51680  -0.51534  -0.51414
 Alpha  occ. eigenvalues --   -0.51317  -0.51133  -0.51074  -0.50840  -0.50793
 Alpha  occ. eigenvalues --   -0.50664  -0.50544  -0.50483  -0.50426  -0.50006
 Alpha  occ. eigenvalues --   -0.49884  -0.49616  -0.49573  -0.49300  -0.49144
 Alpha  occ. eigenvalues --   -0.49007  -0.48980  -0.48788  -0.48634  -0.48491
 Alpha  occ. eigenvalues --   -0.48310  -0.48229  -0.48182  -0.47867  -0.47740
 Alpha  occ. eigenvalues --   -0.47624  -0.47371  -0.47308  -0.46951  -0.46594
 Alpha  occ. eigenvalues --   -0.46533  -0.46524  -0.46384  -0.46057  -0.46035
 Alpha  occ. eigenvalues --   -0.45658  -0.45657  -0.45489  -0.45359  -0.45353
 Alpha  occ. eigenvalues --   -0.45234  -0.45091  -0.45047  -0.44980  -0.44923
 Alpha  occ. eigenvalues --   -0.44578  -0.44539  -0.44279  -0.44050  -0.43834
 Alpha  occ. eigenvalues --   -0.43737  -0.43711  -0.43620  -0.43488  -0.43428
 Alpha  occ. eigenvalues --   -0.43151  -0.43034  -0.42788  -0.42654  -0.42582
 Alpha  occ. eigenvalues --   -0.42226  -0.42132  -0.41838  -0.41171  -0.41027
 Alpha  occ. eigenvalues --   -0.40529  -0.40158  -0.39945  -0.39721  -0.39367
 Alpha  occ. eigenvalues --   -0.39266  -0.39141  -0.38864  -0.38515  -0.38448
 Alpha  occ. eigenvalues --   -0.38375  -0.38058  -0.36413  -0.36142  -0.36082
 Alpha  occ. eigenvalues --   -0.35809  -0.35447  -0.35270  -0.33665  -0.33515
 Alpha  occ. eigenvalues --   -0.32735  -0.32719  -0.32108  -0.32026  -0.31893
 Alpha  occ. eigenvalues --   -0.31752  -0.31597  -0.31517  -0.26295  -0.26136
 Alpha  occ. eigenvalues --   -0.23441  -0.22978
 Alpha virt. eigenvalues --   -0.07584  -0.07333  -0.00661   0.00454   0.02248
 Alpha virt. eigenvalues --    0.02626   0.04396   0.04486   0.05421   0.05773
 Alpha virt. eigenvalues --    0.06408   0.07159   0.07380   0.07450   0.07860

 Mulliken charges:
               1
     1  Mg   0.955926
     2  C   -0.066747
     3  C   -0.119158
     4  C   -0.021050
     5  C   -0.102791
     6  N   -0.406668
     7  C    0.020154
     8  C   -0.101746
     9  C   -0.087870
    10  C    0.034005
    11  C    0.034840
    12  C    0.039972
    13  C   -0.123682
    14  H    0.052795
    15  N   -0.463925
    16  C    0.229631
    17  C   -0.175640
    18  C   -0.078370
    19  C    0.188312
    20  C    0.069390
    21  C    0.055854
    22  O   -0.248611
    23  C   -0.006289
    24  N   -0.316660
    25  C   -0.057337
    26  C   -0.058110
    27  C   -0.099711
    28  C    0.111840
    29  C    0.018226
    30  C   -0.021916
    31  C   -0.053884
    32  N   -0.435007
    33  C    0.117015
    34  C   -0.197912
    35  C    0.053965
    36  C    0.194169
    37  C    0.092938
    38  C    0.016727
    39  O   -0.242777
    40  C   -0.028633
    41  C    0.287386
    42  O   -0.268738
    43  O   -0.389740
    44  C    0.142337
    45  H   -0.000850
    46  H    0.018613
    47  H    0.002501
    48  H    0.020192
    49  H    0.019532
    50  H    0.035651
    51  H    0.053022
    52  H    0.043629
    53  H    0.021617
    54  H    0.065473
    55  H    0.039953
    56  H    0.040284
    57  H    0.041142
    58  H    0.067685
    59  H    0.043006
    60  H    0.054668
    61  H    0.075010
    62  H    0.027226
    63  H    0.045750
    64  H    0.030907
    65  H    0.039614
    66  H    0.032746
    67  H    0.042618
    68  H    0.031208
    69  H    0.022895
    70  H    0.046436
    71  H    0.045774
    72  H    0.042238
    73  H    0.058152
    74  H    0.067981
    75  H    0.019602
    76  H    0.066986
    77  H    0.068272
    78  H    0.069602
    79  H    0.058352
    80  Mg   0.953253
    81  C    0.048420
    82  C   -0.057482
    83  C   -0.121882
    84  C   -0.096200
    85  N   -0.342716
    86  C   -0.024013
    87  C   -0.029665
    88  C   -0.145948
    89  C    0.045773
    90  C    0.012183
    91  C    0.023911
    92  C   -0.137339
    93  H    0.039007
    94  N   -0.537494
    95  C    0.202074
    96  C   -0.171394
    97  C   -0.063910
    98  C    0.269755
    99  C    0.097357
   100  C   -0.011503
   101  O   -0.238899
   102  C    0.006697
   103  N   -0.369006
   104  C    0.069681
   105  C   -0.083451
   106  C   -0.081598
   107  C    0.063195
   108  C    0.032010
   109  C    0.003054
   110  C   -0.018660
   111  N   -0.406754
   112  C    0.111610
   113  C   -0.185410
   114  C   -0.015260
   115  C    0.112699
   116  C    0.089599
   117  C    0.108515
   118  O   -0.187820
   119  C   -0.127796
   120  C    0.253731
   121  O   -0.268960
   122  O   -0.361298
   123  C    0.149067
   124  H    0.001512
   125  H   -0.005627
   126  H   -0.002743
   127  H    0.049530
   128  H    0.042567
   129  H    0.038353
   130  H    0.051790
   131  H    0.032406
   132  H    0.051860
   133  H    0.051923
   134  H    0.064103
   135  H    0.053348
   136  H    0.001032
   137  H    0.057563
   138  H    0.064938
   139  H    0.039581
   140  H    0.062520
   141  H    0.058316
   142  H    0.032853
   143  H    0.027111
   144  H    0.034063
   145  H    0.045513
   146  H    0.027908
   147  H    0.039379
   148  H    0.020052
   149  H    0.027199
   150  H    0.029187
   151  H    0.034577
   152  H    0.036263
   153  H    0.067878
   154  H    0.051103
   155  H    0.050739
   156  H    0.058159
   157  H    0.047346
   158  H    0.050561
 Sum of Mulliken charges =  -0.00000

 Dipole moment (field-independent basis, Debye):
    X=              4.1937    Y=              1.6627    Z=              2.1083  Tot=              4.9796
 Quadrupole moment (field-independent basis, Debye-Ang):
   XX=           -560.8935   YY=           -524.2943   ZZ=           -493.1392
   XY=            -74.4524   XZ=             41.9888   YZ=            -11.4977

 Normal termination of Gaussian 16 at Sun Sep 19 09:51:30 2021.
