 Gaussian 16, Revision A.03,
 Gaussian 16:  ES64L-G16RevA.03 25-Dec-2016

 --------------------------------
 #p wB97XD/Def2SVP td=(nstates=5)
 --------------------------------

 --------------------------------
 TDDFT excited states in gaussian
 --------------------------------
 Symbolic Z-matrix:
 Charge =  0 Multiplicity = 1

                         Standard orientation:
 ---------------------------------------------------------------------
 Center     Atomic      Atomic             Coordinates (Angstroms)
 Number     Number       Type             X           Y           Z
 ---------------------------------------------------------------------
      1         12           0       26.488773    0.306391    0.580592
      2          6           0       24.952088   -2.357148   -1.280241
      3          6           0       26.846024    1.972912   -2.528421
      4          6           0       28.128985    2.949210    2.168524
      5          6           0       26.456274   -1.516425    3.379983
      6          7           0       26.104384   -0.305292   -1.729923
      7          6           0       25.381545   -1.359780   -2.164508
      8          6           0       25.288502   -1.335065   -3.732601
      9          6           0       26.105235   -0.030739   -4.046170
     10          6           0       26.317398    0.662487   -2.680754
     11          6           0       27.439852   -0.332700   -4.813103
     12          6           0       23.853098   -1.274933   -4.254396
     13          6           0       23.530387   -2.172028   -5.404040
     14          1           0       22.081997   -2.232573   -5.910398
     15          7           0       27.172690    2.249220   -0.004063
     16          6           0       27.231386    2.709187   -1.315406
     17          6           0       27.754909    4.060665   -1.294901
     18          6           0       28.035127    4.413362    0.014851
     19          6           0       27.854585    3.146696    0.801203
     20          6           0       28.080138    4.870557   -2.516953
     21          6           0       28.639344    5.741067    0.630914
     22          8           0       28.861293    5.980245    1.792656
     23          6           0       28.827410    6.937985   -0.275874
     24          7           0       27.319040    0.630583    2.398730
     25          6           0       27.942058    1.747933    2.890429
     26          6           0       28.549683    1.509139    4.292434
     27          6           0       27.807401    0.189254    4.770235
     28          6           0       27.117404   -0.247715    3.422044
     29          6           0       30.110104    1.435464    4.277643
     30          6           0       26.786753    0.403853    5.929050
     31          6           0       25.540818    1.211612    5.572707
     32          7           0       25.897659   -1.523360    1.027284
     33          6           0       25.871589   -2.174744    2.291923
     34          6           0       25.296550   -3.512422    2.168766
     35          6           0       24.887794   -3.586779    0.825081
     36          6           0       25.248017   -2.379972    0.169046
     37          6           0       25.138398   -4.482838    3.245471
     38          6           0       24.240393   -4.494126   -0.116882
     39          8           0       23.741053   -5.589394    0.079410
     40          6           0       24.328377   -3.773090   -1.567715
     41          6           0       22.851283   -3.820729   -1.965982
     42          8           0       21.905677   -3.153310   -1.509358
     43          8           0       22.686229   -4.767304   -2.873478
     44          6           0       21.379951   -4.836332   -3.646004
     45          1           0       26.883007    2.506994   -3.479859
     46          1           0       28.642538    3.720248    2.748152
     47          1           0       26.411119   -2.025756    4.344558
     48          1           0       25.698043   -2.297261   -4.038258
     49          1           0       25.523350    0.675954   -4.639377
     50          1           0       27.578582    0.195204   -5.756591
     51          1           0       27.672801   -1.394245   -4.898627
     52          1           0       28.354264    0.037968   -4.349355
     53          1           0       23.878027   -0.342004   -4.817811
     54          1           0       23.107537   -1.239970   -3.459264
     55          1           0       23.835469   -3.219448   -5.380265
     56          1           0       24.102490   -1.732960   -6.221439
     57          1           0       27.707411    4.391404   -3.421899
     58          1           0       29.141427    5.070656   -2.672361
     59          1           0       27.625555    5.860396   -2.561018
     60          1           0       27.891333    7.270391   -0.724482
     61          1           0       29.565496    6.558417   -0.982526
     62          1           0       29.360424    7.646448    0.358248
     63          1           0       28.323482    2.430881    4.829617
     64          1           0       28.412944   -0.708086    4.899418
     65          1           0       30.575786    2.288128    4.771746
     66          1           0       30.608284    1.261152    3.324593
     67          1           0       30.276373    0.517893    4.842306
     68          1           0       27.356407    0.672093    6.818903
     69          1           0       26.398170   -0.577190    6.201759
     70          1           0       25.530153    1.657221    4.578676
     71          1           0       25.513668    2.033092    6.288190
     72          1           0       24.611112    0.647006    5.512343
     73          1           0       24.692104   -5.432250    2.948908
     74          1           0       24.509689   -3.983925    3.982869
     75          1           0       26.121193   -4.638381    3.692723
     76          1           0       24.825308   -4.396790   -2.310767
     77          1           0       21.589585   -5.449650   -4.522635
     78          1           0       21.066409   -3.868690   -4.036568
     79          1           0       20.543765   -5.209985   -3.053867
     80         12           0      -26.634399   -0.046662    0.129681
     81          6           0      -23.754616    1.472911   -0.980101
     82          6           0      -25.025795   -3.043407    0.528828
     83          6           0      -29.530940   -1.517334    1.440628
     84          6           0      -28.114988    3.040616    0.579992
     85          7           0      -24.537204   -0.578500   -0.012470
     86          6           0      -23.516420    0.122910   -0.659860
     87          6           0      -22.211079   -0.676524   -0.676096
     88          6           0      -22.773246   -2.085600   -0.359095
     89          6           0      -24.208256   -1.915376    0.180255
     90          6           0      -22.618912   -3.077781   -1.532485
     91          6           0      -21.196241   -0.158543    0.362249
     92          6           0      -19.699105   -0.070813   -0.094511
     93          1           0      -18.682089   -0.283234    0.957859
     94          7           0      -27.183809   -1.980363    0.809128
     95          6           0      -26.415679   -3.093824    0.810734
     96          6           0      -27.164212   -4.288810    1.061962
     97          6           0      -28.506981   -3.899742    1.197652
     98          6           0      -28.468301   -2.380519    1.124209
     99          6           0      -26.581691   -5.702370    1.002446
    100          6           0      -29.745307   -4.835195    1.446099
    101          8           0      -29.540112   -6.062865    1.626162
    102          6           0      -31.253005   -4.334844    1.399994
    103          7           0      -28.445037    0.687921    1.182661
    104          6           0      -29.505285   -0.105279    1.471479
    105          6           0      -30.750196    0.676183    1.804733
    106          6           0      -30.313480    2.140787    1.585654
    107          6           0      -28.891071    1.966780    1.047267
    108          6           0      -32.028482    0.236823    1.016450
    109          6           0      -30.487618    3.055472    2.890144
    110          6           0      -31.674535    4.024427    2.838321
    111          7           0      -26.111314    1.876095   -0.183493
    112          6           0      -26.814109    3.086229    0.006812
    113          6           0      -26.068633    4.183268   -0.624307
    114          6           0      -24.914331    3.560122   -1.077758
    115          6           0      -24.959563    2.217356   -0.668099
    116          6           0      -26.404801    5.626567   -0.744803
    117          6           0      -23.637426    3.806451   -1.762830
    118          8           0      -23.226938    4.774061   -2.424556
    119          6           0      -22.842319    2.439604   -1.768066
    120          6           0      -22.577621    1.956840   -3.187847
    121          8           0      -23.371388    1.923379   -4.133469
    122          8           0      -21.250927    1.643500   -3.174169
    123          6           0      -20.649693    1.310316   -4.454655
    124          1           0      -24.525646   -4.005846    0.654662
    125          1           0      -30.513450   -1.863517    1.768342
    126          1           0      -28.528617    4.045548    0.685512
    127          1           0      -21.746574   -0.597040   -1.659520
    128          1           0      -22.129391   -2.433906    0.448456
    129          1           0      -21.874318   -2.884810   -2.304752
    130          1           0      -23.568878   -3.046382   -2.065827
    131          1           0      -22.413999   -4.091907   -1.190272
    132          1           0      -21.248680   -0.694546    1.309515
    133          1           0      -21.587676    0.809707    0.675220
    134          1           0      -19.524229    0.906050   -0.545269
    135          1           0      -19.514225   -0.863450   -0.820872
    136          1           0      -27.180633   -6.233406    0.262947
    137          1           0      -26.474471   -6.098355    2.012371
    138          1           0      -25.597320   -5.568973    0.553847
    139          1           0      -31.469916   -3.942845    2.392976
    140          1           0      -31.859225   -5.220174    1.209615
    141          1           0      -31.341792   -3.719180    0.504501
    142          1           0      -30.975017    0.513455    2.858887
    143          1           0      -30.760722    2.658383    0.737347
    144          1           0      -32.574143    1.095642    0.626540
    145          1           0      -32.719415   -0.343512    1.627671
    146          1           0      -31.738518   -0.458777    0.230028
    147          1           0      -29.632385    3.710208    3.056966
    148          1           0      -30.524316    2.429911    3.781944
    149          1           0      -32.147480    4.078119    3.819062
    150          1           0      -32.404308    3.673024    2.109224
    151          1           0      -31.405572    5.037939    2.541312
    152          1           0      -27.414843    5.758838   -0.356908
    153          1           0      -26.143244    5.987630   -1.739647
    154          1           0      -25.780844    6.138987   -0.011759
    155          1           0      -21.907618    2.500246   -1.209976
    156          1           0      -21.252316    0.635656   -5.064078
    157          1           0      -19.643162    0.892437   -4.436331
    158          1           0      -20.506253    2.219199   -5.039560
 ---------------------------------------------------------------------

 SCF Done:  E(RwB97XD) =  -4070.61241289     A.U. after   19 cycles

 Excitation energies and oscillator strengths:

 Excited State   1:      Singlet-A      1.5889 eV  780.33 nm  f=0.3659  <S**2>=0.000
     310 -> 315        0.18996
     312 -> 313        0.68307
     310 <- 315        0.12271
 This state for optimization and/or second-order correction.
 Total Energy, E(TD-HF/TD-DFT) =  -4070.55402308
 Copying the excited state density for this state as the 1-particle RhoCI density.

 Excited State   2:      Singlet-A      1.6650 eV  744.64 nm  f=0.3632  <S**2>=0.000
     309 -> 316        0.17867
     311 -> 314        0.68382
     309 <- 316        0.11336

 Excited State   3:      Singlet-A      2.1588 eV  574.31 nm  f=0.0894  <S**2>=0.000
     310 -> 313        0.62434
     312 -> 315       -0.32215

 Excited State   4:      Singlet-A      2.1965 eV  564.46 nm  f=0.0912  <S**2>=0.000
     309 -> 314        0.62320
     311 -> 316       -0.31717

 Excited State   5:      Singlet-A      3.4490 eV  359.48 nm  f=0.5448  <S**2>=0.000
     305 -> 313        0.27135
     310 -> 313        0.26774
     312 -> 315        0.57077
     310 <- 313       -0.11046

 The electronic state is 1-A.
 Alpha  occ. eigenvalues --  -46.95516 -46.94617 -19.31564 -19.30135 -19.25197
 Alpha  occ. eigenvalues --  -19.24783 -19.24533 -19.24395 -19.23461 -19.22960
 Alpha  occ. eigenvalues --  -14.47063 -14.47018 -14.46750 -14.46127 -14.44863
 Alpha  occ. eigenvalues --  -14.44724 -14.44292 -14.43662 -10.43795 -10.42314
 Alpha  occ. eigenvalues --  -10.40754 -10.39568 -10.39411 -10.38743 -10.36314
 Alpha  occ. eigenvalues --  -10.35976 -10.35770 -10.35733 -10.35459 -10.35375
 Alpha  occ. eigenvalues --  -10.35260 -10.35230 -10.35129 -10.35122 -10.35102
 Alpha  occ. eigenvalues --  -10.34689 -10.34514 -10.34421 -10.34024 -10.33933
 Alpha  occ. eigenvalues --  -10.33630 -10.32926 -10.32888 -10.32753 -10.32721
 Alpha  occ. eigenvalues --  -10.32700 -10.32653 -10.32546 -10.32496 -10.32470
 Alpha  occ. eigenvalues --  -10.32459 -10.32405 -10.32391 -10.32389 -10.32225
 Alpha  occ. eigenvalues --  -10.32192 -10.32126 -10.32054 -10.31987 -10.31967
 Alpha  occ. eigenvalues --  -10.31777 -10.31759 -10.31701 -10.31645 -10.31398
 Alpha  occ. eigenvalues --  -10.31383 -10.31332 -10.30990 -10.30842 -10.30826
 Alpha  occ. eigenvalues --  -10.30760 -10.30672 -10.30624 -10.30499 -10.30252
 Alpha  occ. eigenvalues --  -10.30083 -10.30016 -10.29926 -10.29916 -10.29871
 Alpha  occ. eigenvalues --  -10.29782 -10.29593 -10.29551 -10.29453 -10.29204
 Alpha  occ. eigenvalues --  -10.28557  -3.21493  -3.20746  -1.95048  -1.94602
 Alpha  occ. eigenvalues --   -1.94490  -1.94324  -1.93887  -1.93718  -1.19004
 Alpha  occ. eigenvalues --   -1.18121  -1.13676  -1.12263  -1.10898  -1.10532
 Alpha  occ. eigenvalues --   -1.09937  -1.07466  -1.06663  -1.06018  -1.05773
 Alpha  occ. eigenvalues --   -1.05581  -1.05113  -1.04256  -1.04161  -1.03736
 Alpha  occ. eigenvalues --   -0.93348  -0.92813  -0.91091  -0.90805  -0.90707
 Alpha  occ. eigenvalues --   -0.90598  -0.90554  -0.89924  -0.89292  -0.89177
 Alpha  occ. eigenvalues --   -0.88949  -0.88888  -0.88390  -0.88380  -0.86225
 Alpha  occ. eigenvalues --   -0.86032  -0.85760  -0.85457  -0.84396  -0.84262
 Alpha  occ. eigenvalues --   -0.83563  -0.83433  -0.83077  -0.82965  -0.82127
 Alpha  occ. eigenvalues --   -0.82123  -0.80096  -0.79857  -0.79424  -0.79206
 Alpha  occ. eigenvalues --   -0.78874  -0.78681  -0.77890  -0.77798  -0.77233
 Alpha  occ. eigenvalues --   -0.77059  -0.74684  -0.74574  -0.73707  -0.73617
 Alpha  occ. eigenvalues --   -0.71962  -0.71112  -0.70905  -0.70724  -0.69821
 Alpha  occ. eigenvalues --   -0.69491  -0.69272  -0.68249  -0.68038  -0.67418
 Alpha  occ. eigenvalues --   -0.67064  -0.67059  -0.66964  -0.66590  -0.66560
 Alpha  occ. eigenvalues --   -0.66066  -0.64654  -0.63768  -0.61901  -0.61599
 Alpha  occ. eigenvalues --   -0.61594  -0.61285  -0.60932  -0.60909  -0.60591
 Alpha  occ. eigenvalues --   -0.59702  -0.59686  -0.59360  -0.59208  -0.58182
 Alpha  occ. eigenvalues --   -0.57984  -0.57719  -0.57635  -0.57406  -0.57226
 Alpha  occ. eigenvalues --   -0.57034  -0.56951  -0.56575  -0.55888  -0.55705
 Alpha  occ. eigenvalues --   -0.55313  -0.55270  -0.55145  -0.55099  -0.54827
 Alpha  occ. eigenvalues --   -0.54757  -0.54642  -0.54529  -0.54323  -0.54049
 Alpha  occ. eigenvalues --   -0.53903  -0.53519  -0.53454  -0.53278  -0.53160
 Alpha  occ. eigenvalues --   -0.53029  -0.52893  -0.52832  -0.52773  -0.52053
 Alpha  occ. eigenvalues --   -0.51854  -0.51739  -0.51551  -0.51368  -0.51232
 Alpha  occ. eigenvalues --   -0.51209  -0.51156  -0.51013  -0.50903  -0.50557
 Alpha  occ. eigenvalues --   -0.50419  -0.50357  -0.50235  -0.50076  -0.50066
 Alpha  occ. eigenvalues --   -0.49740  -0.49678  -0.49437  -0.49388  -0.49355
 Alpha  occ. eigenvalues --   -0.49108  -0.48810  -0.48667  -0.48573  -0.48501
 Alpha  occ. eigenvalues --   -0.48283  -0.48280  -0.48114  -0.47967  -0.47741
 Alpha  occ. eigenvalues --   -0.47442  -0.47422  -0.47202  -0.47140  -0.46825
 Alpha  occ. eigenvalues --   -0.46724  -0.46341  -0.46329  -0.46062  -0.46060
 Alpha  occ. eigenvalues --   -0.45884  -0.45692  -0.45646  -0.45587  -0.45458
 Alpha  occ. eigenvalues --   -0.45445  -0.45195  -0.45060  -0.44948  -0.44922
 Alpha  occ. eigenvalues --   -0.44896  -0.44502  -0.44501  -0.44362  -0.44088
 Alpha  occ. eigenvalues --   -0.44054  -0.43883  -0.43774  -0.43479  -0.43293
 Alpha  occ. eigenvalues --   -0.43066  -0.42821  -0.42708  -0.42494  -0.42261
 Alpha  occ. eigenvalues --   -0.42100  -0.41600  -0.41460  -0.41263  -0.41077
 Alpha  occ. eigenvalues --   -0.40671  -0.40524  -0.40280  -0.40061  -0.39970
 Alpha  occ. eigenvalues --   -0.39535  -0.39407  -0.38905  -0.38705  -0.38377
 Alpha  occ. eigenvalues --   -0.38027  -0.37643  -0.36839  -0.36767  -0.35892
 Alpha  occ. eigenvalues --   -0.35331  -0.35269  -0.34706  -0.33737  -0.33594
 Alpha  occ. eigenvalues --   -0.33298  -0.32981  -0.32798  -0.32684  -0.32502
 Alpha  occ. eigenvalues --   -0.32395  -0.32143  -0.31932  -0.26124  -0.26016
 Alpha  occ. eigenvalues --   -0.22893  -0.22749
 Alpha virt. eigenvalues --   -0.07056  -0.06907  -0.00118  -0.00114   0.02249
 Alpha virt. eigenvalues --    0.02714   0.04072   0.04490   0.04825   0.06517
 Alpha virt. eigenvalues --    0.07164   0.07423   0.07602   0.07982   0.08530

 Mulliken charges:
               1
     1  Mg   0.987951
     2  C    0.030642
     3  C   -0.071740
     4  C   -0.057290
     5  C   -0.104997
     6  N   -0.311434
     7  C   -0.008685
     8  C   -0.088323
     9  C   -0.083017
    10  C    0.047720
    11  C    0.016142
    12  C    0.051354
    13  C   -0.150308
    14  H    0.031592
    15  N   -0.450303
    16  C    0.180723
    17  C   -0.160889
    18  C   -0.081869
    19  C    0.134199
    20  C    0.055232
    21  C    0.056996
    22  O   -0.215998
    23  C   -0.009441
    24  N   -0.398528
    25  C    0.036521
    26  C   -0.083109
    27  C   -0.076549
    28  C    0.060754
    29  C    0.027338
    30  C   -0.006036
    31  C   -0.051490
    32  N   -0.527299
    33  C    0.158647
    34  C   -0.163624
    35  C   -0.041776
    36  C    0.162072
    37  C    0.081429
    38  C    0.128537
    39  O   -0.198790
    40  C   -0.130094
    41  C    0.252294
    42  O   -0.286996
    43  O   -0.341676
    44  C    0.147864
    45  H   -0.001382
    46  H    0.022950
    47  H   -0.006053
    48  H    0.039123
    49  H    0.035206
    50  H    0.033071
    51  H    0.038309
    52  H    0.025658
    53  H    0.023418
    54  H    0.069123
    55  H    0.048351
    56  H    0.037559
    57  H    0.022354
    58  H    0.055793
    59  H    0.037825
    60  H    0.076527
    61  H    0.035062
    62  H    0.053203
    63  H    0.040836
    64  H    0.042989
    65  H    0.048278
    66  H    0.047192
    67  H    0.024259
    68  H    0.039496
    69  H    0.022298
    70  H    0.040681
    71  H    0.045473
    72  H    0.042423
    73  H    0.065302
    74  H    0.051813
    75  H    0.044433
    76  H    0.067545
    77  H    0.057667
    78  H    0.052460
    79  H    0.073015
    80  Mg   0.973330
    81  C   -0.080518
    82  C   -0.110097
    83  C   -0.086223
    84  C   -0.082981
    85  N   -0.403998
    86  C   -0.008426
    87  C   -0.052895
    88  C   -0.091946
    89  C    0.125921
    90  C    0.013983
    91  C    0.023127
    92  C   -0.127678
    93  H    0.043643
    94  N   -0.430305
    95  C    0.153018
    96  C   -0.190584
    97  C   -0.078532
    98  C    0.194726
    99  C    0.116367
   100  C    0.044375
   101  O   -0.256230
   102  C   -0.009267
   103  N   -0.325088
   104  C    0.022883
   105  C   -0.076410
   106  C   -0.052180
   107  C    0.038481
   108  C    0.010501
   109  C   -0.007619
   110  C   -0.058072
   111  N   -0.440873
   112  C    0.101426
   113  C   -0.206442
   114  C   -0.044059
   115  C    0.153197
   116  C    0.107349
   117  C    0.155595
   118  O   -0.229709
   119  C   -0.059916
   120  C    0.289155
   121  O   -0.247458
   122  O   -0.356432
   123  C    0.133485
   124  H    0.007808
   125  H   -0.019732
   126  H   -0.011109
   127  H    0.025037
   128  H    0.032711
   129  H    0.036840
   130  H    0.034821
   131  H    0.038416
   132  H    0.030666
   133  H    0.030148
   134  H    0.066440
   135  H    0.049602
   136  H    0.065617
   137  H    0.072124
   138  H    0.012158
   139  H    0.080690
   140  H    0.058285
   141  H    0.060689
   142  H    0.046728
   143  H    0.034037
   144  H    0.046864
   145  H    0.033547
   146  H    0.037720
   147  H    0.032989
   148  H    0.028779
   149  H    0.039093
   150  H    0.028601
   151  H    0.041134
   152  H    0.021200
   153  H    0.075377
   154  H    0.050516
   155  H    0.064455
   156  H    0.055243
   157  H    0.052218
   158  H    0.053666
 Sum of Mulliken charges =  -0.00000

 Dipole moment (field-independent basis, Debye):
    X=              1.2698    Y=              0.4705    Z=             -0.8083  Tot=              1.5770
 Quadrupole moment (field-independent basis, Debye-Ang):
   XX=           -237.9531   YY=           -559.5037   ZZ=           -475.8147
   XY=             49.0244   XZ=           -102.4634   YZ=             15.2035

 Normal termination of Gaussian 16 at Sun Sep 19 11:32:15 2021.
