 Gaussian 16, Revision A.03,
 Gaussian 16:  ES64L-G16RevA.03 25-Dec-2016

 --------------------------------
 #p wB97XD/Def2SVP td=(nstates=5)
 --------------------------------

 --------------------------------
 TDDFT excited states in gaussian
 --------------------------------
 Symbolic Z-matrix:
 Charge =  0 Multiplicity = 1

                         Standard orientation:
 ---------------------------------------------------------------------
 Center     Atomic      Atomic             Coordinates (Angstroms)
 Number     Number       Type             X           Y           Z
 ---------------------------------------------------------------------
      1         12           0      -20.291772   -0.706284   -0.018766
      2          6           0      -20.133402    2.649297   -0.992385
      3          6           0      -20.603550    0.457354    3.234960
      4          6           0      -20.009863   -3.799671    0.941835
      5          6           0      -19.732871   -1.613009   -3.396510
      6          7           0      -19.956047    1.362341    1.067022
      7          6           0      -20.076518    2.535557    0.437361
      8          6           0      -20.150875    3.603581    1.476806
      9          6           0      -19.853393    2.884361    2.815387
     10          6           0      -20.180087    1.467581    2.386656
     11          6           0      -18.473549    3.017817    3.462058
     12          6           0      -21.545319    4.306532    1.492496
     13          6           0      -21.607035    5.868148    1.481080
     14          1           0      -20.446170    6.680307    2.135444
     15          7           0      -20.455826   -1.584378    1.864262
     16          6           0      -20.771823   -0.907436    3.034757
     17          6           0      -20.926418   -1.899909    4.048008
     18          6           0      -20.627322   -3.182806    3.436239
     19          6           0      -20.356429   -2.924963    2.029818
     20          6           0      -21.217008   -1.598715    5.534594
     21          6           0      -20.521004   -4.594091    4.082378
     22          8           0      -20.248004   -5.588553    3.488298
     23          6           0      -20.857916   -4.675287    5.558279
     24          7           0      -19.937538   -2.422948   -1.103341
     25          6           0      -19.798364   -3.597986   -0.449661
     26          6           0      -19.514923   -4.808218   -1.381635
     27          6           0      -19.701528   -4.110746   -2.797133
     28          6           0      -19.826930   -2.631417   -2.452604
     29          6           0      -18.034502   -5.435381   -1.078895
     30          6           0      -20.842620   -4.735431   -3.659967
     31          6           0      -22.193894   -4.043330   -3.658441
     32          7           0      -20.022084    0.260537   -1.894922
     33          6           0      -19.899231   -0.235180   -3.164854
     34          6           0      -19.831109    0.928651   -4.116788
     35          6           0      -19.923159    2.067985   -3.285732
     36          6           0      -19.998165    1.635328   -1.920377
     37          6           0      -19.531882    0.897335   -5.590993
     38          6           0      -19.944358    3.528574   -3.268668
     39          8           0      -19.858625    4.300408   -4.228093
     40          6           0      -20.241206    3.919020   -1.823853
     41          6           0      -19.205381    4.943411   -1.458668
     42          8           0      -18.049351    4.698614   -1.165957
     43          8           0      -19.756850    6.119014   -1.711389
     44          6           0      -18.882855    7.273277   -1.850471
     45          1           0      -20.557303    0.811274    4.266522
     46          1           0      -20.093082   -4.852754    1.217372
     47          1           0      -19.575657   -1.894624   -4.440088
     48          1           0      -19.400907    4.360819    1.250457
     49          1           0      -20.535834    3.318578    3.546140
     50          1           0      -17.761334    3.668356    2.954154
     51          1           0      -18.009370    2.036610    3.565265
     52          1           0      -18.648265    3.416610    4.461082
     53          1           0      -22.208438    3.940152    2.275889
     54          1           0      -21.942324    3.917275    0.555067
     55          1           0      -22.528112    6.086835    2.022825
     56          1           0      -21.705467    6.203360    0.448901
     57          1           0      -20.505063   -2.064898    6.215772
     58          1           0      -22.158269   -2.035257    5.868960
     59          1           0      -21.274805   -0.536896    5.777597
     60          1           0      -21.815427   -4.213254    5.799583
     61          1           0      -20.028020   -4.241065    6.115934
     62          1           0      -20.815404   -5.709484    5.899886
     63          1           0      -20.236982   -5.614184   -1.251830
     64          1           0      -18.839479   -4.237021   -3.451982
     65          1           0      -17.438166   -5.145285   -1.944059
     66          1           0      -18.008914   -6.524782   -1.112717
     67          1           0      -17.532821   -4.995935   -0.216005
     68          1           0      -21.041535   -5.689895   -3.172395
     69          1           0      -20.530609   -4.933733   -4.685155
     70          1           0      -22.360231   -3.795321   -2.609436
     71          1           0      -22.838062   -4.838937   -4.032086
     72          1           0      -22.334318   -3.090030   -4.167305
     73          1           0      -19.263278   -0.054000   -6.050347
     74          1           0      -18.697431    1.566769   -5.800403
     75          1           0      -20.399459    1.356329   -6.064007
     76          1           0      -21.166060    4.478582   -1.682348
     77          1           0      -17.801080    7.143691   -1.843469
     78          1           0      -19.099676    7.842807   -0.946220
     79          1           0      -19.364622    7.983587   -2.522493
     80         12           0       19.722006   -0.674816   -0.278445
     81          6           0       21.639040    2.245735   -0.102329
     82          6           0       17.454528    0.667441    1.677734
     83          6           0       18.294126   -3.773870    0.122583
     84          6           0       22.388233   -2.279049   -1.946733
     85          7           0       19.565086    1.252990    0.558378
     86          6           0       20.395954    2.349344    0.484999
     87          6           0       19.747081    3.591518    1.081808
     88          6           0       18.521499    2.974958    1.829428
     89          6           0       18.441678    1.602932    1.256234
     90          6           0       18.452008    3.045810    3.339616
     91          6           0       19.424275    4.722670    0.053931
     92          6           0       18.796348    5.986918    0.650718
     93          1           0       19.473702    7.301643    0.292689
     94          7           0       18.048650   -1.489865    0.864792
     95          6           0       17.153565   -0.703522    1.498201
     96          6           0       16.055410   -1.509821    1.954159
     97          6           0       16.344838   -2.838247    1.597733
     98          6           0       17.620630   -2.737806    0.838045
     99          6           0       14.875358   -0.966432    2.731831
    100          6           0       15.539624   -4.079865    1.800157
    101          8           0       15.923270   -5.260221    1.582365
    102          6           0       14.094432   -3.985323    2.273924
    103          7           0       20.275647   -2.693401   -0.801273
    104          6           0       19.549061   -3.783257   -0.460785
    105          6           0       20.145981   -5.090943   -1.213756
    106          6           0       21.163724   -4.448933   -2.220737
    107          6           0       21.261904   -3.047999   -1.707984
    108          6           0       20.780613   -6.058397   -0.139695
    109          6           0       20.543761   -4.362379   -3.663189
    110          6           0       19.176532   -3.723002   -3.849300
    111          7           0       21.671473   -0.136381   -0.988524
    112          6           0       22.588739   -0.916967   -1.636895
    113          6           0       23.692221   -0.115081   -1.898778
    114          6           0       23.450036    1.163479   -1.318999
    115          6           0       22.196139    1.100678   -0.770355
    116          6           0       24.982967   -0.479606   -2.543313
    117          6           0       23.962814    2.524090   -1.040103
    118          8           0       25.032592    3.083250   -1.252859
    119          6           0       22.739003    3.312897   -0.315817
    120          6           0       23.231044    4.063423    0.870094
    121          8           0       24.149269    3.666749    1.647559
    122          8           0       22.655677    5.257839    0.836676
    123          6           0       23.342979    6.267464    1.618946
    124          1           0       16.615690    1.096766    2.229755
    125          1           0       17.834152   -4.761066    0.210080
    126          1           0       23.134029   -2.769205   -2.574476
    127          1           0       20.528763    4.020593    1.708968
    128          1           0       17.573246    3.425827    1.534782
    129          1           0       19.076767    3.794574    3.826535
    130          1           0       18.666211    2.059557    3.752221
    131          1           0       17.395657    3.090336    3.605385
    132          1           0       18.787674    4.326875   -0.737805
    133          1           0       20.343570    5.011454   -0.454533
    134          1           0       19.035219    6.086419    1.709409
    135          1           0       17.720569    6.016151    0.475174
    136          1           0       14.969369    0.075120    3.038901
    137          1           0       14.722697   -1.393721    3.722600
    138          1           0       13.927364   -1.054676    2.200259
    139          1           0       14.104879   -3.643684    3.308576
    140          1           0       13.650765   -4.968537    2.428965
    141          1           0       13.455211   -3.417899    1.596550
    142          1           0       19.333839   -5.639740   -1.690593
    143          1           0       22.091180   -5.001483   -2.070498
    144          1           0       20.499289   -5.815372    0.885100
    145          1           0       21.870694   -6.061362   -0.130676
    146          1           0       20.451877   -7.092156   -0.236203
    147          1           0       20.522554   -5.426148   -3.900152
    148          1           0       21.179714   -3.878533   -4.403896
    149          1           0       18.694834   -3.579470   -2.881867
    150          1           0       18.510401   -4.201830   -4.566179
    151          1           0       19.425666   -2.786619   -4.348580
    152          1           0       24.880263   -0.936517   -3.527902
    153          1           0       25.420983   -1.231411   -1.887419
    154          1           0       25.674194    0.360579   -2.601129
    155          1           0       22.423835    4.038056   -1.065649
    156          1           0       23.394445    7.202218    1.059255
    157          1           0       24.376594    6.050191    1.887205
    158          1           0       22.733963    6.418071    2.510900
 ---------------------------------------------------------------------

 SCF Done:  E(RwB97XD) =  -4070.61915969     A.U. after   19 cycles

 Excitation energies and oscillator strengths:

 Excited State   1:      Singlet-A      1.6681 eV  743.28 nm  f=0.3791  <S**2>=0.000
     309 -> 316        0.17118
     311 -> 313        0.68647
     309 <- 316        0.11157
 This state for optimization and/or second-order correction.
 Total Energy, E(TD-HF/TD-DFT) =  -4070.55785892
 Copying the excited state density for this state as the 1-particle RhoCI density.

 Excited State   2:      Singlet-A      1.6771 eV  739.28 nm  f=0.4073  <S**2>=0.000
     310 -> 315       -0.19177
     312 -> 314        0.68139
     310 <- 315       -0.11859

 Excited State   3:      Singlet-A      2.0912 eV  592.90 nm  f=0.1642  <S**2>=0.000
     309 -> 313        0.66094
     311 -> 316       -0.23076

 Excited State   4:      Singlet-A      2.1599 eV  574.04 nm  f=0.0979  <S**2>=0.000
     310 -> 314        0.64021
     312 -> 315        0.28501

 Excited State   5:      Singlet-A      3.0725 eV  403.52 nm  f=0.0090  <S**2>=0.000
     308 -> 313        0.67869

 The electronic state is 1-A.
 Alpha  occ. eigenvalues --  -46.95712 -46.95170 -19.31847 -19.31553 -19.24683
 Alpha  occ. eigenvalues --  -19.24595 -19.24216 -19.24014 -19.23603 -19.23453
 Alpha  occ. eigenvalues --  -14.47510 -14.46415 -14.46404 -14.46228 -14.44358
 Alpha  occ. eigenvalues --  -14.43992 -14.43339 -14.42583 -10.43084 -10.43063
 Alpha  occ. eigenvalues --  -10.39796 -10.39603 -10.38821 -10.38430 -10.36198
 Alpha  occ. eigenvalues --  -10.35868 -10.35732 -10.35364 -10.35179 -10.35163
 Alpha  occ. eigenvalues --  -10.35001 -10.34872 -10.34827 -10.34795 -10.34739
 Alpha  occ. eigenvalues --  -10.34050 -10.33997 -10.33741 -10.33670 -10.33575
 Alpha  occ. eigenvalues --  -10.33525 -10.33391 -10.33213 -10.32956 -10.32587
 Alpha  occ. eigenvalues --  -10.32478 -10.32445 -10.32427 -10.32378 -10.32351
 Alpha  occ. eigenvalues --  -10.32348 -10.32345 -10.32174 -10.32133 -10.31885
 Alpha  occ. eigenvalues --  -10.31813 -10.31803 -10.31793 -10.31790 -10.31662
 Alpha  occ. eigenvalues --  -10.31232 -10.31161 -10.31085 -10.31021 -10.30758
 Alpha  occ. eigenvalues --  -10.30669 -10.30638 -10.30494 -10.30466 -10.30440
 Alpha  occ. eigenvalues --  -10.30410 -10.30378 -10.30376 -10.30308 -10.30212
 Alpha  occ. eigenvalues --  -10.30035 -10.29990 -10.29981 -10.29845 -10.29526
 Alpha  occ. eigenvalues --  -10.29258 -10.29238 -10.29077 -10.28931 -10.28696
 Alpha  occ. eigenvalues --  -10.28254  -3.21558  -3.21077  -1.95153  -1.94672
 Alpha  occ. eigenvalues --   -1.94648  -1.94537  -1.94234  -1.94005  -1.20611
 Alpha  occ. eigenvalues --   -1.20278  -1.13557  -1.11965  -1.10983  -1.10941
 Alpha  occ. eigenvalues --   -1.10637  -1.08090  -1.07499  -1.07067  -1.06378
 Alpha  occ. eigenvalues --   -1.05822  -1.05316  -1.04718  -1.04457  -1.03899
 Alpha  occ. eigenvalues --   -0.95449  -0.93781  -0.91482  -0.91189  -0.90632
 Alpha  occ. eigenvalues --   -0.90530  -0.90341  -0.89976  -0.89965  -0.89071
 Alpha  occ. eigenvalues --   -0.89052  -0.88275  -0.87582  -0.87474  -0.86708
 Alpha  occ. eigenvalues --   -0.86425  -0.85663  -0.85660  -0.84762  -0.84547
 Alpha  occ. eigenvalues --   -0.83806  -0.83391  -0.83292  -0.82744  -0.82627
 Alpha  occ. eigenvalues --   -0.82002  -0.80871  -0.79918  -0.79491  -0.79353
 Alpha  occ. eigenvalues --   -0.79251  -0.78951  -0.78270  -0.78051  -0.77177
 Alpha  occ. eigenvalues --   -0.77077  -0.74735  -0.74710  -0.73736  -0.73707
 Alpha  occ. eigenvalues --   -0.71875  -0.71503  -0.71081  -0.70931  -0.70350
 Alpha  occ. eigenvalues --   -0.70043  -0.69680  -0.68106  -0.67454  -0.67290
 Alpha  occ. eigenvalues --   -0.67193  -0.66947  -0.66670  -0.66669  -0.66502
 Alpha  occ. eigenvalues --   -0.66380  -0.64857  -0.64694  -0.63068  -0.61878
 Alpha  occ. eigenvalues --   -0.61735  -0.61695  -0.61221  -0.61216  -0.60529
 Alpha  occ. eigenvalues --   -0.60524  -0.60149  -0.59507  -0.59346  -0.59235
 Alpha  occ. eigenvalues --   -0.58880  -0.58215  -0.58045  -0.57951  -0.57716
 Alpha  occ. eigenvalues --   -0.57372  -0.57280  -0.56961  -0.56785  -0.56688
 Alpha  occ. eigenvalues --   -0.56332  -0.55634  -0.55254  -0.55237  -0.55093
 Alpha  occ. eigenvalues --   -0.54893  -0.54873  -0.54492  -0.54460  -0.53937
 Alpha  occ. eigenvalues --   -0.53648  -0.53638  -0.53508  -0.53385  -0.53185
 Alpha  occ. eigenvalues --   -0.53039  -0.52906  -0.52511  -0.52412  -0.52175
 Alpha  occ. eigenvalues --   -0.52029  -0.51666  -0.51521  -0.51365  -0.51147
 Alpha  occ. eigenvalues --   -0.51066  -0.50812  -0.50801  -0.50671  -0.50487
 Alpha  occ. eigenvalues --   -0.50442  -0.50354  -0.50254  -0.50059  -0.50011
 Alpha  occ. eigenvalues --   -0.49929  -0.49299  -0.49209  -0.49127  -0.48859
 Alpha  occ. eigenvalues --   -0.48686  -0.48439  -0.48363  -0.48279  -0.47970
 Alpha  occ. eigenvalues --   -0.47875  -0.47872  -0.47834  -0.47759  -0.47641
 Alpha  occ. eigenvalues --   -0.47578  -0.47367  -0.47355  -0.47076  -0.46999
 Alpha  occ. eigenvalues --   -0.46787  -0.46613  -0.46470  -0.46345  -0.46200
 Alpha  occ. eigenvalues --   -0.45792  -0.45749  -0.45632  -0.45370  -0.45347
 Alpha  occ. eigenvalues --   -0.45208  -0.45143  -0.45071  -0.44945  -0.44820
 Alpha  occ. eigenvalues --   -0.44679  -0.44561  -0.44309  -0.44146  -0.43989
 Alpha  occ. eigenvalues --   -0.43804  -0.43752  -0.43589  -0.43369  -0.43150
 Alpha  occ. eigenvalues --   -0.43139  -0.42994  -0.42763  -0.42639  -0.42378
 Alpha  occ. eigenvalues --   -0.42209  -0.41581  -0.41512  -0.41237  -0.41129
 Alpha  occ. eigenvalues --   -0.40605  -0.40327  -0.39843  -0.39365  -0.39232
 Alpha  occ. eigenvalues --   -0.39065  -0.38861  -0.38830  -0.38563  -0.38470
 Alpha  occ. eigenvalues --   -0.38331  -0.38189  -0.36459  -0.36131  -0.36119
 Alpha  occ. eigenvalues --   -0.35942  -0.35384  -0.35038  -0.34156  -0.33491
 Alpha  occ. eigenvalues --   -0.33174  -0.33045  -0.32957  -0.32318  -0.32194
 Alpha  occ. eigenvalues --   -0.32070  -0.31116  -0.30624  -0.25983  -0.25762
 Alpha  occ. eigenvalues --   -0.23587  -0.22922
 Alpha virt. eigenvalues --   -0.07715  -0.06874   0.00353   0.00650   0.01990
 Alpha virt. eigenvalues --    0.02173   0.04539   0.04946   0.04950   0.05848
 Alpha virt. eigenvalues --    0.06625   0.07151   0.07650   0.07823   0.08151

 Mulliken charges:
               1
     1  Mg   0.943731
     2  C   -0.010082
     3  C   -0.053676
     4  C   -0.049943
     5  C   -0.089637
     6  N   -0.281546
     7  C    0.032800
     8  C   -0.102484
     9  C   -0.079077
    10  C   -0.023087
    11  C    0.044050
    12  C   -0.008049
    13  C   -0.108847
    14  H    0.034673
    15  N   -0.486623
    16  C    0.194459
    17  C   -0.162155
    18  C   -0.110864
    19  C    0.127625
    20  C    0.066944
    21  C    0.057714
    22  O   -0.197949
    23  C   -0.025291
    24  N   -0.388446
    25  C    0.068212
    26  C   -0.106329
    27  C   -0.052045
    28  C    0.081648
    29  C    0.014988
    30  C   -0.034388
    31  C   -0.035126
    32  N   -0.431060
    33  C    0.126513
    34  C   -0.181570
    35  C   -0.031532
    36  C    0.145050
    37  C    0.071984
    38  C    0.142803
    39  O   -0.213884
    40  C   -0.092754
    41  C    0.223900
    42  O   -0.247929
    43  O   -0.327079
    44  C    0.146656
    45  H   -0.006235
    46  H    0.024717
    47  H   -0.006546
    48  H    0.040434
    49  H    0.021004
    50  H    0.046924
    51  H    0.041463
    52  H    0.029951
    53  H    0.038489
    54  H    0.025617
    55  H    0.053035
    56  H    0.060557
    57  H    0.037118
    58  H    0.040648
    59  H    0.034202
    60  H    0.057496
    61  H    0.052193
    62  H    0.039968
    63  H    0.050049
    64  H    0.031419
    65  H    0.019087
    66  H    0.045914
    67  H    0.058949
    68  H    0.022792
    69  H    0.029645
    70  H    0.030056
    71  H    0.044340
    72  H    0.041686
    73  H    0.038401
    74  H    0.061856
    75  H    0.059441
    76  H    0.073428
    77  H    0.085432
    78  H    0.026939
    79  H    0.057228
    80  Mg   0.940700
    81  C    0.025568
    82  C   -0.076030
    83  C   -0.054337
    84  C   -0.071346
    85  N   -0.396502
    86  C   -0.020253
    87  C   -0.029494
    88  C   -0.089356
    89  C    0.104742
    90  C    0.044339
    91  C    0.022425
    92  C   -0.128857
    93  H    0.030678
    94  N   -0.379633
    95  C    0.094768
    96  C   -0.112229
    97  C   -0.048684
    98  C    0.101501
    99  C    0.053326
   100  C    0.041242
   101  O   -0.259343
   102  C   -0.009057
   103  N   -0.351586
   104  C    0.069242
   105  C   -0.145280
   106  C   -0.029896
   107  C    0.039079
   108  C    0.014265
   109  C   -0.014311
   110  C   -0.051412
   111  N   -0.418310
   112  C    0.151709
   113  C   -0.204311
   114  C   -0.041178
   115  C    0.088515
   116  C    0.077103
   117  C    0.161927
   118  O   -0.201902
   119  C   -0.129133
   120  C    0.263353
   121  O   -0.280604
   122  O   -0.330256
   123  C    0.127191
   124  H   -0.027652
   125  H    0.024846
   126  H   -0.001118
   127  H    0.031577
   128  H    0.031557
   129  H    0.056309
   130  H    0.033582
   131  H    0.025695
   132  H    0.024439
   133  H    0.044920
   134  H    0.046501
   135  H    0.062196
   136  H    0.028530
   137  H    0.048682
   138  H    0.055081
   139  H    0.043771
   140  H    0.044676
   141  H    0.064234
   142  H    0.043786
   143  H    0.030743
   144  H    0.043541
   145  H    0.032442
   146  H    0.040117
   147  H    0.029590
   148  H    0.030950
   149  H    0.055271
   150  H    0.043840
   151  H    0.033831
   152  H    0.035242
   153  H    0.042848
   154  H    0.057950
   155  H    0.082026
   156  H    0.053485
   157  H    0.078556
   158  H    0.049583
 Sum of Mulliken charges =  -0.00000

 Dipole moment (field-independent basis, Debye):
    X=             -8.6366    Y=              2.6897    Z=              1.1981  Tot=              9.1247
 Quadrupole moment (field-independent basis, Debye-Ang):
   XX=           -711.3403   YY=           -493.0333   ZZ=           -483.2679
   XY=            -25.9992   XZ=            -38.1723   YZ=             48.5505

 Normal termination of Gaussian 16 at Mon Sep 20 19:26:36 2021.
