 Gaussian 16, Revision A.03,
 Gaussian 16:  ES64L-G16RevA.03 25-Dec-2016

 --------------------------------
 #p wB97XD/Def2SVP td=(nstates=5)
 --------------------------------

 --------------------------------
 TDDFT excited states in gaussian
 --------------------------------
 Symbolic Z-matrix:
 Charge =  0 Multiplicity = 1

                         Standard orientation:
 ---------------------------------------------------------------------
 Center     Atomic      Atomic             Coordinates (Angstroms)
 Number     Number       Type             X           Y           Z
 ---------------------------------------------------------------------
      1         12           0       19.081966   -0.344436   -0.222806
      2          6           0       15.637383   -1.073623   -0.671792
      3          6           0       18.815794    1.848677   -2.922163
      4          6           0       21.787868    1.121985    0.945033
      5          6           0       18.908978   -2.474795    2.749671
      6          7           0       17.280113    0.495167   -1.501167
      7          6           0       16.100523   -0.157315   -1.649317
      8          6           0       15.395432    0.355472   -2.892198
      9          6           0       16.536479    0.759773   -3.825886
     10          6           0       17.617430    1.115731   -2.682278
     11          6           0       17.116822   -0.295219   -4.769568
     12          6           0       14.355528    1.488906   -2.486287
     13          6           0       13.051057    1.323468   -3.161501
     14          1           0       12.359455    2.591752   -3.698262
     15          7           0       20.187415    1.334368   -0.856828
     16          6           0       19.950667    2.054728   -2.053918
     17          6           0       21.006638    3.030206   -2.156579
     18          6           0       21.957218    2.825234   -1.121585
     19          6           0       21.351001    1.751785   -0.256092
     20          6           0       21.021181    4.043636   -3.296615
     21          6           0       23.181250    3.619729   -0.889035
     22          8           0       23.439174    4.542883   -1.651524
     23          6           0       24.134689    3.491310    0.253335
     24          7           0       20.149501   -0.615319    1.724208
     25          6           0       21.341244    0.012282    1.775501
     26          6           0       22.163934   -0.480278    2.979829
     27          6           0       21.317824   -1.770899    3.507628
     28          6           0       20.062843   -1.671764    2.602246
     29          6           0       23.711524   -0.714950    2.674108
     30          6           0       21.017843   -1.798137    5.039084
     31          6           0       19.607758   -1.308084    5.514861
     32          7           0       17.670865   -1.501686    0.811320
     33          6           0       17.782177   -2.348176    1.951024
     34          6           0       16.504108   -3.177103    2.065894
     35          6           0       15.685366   -2.638103    1.086418
     36          6           0       16.442093   -1.653506    0.355617
     37          6           0       16.074268   -4.302279    3.026852
     38          6           0       14.401921   -2.746170    0.468609
     39          8           0       13.481805   -3.539597    0.673436
     40          6           0       14.346465   -1.647973   -0.532456
     41          6           0       13.361810   -0.643617    0.108885
     42          8           0       13.598594    0.159869    1.008504
     43          8           0       12.088486   -0.867909   -0.484426
     44          6           0       10.984833   -0.155346    0.018111
     45          1           0       18.828121    2.479591   -3.813518
     46          1           0       22.768408    1.556147    1.150142
     47          1           0       18.810639   -3.242856    3.518753
     48          1           0       14.865364   -0.423675   -3.439770
     49          1           0       16.415910    1.593130   -4.517091
     50          1           0       16.458476   -1.147612   -4.934726
     51          1           0       18.155259   -0.522984   -4.527756
     52          1           0       17.138206    0.237235   -5.721137
     53          1           0       14.754418    2.453647   -2.799944
     54          1           0       14.265415    1.649851   -1.411955
     55          1           0       12.464975    0.833054   -2.385085
     56          1           0       13.188597    0.651560   -4.008553
     57          1           0       21.761414    3.811194   -4.061956
     58          1           0       21.140438    5.040568   -2.874870
     59          1           0       20.058273    4.051264   -3.807555
     60          1           0       24.658447    2.540337    0.153169
     61          1           0       23.694855    3.550605    1.249644
     62          1           0       24.983360    4.165554    0.144806
     63          1           0       22.028999    0.319381    3.707831
     64          1           0       21.830373   -2.675752    3.182824
     65          1           0       24.039028   -0.115244    1.824988
     66          1           0       24.087583   -1.735551    2.593717
     67          1           0       24.176385   -0.472837    3.631103
     68          1           0       21.764952   -1.256167    5.618341
     69          1           0       21.082809   -2.862690    5.262739
     70          1           0       19.949900   -0.913258    6.471783
     71          1           0       18.834852   -2.057132    5.688414
     72          1           0       19.296250   -0.505466    4.846064
     73          1           0       15.822079   -5.209344    2.478658
     74          1           0       15.118501   -3.864174    3.312801
     75          1           0       16.796478   -4.330835    3.842464
     76          1           0       13.914155   -2.023601   -1.459948
     77          1           0       10.036403   -0.381705   -0.470655
     78          1           0       11.189388    0.904564   -0.127686
     79          1           0       10.932011   -0.428814    1.072308
     80         12           0      -18.719561    0.485245    0.280816
     81          6           0      -15.677633   -1.120808   -0.804120
     82          6           0      -20.347280   -2.545557   -0.398960
     83          6           0      -21.477539    1.889735    1.376653
     84          6           0      -16.965878    3.493113    0.594582
     85          7           0      -18.016981   -1.608861   -0.554649
     86          6           0      -16.747512   -2.069335   -0.708475
     87          6           0      -16.703875   -3.582058   -0.850643
     88          6           0      -18.263025   -4.000639   -1.071936
     89          6           0      -18.924571   -2.647382   -0.681565
     90          6           0      -18.598168   -4.556557   -2.478644
     91          6           0      -16.037544   -4.286189    0.379310
     92          6           0      -14.826873   -5.183066    0.012484
     93          1           0      -15.061940   -6.769960    0.333436
     94          7           0      -20.585404   -0.210884    0.463235
     95          6           0      -21.143545   -1.487101    0.114083
     96          6           0      -22.590511   -1.599041    0.414548
     97          6           0      -22.866245   -0.311671    0.981262
     98          6           0      -21.636510    0.498018    0.958005
     99          6           0      -23.455650   -2.826960    0.123475
    100          6           0      -24.165771    0.234771    1.436087
    101          8           0      -24.317327    1.240119    2.121700
    102          6           0      -25.434951   -0.591184    1.148529
    103          7           0      -19.089813    2.335236    1.042714
    104          6           0      -20.337097    2.706523    1.411441
    105          6           0      -20.462649    4.185324    1.651676
    106          6           0      -19.025818    4.729134    1.457260
    107          6           0      -18.266156    3.444489    1.056413
    108          6           0      -21.539823    4.870823    0.837477
    109          6           0      -18.444587    5.342864    2.863166
    110          6           0      -17.889673    6.867648    2.789862
    111          7           0      -16.787438    1.169529   -0.284724
    112          6           0      -16.215226    2.432650    0.000487
    113          6           0      -14.797687    2.374194   -0.374088
    114          6           0      -14.562216    0.984935   -0.547853
    115          6           0      -15.795616    0.334111   -0.603777
    116          6           0      -13.766930    3.493545   -0.485567
    117          6           0      -13.499981    0.044359   -1.003643
    118          8           0      -12.286835    0.150519   -1.335988
    119          6           0      -14.201898   -1.367691   -1.051791
    120          6           0      -13.942284   -1.981353   -2.395986
    121          8           0      -14.027265   -1.391480   -3.435802
    122          8           0      -13.485799   -3.259973   -2.234131
    123          6           0      -12.889027   -3.811964   -3.476598
    124          1           0      -20.825947   -3.461098   -0.752098
    125          1           0      -22.360172    2.414925    1.748378
    126          1           0      -16.389168    4.411491    0.720941
    127          1           0      -16.169879   -3.780017   -1.780065
    128          1           0      -18.611471   -4.720106   -0.330468
    129          1           0      -19.271159   -3.884341   -3.011721
    130          1           0      -19.048845   -5.546726   -2.399588
    131          1           0      -17.744457   -4.767954   -3.122575
    132          1           0      -16.742707   -4.928520    0.907448
    133          1           0      -15.658099   -3.561569    1.100253
    134          1           0      -13.958099   -5.010380    0.648243
    135          1           0      -14.438805   -5.049762   -0.996847
    136          1           0      -22.936379   -3.770296   -0.048494
    137          1           0      -24.180937   -2.709883   -0.681666
    138          1           0      -24.049082   -2.968481    1.027315
    139          1           0      -25.578084   -0.705235    0.074038
    140          1           0      -26.321545   -0.167837    1.621784
    141          1           0      -25.294181   -1.579521    1.586076
    142          1           0      -20.820714    4.329133    2.671989
    143          1           0      -18.982054    5.447953    0.639569
    144          1           0      -22.409277    5.164520    1.426244
    145          1           0      -21.993868    4.256083    0.060363
    146          1           0      -21.089609    5.734962    0.348498
    147          1           0      -17.632548    4.761084    3.298095
    148          1           0      -19.197579    5.366539    3.650470
    149          1           0      -18.361213    7.305153    1.909675
    150          1           0      -16.802029    6.900921    2.714228
    151          1           0      -18.277165    7.471155    3.610259
    152          1           0      -12.761235    3.153046   -0.239883
    153          1           0      -13.983351    4.212225    0.305709
    154          1           0      -13.973188    3.929118   -1.463340
    155          1           0      -13.660492   -1.987080   -0.337163
    156          1           0      -13.631942   -3.707021   -4.267040
    157          1           0      -12.807494   -4.877870   -3.264331
    158          1           0      -11.972008   -3.371957   -3.868384
 ---------------------------------------------------------------------

 SCF Done:  E(RwB97XD) =  -4070.55490594     A.U. after   20 cycles

 Excitation energies and oscillator strengths:

 Excited State   1:      Singlet-A      1.6154 eV  767.51 nm  f=0.4119  <S**2>=0.000
     310 -> 316        0.19280
     311 -> 313        0.68068
     310 <- 316        0.12098
 This state for optimization and/or second-order correction.
 Total Energy, E(TD-HF/TD-DFT) =  -4070.49554079
 Copying the excited state density for this state as the 1-particle RhoCI density.

 Excited State   2:      Singlet-A      1.6241 eV  763.39 nm  f=0.3138  <S**2>=0.000
     309 -> 315       -0.20394
     312 -> 314        0.67665
     309 <- 315       -0.12264

 Excited State   3:      Singlet-A      2.1191 eV  585.08 nm  f=0.1308  <S**2>=0.000
     310 -> 313        0.64517
     311 -> 316       -0.27988

 Excited State   4:      Singlet-A      2.1336 eV  581.10 nm  f=0.0538  <S**2>=0.000
     309 -> 314        0.61275
     312 -> 315        0.34216

 Excited State   5:      Singlet-A      3.3515 eV  369.94 nm  f=0.0005  <S**2>=0.000
     304 -> 320       -0.10248
     305 -> 313        0.13761
     308 -> 313        0.64959
     308 -> 318        0.13007

 The electronic state is 1-A.
 Alpha  occ. eigenvalues --  -46.97625 -46.94849 -19.30851 -19.29903 -19.26299
 Alpha  occ. eigenvalues --  -19.24648 -19.24002 -19.23955 -19.23728 -19.22539
 Alpha  occ. eigenvalues --  -14.47232 -14.46956 -14.46487 -14.46477 -14.45355
 Alpha  occ. eigenvalues --  -14.44800 -14.44313 -14.43813 -10.44457 -10.42638
 Alpha  occ. eigenvalues --  -10.39165 -10.39108 -10.38546 -10.38028 -10.35896
 Alpha  occ. eigenvalues --  -10.35816 -10.35672 -10.35658 -10.35611 -10.35426
 Alpha  occ. eigenvalues --  -10.35422 -10.35321 -10.35282 -10.35014 -10.34900
 Alpha  occ. eigenvalues --  -10.34890 -10.34831 -10.34760 -10.34717 -10.34081
 Alpha  occ. eigenvalues --  -10.33961 -10.33537 -10.33455 -10.33277 -10.33108
 Alpha  occ. eigenvalues --  -10.32942 -10.32899 -10.32804 -10.32696 -10.32542
 Alpha  occ. eigenvalues --  -10.32517 -10.32491 -10.32417 -10.32402 -10.32357
 Alpha  occ. eigenvalues --  -10.32227 -10.32216 -10.32118 -10.32014 -10.31902
 Alpha  occ. eigenvalues --  -10.31850 -10.31745 -10.31611 -10.31578 -10.31421
 Alpha  occ. eigenvalues --  -10.31265 -10.31174 -10.31146 -10.31141 -10.31036
 Alpha  occ. eigenvalues --  -10.31010 -10.30702 -10.30640 -10.30447 -10.30185
 Alpha  occ. eigenvalues --  -10.30174 -10.30124 -10.29939 -10.29920 -10.29712
 Alpha  occ. eigenvalues --  -10.29595 -10.29481 -10.29335 -10.29193 -10.29147
 Alpha  occ. eigenvalues --  -10.29006  -3.23330  -3.20925  -1.96845  -1.96491
 Alpha  occ. eigenvalues --   -1.96242  -1.94514  -1.94050  -1.93915  -1.19103
 Alpha  occ. eigenvalues --   -1.17941  -1.12200  -1.11810  -1.11514  -1.10857
 Alpha  occ. eigenvalues --   -1.10811  -1.09272  -1.06173  -1.05966  -1.05407
 Alpha  occ. eigenvalues --   -1.05258  -1.04831  -1.04615  -1.04051  -1.03261
 Alpha  occ. eigenvalues --   -0.96367  -0.93525  -0.90990  -0.90596  -0.90589
 Alpha  occ. eigenvalues --   -0.90347  -0.89986  -0.89649  -0.89343  -0.89170
 Alpha  occ. eigenvalues --   -0.88930  -0.88752  -0.87532  -0.87469  -0.86655
 Alpha  occ. eigenvalues --   -0.85928  -0.85535  -0.85043  -0.84574  -0.83683
 Alpha  occ. eigenvalues --   -0.83519  -0.83323  -0.82769  -0.82601  -0.82199
 Alpha  occ. eigenvalues --   -0.81696  -0.81070  -0.79950  -0.79156  -0.78999
 Alpha  occ. eigenvalues --   -0.78764  -0.78688  -0.77947  -0.77922  -0.77153
 Alpha  occ. eigenvalues --   -0.77117  -0.74708  -0.74533  -0.73791  -0.73386
 Alpha  occ. eigenvalues --   -0.71804  -0.71143  -0.70681  -0.70642  -0.69514
 Alpha  occ. eigenvalues --   -0.69210  -0.69088  -0.68779  -0.67812  -0.67588
 Alpha  occ. eigenvalues --   -0.67266  -0.66881  -0.66658  -0.66512  -0.66394
 Alpha  occ. eigenvalues --   -0.66001  -0.64326  -0.64175  -0.62825  -0.61884
 Alpha  occ. eigenvalues --   -0.61727  -0.61232  -0.61204  -0.60818  -0.60720
 Alpha  occ. eigenvalues --   -0.60313  -0.60233  -0.59907  -0.59114  -0.58976
 Alpha  occ. eigenvalues --   -0.58135  -0.58054  -0.57899  -0.57580  -0.57241
 Alpha  occ. eigenvalues --   -0.56929  -0.56812  -0.56465  -0.56446  -0.55704
 Alpha  occ. eigenvalues --   -0.55596  -0.55331  -0.55263  -0.54934  -0.54613
 Alpha  occ. eigenvalues --   -0.54528  -0.54503  -0.54124  -0.54051  -0.53857
 Alpha  occ. eigenvalues --   -0.53597  -0.53570  -0.53318  -0.53293  -0.53270
 Alpha  occ. eigenvalues --   -0.53205  -0.52757  -0.52442  -0.52395  -0.52053
 Alpha  occ. eigenvalues --   -0.51959  -0.51876  -0.51861  -0.51691  -0.51392
 Alpha  occ. eigenvalues --   -0.51357  -0.51145  -0.51130  -0.50868  -0.50714
 Alpha  occ. eigenvalues --   -0.50388  -0.50192  -0.50145  -0.50032  -0.49927
 Alpha  occ. eigenvalues --   -0.49663  -0.49521  -0.49399  -0.49361  -0.49078
 Alpha  occ. eigenvalues --   -0.48961  -0.48756  -0.48736  -0.48467  -0.48113
 Alpha  occ. eigenvalues --   -0.47974  -0.47864  -0.47856  -0.47785  -0.47760
 Alpha  occ. eigenvalues --   -0.47470  -0.47323  -0.47191  -0.47018  -0.46887
 Alpha  occ. eigenvalues --   -0.46725  -0.46660  -0.46449  -0.46330  -0.46322
 Alpha  occ. eigenvalues --   -0.46014  -0.45984  -0.45769  -0.45756  -0.45704
 Alpha  occ. eigenvalues --   -0.45406  -0.45255  -0.45175  -0.44950  -0.44751
 Alpha  occ. eigenvalues --   -0.44524  -0.44306  -0.44170  -0.43995  -0.43933
 Alpha  occ. eigenvalues --   -0.43489  -0.43450  -0.43272  -0.43241  -0.42911
 Alpha  occ. eigenvalues --   -0.42831  -0.42689  -0.42586  -0.42364  -0.42293
 Alpha  occ. eigenvalues --   -0.42051  -0.41913  -0.41287  -0.41029  -0.40497
 Alpha  occ. eigenvalues --   -0.40456  -0.40153  -0.40142  -0.39838  -0.39589
 Alpha  occ. eigenvalues --   -0.39428  -0.39316  -0.38553  -0.38505  -0.38269
 Alpha  occ. eigenvalues --   -0.37677  -0.37490  -0.37132  -0.36622  -0.36374
 Alpha  occ. eigenvalues --   -0.36188  -0.35575  -0.35235  -0.33843  -0.33492
 Alpha  occ. eigenvalues --   -0.32951  -0.32943  -0.32674  -0.32579  -0.32461
 Alpha  occ. eigenvalues --   -0.32107  -0.31593  -0.31484  -0.25925  -0.25801
 Alpha  occ. eigenvalues --   -0.23095  -0.22795
 Alpha virt. eigenvalues --   -0.07329  -0.06843  -0.00691   0.00088   0.01893
 Alpha virt. eigenvalues --    0.02190   0.02964   0.04167   0.04353   0.06583
 Alpha virt. eigenvalues --    0.06809   0.06898   0.07612   0.07739   0.07920

 Mulliken charges:
               1
     1  Mg   0.936817
     2  C    0.010905
     3  C   -0.075221
     4  C   -0.029991
     5  C   -0.064671
     6  N   -0.298217
     7  C   -0.021621
     8  C   -0.051845
     9  C   -0.134179
    10  C    0.043945
    11  C    0.038278
    12  C    0.033698
    13  C   -0.117111
    14  H    0.035052
    15  N   -0.490400
    16  C    0.145732
    17  C   -0.165533
    18  C   -0.025073
    19  C    0.111721
    20  C    0.096289
    21  C   -0.007034
    22  O   -0.246481
    23  C    0.014164
    24  N   -0.325862
    25  C    0.063080
    26  C   -0.098251
    27  C   -0.020513
    28  C    0.007730
    29  C    0.005951
    30  C   -0.047019
    31  C   -0.048146
    32  N   -0.422864
    33  C    0.106740
    34  C   -0.210702
    35  C   -0.023481
    36  C    0.161934
    37  C    0.090934
    38  C    0.075722
    39  O   -0.216196
    40  C   -0.055012
    41  C    0.276419
    42  O   -0.229417
    43  O   -0.374813
    44  C    0.144778
    45  H    0.004555
    46  H   -0.047467
    47  H   -0.000903
    48  H    0.012696
    49  H    0.029606
    50  H    0.042157
    51  H    0.046966
    52  H    0.028404
    53  H    0.032661
    54  H    0.056482
    55  H    0.045380
    56  H    0.046268
    57  H    0.058277
    58  H    0.061348
    59  H    0.009510
    60  H    0.040818
    61  H    0.071610
    62  H    0.046855
    63  H    0.050750
    64  H    0.037778
    65  H    0.052373
    66  H    0.033828
    67  H    0.031495
    68  H    0.040171
    69  H    0.030941
    70  H    0.035576
    71  H    0.046481
    72  H    0.060525
    73  H    0.072914
    74  H    0.068047
    75  H    0.038935
    76  H    0.061059
    77  H    0.058196
    78  H    0.041834
    79  H    0.053637
    80  Mg   0.990490
    81  C   -0.017482
    82  C   -0.078552
    83  C   -0.086412
    84  C   -0.079827
    85  N   -0.298211
    86  C   -0.019808
    87  C   -0.053103
    88  C   -0.107084
    89  C    0.010844
    90  C    0.015719
    91  C    0.042997
    92  C   -0.139079
    93  H   -0.009639
    94  N   -0.512313
    95  C    0.177371
    96  C   -0.130239
    97  C   -0.070990
    98  C    0.182113
    99  C    0.070182
   100  C    0.029668
   101  O   -0.236696
   102  C   -0.016460
   103  N   -0.420533
   104  C    0.093706
   105  C   -0.078889
   106  C   -0.074212
   107  C    0.102083
   108  C    0.012673
   109  C   -0.031833
   110  C   -0.079631
   111  N   -0.424536
   112  C    0.112468
   113  C   -0.186385
   114  C   -0.110821
   115  C    0.145568
   116  C    0.092635
   117  C    0.193645
   118  O   -0.247657
   119  C   -0.086697
   120  C    0.237150
   121  O   -0.215006
   122  O   -0.372135
   123  C    0.133747
   124  H   -0.004499
   125  H    0.020950
   126  H   -0.003294
   127  H    0.041536
   128  H    0.042919
   129  H    0.048245
   130  H    0.034612
   131  H    0.041311
   132  H    0.049076
   133  H    0.046174
   134  H    0.054759
   135  H    0.060354
   136  H    0.047049
   137  H    0.062941
   138  H    0.044823
   139  H    0.052772
   140  H    0.053667
   141  H    0.038466
   142  H    0.046252
   143  H    0.048433
   144  H    0.040244
   145  H    0.042072
   146  H    0.029140
   147  H    0.043076
   148  H    0.034668
   149  H    0.027504
   150  H    0.051988
   151  H    0.040933
   152  H    0.063970
   153  H    0.026471
   154  H    0.068684
   155  H    0.067127
   156  H    0.050122
   157  H    0.052119
   158  H    0.076507
 Sum of Mulliken charges =  -0.00000

 Dipole moment (field-independent basis, Debye):
    X=             -1.7305    Y=             -5.8679    Z=              0.7216  Tot=              6.1601
 Quadrupole moment (field-independent basis, Debye-Ang):
   XX=           -305.5401   YY=           -494.6521   ZZ=           -494.1787
   XY=            -34.7733   XZ=             31.4155   YZ=             11.5706

 Normal termination of Gaussian 16 at Sun Sep 19 12:55:17 2021.
