 Gaussian 16, Revision A.03,
 Gaussian 16:  ES64L-G16RevA.03 25-Dec-2016

 --------------------------------
 #p wB97XD/Def2SVP td=(nstates=5)
 --------------------------------

 --------------------------------
 TDDFT excited states in gaussian
 --------------------------------
 Symbolic Z-matrix:
 Charge =  0 Multiplicity = 1

                         Standard orientation:
 ---------------------------------------------------------------------
 Center     Atomic      Atomic             Coordinates (Angstroms)
 Number     Number       Type             X           Y           Z
 ---------------------------------------------------------------------
      1         12           0       24.114818   -0.941721    0.048598
      2          6           0       25.604090    2.318092   -0.223861
      3          6           0       22.659311    0.220064    3.065656
      4          6           0       22.678624   -4.080068    0.581923
      5          6           0       25.846483   -2.046347   -2.586063
      6          7           0       24.339038    1.067120    1.380767
      7          6           0       24.890011    2.232149    0.977726
      8          6           0       24.738146    3.314643    2.106144
      9          6           0       23.973008    2.483648    3.197316
     10          6           0       23.543050    1.175474    2.494639
     11          6           0       24.837704    2.251641    4.485355
     12          6           0       23.966275    4.555125    1.657046
     13          6           0       24.533148    5.872404    2.074219
     14          1           0       23.861446    7.158574    1.571747
     15          7           0       22.712375   -1.760490    1.443919
     16          6           0       22.266740   -1.115789    2.593007
     17          6           0       21.337444   -1.997288    3.271503
     18          6           0       21.235125   -3.178346    2.555261
     19          6           0       22.299264   -3.081510    1.499981
     20          6           0       20.718811   -1.720129    4.611498
     21          6           0       20.397922   -4.494397    2.828233
     22          8           0       20.358808   -5.495917    2.156265
     23          6           0       19.391859   -4.489285    3.958745
     24          7           0       24.329870   -2.799078   -0.728606
     25          6           0       23.678971   -3.962452   -0.410360
     26          6           0       24.256734   -5.181290   -1.166981
     27          6           0       25.080265   -4.500059   -2.341328
     28          6           0       25.057000   -2.997697   -1.864858
     29          6           0       25.071375   -6.143286   -0.244223
     30          6           0       24.464464   -4.693052   -3.760543
     31          6           0       23.138718   -3.977463   -4.009819
     32          7           0       25.455476   -0.136156   -1.155827
     33          6           0       26.081733   -0.695643   -2.304335
     34          6           0       26.968568    0.281055   -2.932669
     35          6           0       26.763663    1.457275   -2.189285
     36          6           0       25.845471    1.182967   -1.141333
     37          6           0       27.800128    0.055670   -4.108987
     38          6           0       27.194561    2.850072   -2.124911
     39          8           0       27.923159    3.472405   -2.879448
     40          6           0       26.527016    3.465026   -0.780006
     41          6           0       25.836099    4.693348   -1.377126
     42          8           0       24.821982    4.736274   -2.096743
     43          8           0       26.535336    5.769553   -1.061459
     44          6           0       25.924943    7.143189   -1.281610
     45          1           0       22.157999    0.612512    3.952514
     46          1           0       22.282814   -5.094753    0.671112
     47          1           0       26.322923   -2.451953   -3.480687
     48          1           0       25.760388    3.632195    2.309003
     49          1           0       23.042363    2.969132    3.494142
     50          1           0       24.391200    2.576034    5.425302
     51          1           0       25.873873    2.576621    4.389441
     52          1           0       24.978776    1.213852    4.788173
     53          1           0       23.131370    4.542724    2.357898
     54          1           0       23.620202    4.495932    0.624549
     55          1           0       25.597632    6.073589    1.943349
     56          1           0       24.379808    5.870819    3.153435
     57          1           0       20.909303   -0.696497    4.932949
     58          1           0       21.046051   -2.377240    5.418742
     59          1           0       19.631645   -1.789397    4.652029
     60          1           0       18.626086   -3.724459    3.829852
     61          1           0       20.040642   -4.347846    4.823196
     62          1           0       19.063132   -5.527690    4.001015
     63          1           0       23.370738   -5.752947   -1.445480
     64          1           0       26.163797   -4.620084   -2.329464
     65          1           0       24.576453   -7.103099   -0.096427
     66          1           0       25.411695   -5.766574    0.719698
     67          1           0       25.984931   -6.260377   -0.827433
     68          1           0       24.552447   -5.749978   -4.012460
     69          1           0       25.150600   -4.237055   -4.474052
     70          1           0       22.689556   -3.491566   -3.144408
     71          1           0       22.445955   -4.754699   -4.331481
     72          1           0       23.181942   -3.119107   -4.679249
     73          1           0       28.399789    0.911074   -4.420754
     74          1           0       27.101250   -0.223163   -4.897509
     75          1           0       28.433579   -0.807879   -3.901293
     76          1           0       27.271337    3.881239   -0.101168
     77          1           0       26.514632    7.827526   -0.671252
     78          1           0       24.906192    7.220372   -0.902970
     79          1           0       25.881680    7.436708   -2.331099
     80         12           0      -24.680850   -0.547547   -0.127602
     81          6           0      -23.543513    2.811187   -0.439768
     82          6           0      -25.207603    0.032080    3.220405
     83          6           0      -25.642598   -3.706922   -0.016848
     84          6           0      -23.613517   -1.157868   -3.505121
     85          7           0      -24.337700    1.252743    1.306294
     86          6           0      -23.964823    2.509550    0.866166
     87          6           0      -24.028374    3.445973    2.121212
     88          6           0      -24.538347    2.521580    3.351015
     89          6           0      -24.686995    1.199623    2.591001
     90          6           0      -23.637959    2.499994    4.603739
     91          6           0      -24.792148    4.824234    1.954370
     92          6           0      -23.979570    6.055778    2.230533
     93          1           0      -22.807833    6.088595    3.175920
     94          7           0      -25.487273   -1.694567    1.436532
     95          6           0      -25.603752   -1.267165    2.721660
     96          6           0      -26.335477   -2.296654    3.413963
     97          6           0      -26.380745   -3.410015    2.547360
     98          6           0      -25.799081   -3.010516    1.224709
     99          6           0      -26.735428   -2.099252    4.885878
    100          6           0      -26.798889   -4.807480    2.891488
    101          8           0      -26.685999   -5.747450    2.069319
    102          6           0      -27.305122   -5.100416    4.255071
    103          7           0      -24.548640   -2.203317   -1.603780
    104          6           0      -25.079850   -3.341437   -1.320703
    105          6           0      -25.113120   -4.451059   -2.501720
    106          6           0      -24.439399   -3.617105   -3.602071
    107          6           0      -24.186637   -2.295045   -2.919685
    108          6           0      -24.320662   -5.730418   -2.045222
    109          6           0      -25.234334   -3.438687   -4.943161
    110          6           0      -26.463496   -2.500087   -4.899393
    111          7           0      -23.686735    0.513447   -1.565318
    112          6           0      -23.313107    0.102750   -2.866604
    113          6           0      -22.755665    1.270267   -3.562943
    114          6           0      -22.835897    2.350986   -2.652191
    115          6           0      -23.452543    1.849672   -1.456303
    116          6           0      -22.233402    1.283143   -5.030827
    117          6           0      -22.566582    3.686291   -2.547483
    118          8           0      -22.036530    4.474559   -3.303703
    119          6           0      -23.052914    4.115731   -1.135130
    120          6           0      -21.959861    4.771163   -0.454857
    121          8           0      -21.102926    4.193573    0.223542
    122          8           0      -21.879660    6.106154   -0.868639
    123          6           0      -20.678012    6.826187   -0.379069
    124          1           0      -25.180246    0.004441    4.312059
    125          1           0      -25.810015   -4.781371    0.083908
    126          1           0      -23.276069   -1.287978   -4.535440
    127          1           0      -22.979506    3.738862    2.144079
    128          1           0      -25.476142    2.927180    3.728049
    129          1           0      -24.204546    2.787332    5.490393
    130          1           0      -22.728472    3.099309    4.565430
    131          1           0      -23.329970    1.457448    4.683405
    132          1           0      -25.680041    4.837470    2.586790
    133          1           0      -25.066718    4.872575    0.900598
    134          1           0      -24.612150    6.710112    2.831411
    135          1           0      -23.685894    6.481889    1.271871
    136          1           0      -26.688650   -1.052578    5.187397
    137          1           0      -26.080800   -2.689358    5.525949
    138          1           0      -27.761229   -2.462714    4.937806
    139          1           0      -28.167039   -4.453156    4.417218
    140          1           0      -26.567438   -4.845249    5.016835
    141          1           0      -27.511899   -6.163887    4.368001
    142          1           0      -26.136483   -4.705694   -2.778485
    143          1           0      -23.423827   -3.979778   -3.762404
    144          1           0      -23.545200   -5.409287   -1.349838
    145          1           0      -23.822360   -6.149686   -2.920010
    146          1           0      -24.879639   -6.535963   -1.568349
    147          1           0      -25.438719   -4.414179   -5.383325
    148          1           0      -24.538804   -3.041078   -5.681583
    149          1           0      -27.016121   -2.457927   -3.961411
    150          1           0      -27.103974   -2.742851   -5.748060
    151          1           0      -26.067026   -1.510679   -5.126866
    152          1           0      -22.642446    2.100925   -5.624225
    153          1           0      -22.393886    0.341056   -5.553844
    154          1           0      -21.200655    1.632647   -5.034735
    155          1           0      -23.839752    4.826980   -1.384192
    156          1           0      -19.778983    6.443392   -0.861422
    157          1           0      -20.491135    6.718549    0.688768
    158          1           0      -20.900201    7.889380   -0.472078
 ---------------------------------------------------------------------

 SCF Done:  E(RwB97XD) =  -4070.59436197     A.U. after   19 cycles

 Excitation energies and oscillator strengths:

 Excited State   1:      Singlet-A      1.5889 eV  780.33 nm  f=0.3673  <S**2>=0.000
     309 -> 315       -0.18996
     312 -> 313        0.68307
     309 <- 315       -0.12271
 This state for optimization and/or second-order correction.
 Total Energy, E(TD-HF/TD-DFT) =  -4070.53597178
 Copying the excited state density for this state as the 1-particle RhoCI density.

 Excited State   2:      Singlet-A      1.7177 eV  721.79 nm  f=0.3732  <S**2>=0.000
     310 -> 316       -0.19148
     311 -> 314        0.67997
     310 <- 316       -0.11531

 Excited State   3:      Singlet-A      2.1588 eV  574.31 nm  f=0.0510  <S**2>=0.000
     309 -> 313        0.61066
     310 -> 314        0.13312
     312 -> 315        0.31508

 Excited State   4:      Singlet-A      2.1591 eV  574.23 nm  f=0.1447  <S**2>=0.000
     309 -> 313       -0.12992
     310 -> 314        0.62540
     311 -> 316        0.27644

 Excited State   5:      Singlet-A      3.4490 eV  359.48 nm  f=0.5519  <S**2>=0.000
     305 -> 313       -0.27107
     309 -> 313       -0.26782
     312 -> 315        0.57079
     309 <- 313        0.11048

 The electronic state is 1-A.
 Alpha  occ. eigenvalues --  -46.96154 -46.94603 -19.30120 -19.29437 -19.24516
 Alpha  occ. eigenvalues --  -19.24380 -19.24171 -19.23881 -19.22945 -19.22495
 Alpha  occ. eigenvalues --  -14.47266 -14.47046 -14.46457 -14.46111 -14.44710
 Alpha  occ. eigenvalues --  -14.44381 -14.44278 -14.44235 -10.42401 -10.42299
 Alpha  occ. eigenvalues --  -10.39553 -10.39396 -10.39092 -10.37204 -10.35989
 Alpha  occ. eigenvalues --  -10.35960 -10.35812 -10.35589 -10.35443 -10.35360
 Alpha  occ. eigenvalues --  -10.35245 -10.35114 -10.35107 -10.35105 -10.35055
 Alpha  occ. eigenvalues --  -10.34675 -10.34492 -10.34151 -10.34009 -10.33918
 Alpha  occ. eigenvalues --  -10.33798 -10.33605 -10.32911 -10.32886 -10.32872
 Alpha  occ. eigenvalues --  -10.32715 -10.32705 -10.32637 -10.32481 -10.32455
 Alpha  occ. eigenvalues --  -10.32445 -10.32440 -10.32391 -10.32374 -10.32209
 Alpha  occ. eigenvalues --  -10.32183 -10.32126 -10.32109 -10.32066 -10.31971
 Alpha  occ. eigenvalues --  -10.31907 -10.31677 -10.31629 -10.31470 -10.31434
 Alpha  occ. eigenvalues --  -10.31317 -10.31190 -10.31154 -10.31151 -10.30828
 Alpha  occ. eigenvalues --  -10.30745 -10.30657 -10.30512 -10.30268 -10.30216
 Alpha  occ. eigenvalues --  -10.30069 -10.30000 -10.29902 -10.29876 -10.29856
 Alpha  occ. eigenvalues --  -10.29798 -10.29675 -10.29579 -10.29438 -10.29189
 Alpha  occ. eigenvalues --  -10.27830  -3.21958  -3.20732  -1.95557  -1.95111
 Alpha  occ. eigenvalues --   -1.94881  -1.94310  -1.93873  -1.93704  -1.18106
 Alpha  occ. eigenvalues --   -1.16446  -1.13661  -1.12249  -1.11401  -1.10735
 Alpha  occ. eigenvalues --   -1.08447  -1.08126  -1.07450  -1.05774  -1.05757
 Alpha  occ. eigenvalues --   -1.05098  -1.05071  -1.04241  -1.03721  -1.03673
 Alpha  occ. eigenvalues --   -0.94216  -0.92798  -0.91595  -0.91075  -0.90584
 Alpha  occ. eigenvalues --   -0.90272  -0.89909  -0.89667  -0.89277  -0.89231
 Alpha  occ. eigenvalues --   -0.88873  -0.88703  -0.88375  -0.87404  -0.86220
 Alpha  occ. eigenvalues --   -0.86017  -0.85443  -0.85222  -0.84437  -0.84246
 Alpha  occ. eigenvalues --   -0.84193  -0.83418  -0.82949  -0.82594  -0.82108
 Alpha  occ. eigenvalues --   -0.82027  -0.80330  -0.80082  -0.79465  -0.79192
 Alpha  occ. eigenvalues --   -0.78859  -0.78341  -0.77875  -0.77613  -0.77044
 Alpha  occ. eigenvalues --   -0.76940  -0.74559  -0.74492  -0.73602  -0.73535
 Alpha  occ. eigenvalues --   -0.72351  -0.71948  -0.71021  -0.70709  -0.69807
 Alpha  occ. eigenvalues --   -0.69476  -0.68933  -0.68234  -0.67403  -0.67245
 Alpha  occ. eigenvalues --   -0.67044  -0.66886  -0.66584  -0.66575  -0.66209
 Alpha  occ. eigenvalues --   -0.66051  -0.63753  -0.63379  -0.62269  -0.61579
 Alpha  occ. eigenvalues --   -0.61482  -0.61270  -0.60894  -0.60603  -0.60092
 Alpha  occ. eigenvalues --   -0.59869  -0.59687  -0.59512  -0.59345  -0.58213
 Alpha  occ. eigenvalues --   -0.58166  -0.57985  -0.57620  -0.57391  -0.57198
 Alpha  occ. eigenvalues --   -0.57019  -0.56905  -0.56561  -0.55873  -0.55477
 Alpha  occ. eigenvalues --   -0.55254  -0.55218  -0.55130  -0.54932  -0.54812
 Alpha  occ. eigenvalues --   -0.54789  -0.54626  -0.54487  -0.54308  -0.54034
 Alpha  occ. eigenvalues --   -0.53970  -0.53461  -0.53438  -0.53223  -0.52878
 Alpha  occ. eigenvalues --   -0.52817  -0.52712  -0.52448  -0.52038  -0.51739
 Alpha  occ. eigenvalues --   -0.51724  -0.51537  -0.51470  -0.51194  -0.51185
 Alpha  occ. eigenvalues --   -0.51141  -0.51127  -0.50950  -0.50888  -0.50781
 Alpha  occ. eigenvalues --   -0.50542  -0.50513  -0.50342  -0.50052  -0.49962
 Alpha  occ. eigenvalues --   -0.49874  -0.49422  -0.49422  -0.49340  -0.49224
 Alpha  occ. eigenvalues --   -0.48652  -0.48644  -0.48558  -0.48538  -0.48437
 Alpha  occ. eigenvalues --   -0.48268  -0.48099  -0.48090  -0.47728  -0.47726
 Alpha  occ. eigenvalues --   -0.47420  -0.47407  -0.47187  -0.46829  -0.46810
 Alpha  occ. eigenvalues --   -0.46484  -0.46314  -0.46113  -0.46045  -0.45870
 Alpha  occ. eigenvalues --   -0.45726  -0.45655  -0.45572  -0.45443  -0.45394
 Alpha  occ. eigenvalues --   -0.45130  -0.45045  -0.44933  -0.44881  -0.44668
 Alpha  occ. eigenvalues --   -0.44486  -0.44374  -0.44261  -0.44039  -0.43780
 Alpha  occ. eigenvalues --   -0.43759  -0.43732  -0.43546  -0.43376  -0.43278
 Alpha  occ. eigenvalues --   -0.43180  -0.43018  -0.42806  -0.42486  -0.42247
 Alpha  occ. eigenvalues --   -0.42085  -0.41985  -0.41680  -0.41445  -0.41062
 Alpha  occ. eigenvalues --   -0.41007  -0.40509  -0.39956  -0.39520  -0.38881
 Alpha  occ. eigenvalues --   -0.38690  -0.38646  -0.38430  -0.38027  -0.38012
 Alpha  occ. eigenvalues --   -0.37628  -0.37452  -0.35904  -0.35877  -0.35546
 Alpha  occ. eigenvalues --   -0.35316  -0.35306  -0.34690  -0.33579  -0.33535
 Alpha  occ. eigenvalues --   -0.33189  -0.32966  -0.32783  -0.32512  -0.32487
 Alpha  occ. eigenvalues --   -0.32128  -0.31930  -0.31653  -0.26001  -0.25735
 Alpha  occ. eigenvalues --   -0.23062  -0.22734
 Alpha virt. eigenvalues --   -0.07041  -0.06882  -0.00103   0.00134   0.02203
 Alpha virt. eigenvalues --    0.02729   0.04437   0.04505   0.05695   0.06532
 Alpha virt. eigenvalues --    0.07234   0.07617   0.07997   0.08118   0.08545

 Mulliken charges:
               1
     1  Mg   0.988047
     2  C    0.030676
     3  C   -0.071649
     4  C   -0.057215
     5  C   -0.104989
     6  N   -0.311584
     7  C   -0.008626
     8  C   -0.088428
     9  C   -0.082921
    10  C    0.047857
    11  C    0.016132
    12  C    0.051351
    13  C   -0.150264
    14  H    0.031597
    15  N   -0.450275
    16  C    0.180451
    17  C   -0.160768
    18  C   -0.081940
    19  C    0.134231
    20  C    0.055091
    21  C    0.057127
    22  O   -0.215999
    23  C   -0.009644
    24  N   -0.398383
    25  C    0.036389
    26  C   -0.083152
    27  C   -0.076581
    28  C    0.060770
    29  C    0.027344
    30  C   -0.006013
    31  C   -0.051475
    32  N   -0.527427
    33  C    0.158647
    34  C   -0.163642
    35  C   -0.041816
    36  C    0.162225
    37  C    0.081443
    38  C    0.128571
    39  O   -0.198785
    40  C   -0.130073
    41  C    0.252172
    42  O   -0.286952
    43  O   -0.341668
    44  C    0.147887
    45  H   -0.001421
    46  H    0.022941
    47  H   -0.006083
    48  H    0.039113
    49  H    0.035212
    50  H    0.033066
    51  H    0.038299
    52  H    0.025645
    53  H    0.023430
    54  H    0.069139
    55  H    0.048324
    56  H    0.037547
    57  H    0.022377
    58  H    0.055802
    59  H    0.037890
    60  H    0.076582
    61  H    0.035100
    62  H    0.053212
    63  H    0.040840
    64  H    0.042979
    65  H    0.048272
    66  H    0.047182
    67  H    0.024247
    68  H    0.039492
    69  H    0.022279
    70  H    0.040676
    71  H    0.045476
    72  H    0.042434
    73  H    0.065297
    74  H    0.051818
    75  H    0.044422
    76  H    0.067529
    77  H    0.057665
    78  H    0.052450
    79  H    0.073024
    80  Mg   0.949123
    81  C    0.012456
    82  C   -0.090575
    83  C   -0.048240
    84  C   -0.087819
    85  N   -0.314566
    86  C   -0.013063
    87  C   -0.056111
    88  C   -0.105072
    89  C    0.077709
    90  C    0.018439
    91  C    0.000092
    92  C   -0.139679
    93  H    0.031623
    94  N   -0.486385
    95  C    0.140288
    96  C   -0.180354
    97  C   -0.072287
    98  C    0.161191
    99  C    0.073011
   100  C    0.036572
   101  O   -0.261885
   102  C    0.006287
   103  N   -0.272007
   104  C    0.015672
   105  C   -0.110007
   106  C    0.029208
   107  C   -0.040057
   108  C   -0.003649
   109  C   -0.032811
   110  C   -0.036063
   111  N   -0.476594
   112  C    0.148545
   113  C   -0.175978
   114  C    0.006766
   115  C    0.138812
   116  C    0.087109
   117  C    0.031570
   118  O   -0.201445
   119  C   -0.063054
   120  C    0.267009
   121  O   -0.263280
   122  O   -0.379042
   123  C    0.150060
   124  H    0.007843
   125  H    0.029041
   126  H   -0.009056
   127  H    0.057311
   128  H    0.044903
   129  H    0.035041
   130  H    0.051794
   131  H    0.033479
   132  H    0.031604
   133  H    0.036300
   134  H    0.048467
   135  H    0.062313
   136  H    0.047822
   137  H    0.064154
   138  H    0.046267
   139  H    0.050985
   140  H    0.050432
   141  H    0.058539
   142  H    0.052387
   143  H    0.036481
   144  H    0.045568
   145  H    0.037068
   146  H    0.064059
   147  H    0.030900
   148  H    0.025083
   149  H    0.049773
   150  H    0.041213
   151  H    0.038627
   152  H    0.043759
   153  H    0.031546
   154  H    0.051163
   155  H    0.073532
   156  H    0.064653
   157  H    0.041696
   158  H    0.053734
 Sum of Mulliken charges =  -0.00000

 Dipole moment (field-independent basis, Debye):
    X=             -3.8485    Y=             -2.6642    Z=              6.8193  Tot=              8.2711
 Quadrupole moment (field-independent basis, Debye-Ang):
   XX=           -371.3840   YY=           -508.3892   ZZ=           -463.5729
   XY=            -17.5619   XZ=             22.4628   YZ=             52.0152

 Normal termination of Gaussian 16 at Sun Sep 19 08:58:19 2021.
