 Gaussian 16, Revision A.03,
 Gaussian 16:  ES64L-G16RevA.03 25-Dec-2016

 --------------------------------
 #p wB97XD/Def2SVP td=(nstates=5)
 --------------------------------

 --------------------------------
 TDDFT excited states in gaussian
 --------------------------------
 Symbolic Z-matrix:
 Charge =  0 Multiplicity = 1

                         Standard orientation:
 ---------------------------------------------------------------------
 Center     Atomic      Atomic             Coordinates (Angstroms)
 Number     Number       Type             X           Y           Z
 ---------------------------------------------------------------------
      1         12           0        5.368822    0.345552    0.690660
      2          6           0        5.098390   -3.118362   -0.045801
      3          6           0        2.726146   -0.185328    2.981173
      4          6           0        5.255939    3.565259    1.205524
      5          6           0        7.747711    0.641026   -1.829295
      6          7           0        4.027494   -1.483887    1.396027
      7          6           0        4.231703   -2.778129    0.984529
      8          6           0        3.378891   -3.786263    1.735997
      9          6           0        2.529058   -2.775969    2.619928
     10          6           0        3.144370   -1.392698    2.357963
     11          6           0        1.035297   -2.942312    2.356827
     12          6           0        4.264239   -4.739083    2.568954
     13          6           0        3.821475   -6.244787    2.715031
     14          1           0        2.339310   -6.597594    2.447590
     15          7           0        4.211649    1.536059    1.981949
     16          6           0        3.134203    1.130170    2.769903
     17          6           0        2.618722    2.311026    3.480658
     18          6           0        3.428755    3.406183    3.035485
     19          6           0        4.371227    2.816692    2.065296
     20          6           0        1.476420    2.272638    4.347929
     21          6           0        3.345361    4.874783    3.439237
     22          8           0        4.057642    5.730577    2.890584
     23          6           0        2.546120    5.292274    4.610661
     24          7           0        6.289899    1.901960   -0.262514
     25          6           0        6.155456    3.144579    0.208355
     26          6           0        6.978873    4.161797   -0.646706
     27          6           0        7.900768    3.202470   -1.464468
     28          6           0        7.309380    1.850014   -1.217835
     29          6           0        6.102762    5.160780   -1.485109
     30          6           0        9.324802    3.334612   -0.801233
     31          6           0        9.769610    2.337120    0.323278
     32          7           0        6.340290   -0.939079   -0.601423
     33          6           0        7.291540   -0.650748   -1.596760
     34          6           0        7.602297   -1.908595   -2.320378
     35          6           0        6.730242   -2.844230   -1.776201
     36          6           0        6.007802   -2.288620   -0.741515
     37          6           0        8.402579   -1.879235   -3.532447
     38          6           0        6.254058   -4.208841   -1.988634
     39          8           0        6.606163   -5.003578   -2.852993
     40          6           0        5.132332   -4.454538   -0.873651
     41          6           0        3.833448   -4.818850   -1.490018
     42          8           0        2.919920   -4.046415   -1.765573
     43          8           0        3.798975   -6.210882   -1.696755
     44          6           0        2.674436   -6.851965   -2.339985
     45          1           0        2.099158   -0.296988    3.868677
     46          1           0        5.283883    4.648614    1.342527
     47          1           0        8.530792    0.852801   -2.559913
     48          1           0        2.743785   -4.375658    1.074162
     49          1           0        2.636182   -3.119740    3.648374
     50          1           0        0.432153   -3.142451    3.241719
     51          1           0        0.757541   -3.702276    1.626440
     52          1           0        0.674046   -1.970913    2.016608
     53          1           0        4.407103   -4.352341    3.577902
     54          1           0        5.210418   -4.642584    2.035344
     55          1           0        3.953551   -6.579479    3.743390
     56          1           0        4.591758   -6.816142    2.197057
     57          1           0        1.792791    2.726871    5.287132
     58          1           0        1.008339    1.288838    4.333493
     59          1           0        0.778452    2.878197    3.768934
     60          1           0        1.469858    5.254672    4.439605
     61          1           0        2.770407    6.331969    4.848288
     62          1           0        2.712587    4.559931    5.400112
     63          1           0        7.457695    4.695928    0.174019
     64          1           0        7.984081    3.509785   -2.507229
     65          1           0        5.993866    6.102819   -0.947540
     66          1           0        5.174563    4.640481   -1.719191
     67          1           0        6.648994    5.327018   -2.413450
     68          1           0        9.518432    4.383019   -0.573516
     69          1           0        9.989451    2.965818   -1.583037
     70          1           0       10.240676    2.987054    1.060126
     71          1           0       10.514479    1.616018   -0.015757
     72          1           0        8.970234    1.802431    0.835172
     73          1           0        8.019152   -1.092505   -4.180918
     74          1           0        8.242861   -2.836492   -4.029718
     75          1           0        9.466926   -1.882312   -3.298947
     76          1           0        5.518380   -5.309615   -0.317889
     77          1           0        2.823818   -7.019824   -3.406295
     78          1           0        1.729304   -6.416323   -2.015530
     79          1           0        2.642450   -7.794520   -1.792733
     80         12           0       -4.477021    0.759399   -1.084108
     81          6           0       -7.269882   -1.334679   -0.269018
     82          6           0       -2.485552   -1.819278   -0.676605
     83          6           0       -2.024588    2.988571   -1.055828
     84          6           0       -6.889749    3.535577   -1.101903
     85          7           0       -4.859511   -1.346642   -0.579550
     86          6           0       -6.059117   -2.008166   -0.249585
     87          6           0       -5.870453   -3.534715    0.091284
     88          6           0       -4.239245   -3.622432   -0.139135
     89          6           0       -3.797400   -2.207916   -0.500964
     90          6           0       -3.474101   -4.135691    1.155305
     91          6           0       -6.733769   -4.535397   -0.753274
     92          6           0       -6.274798   -5.988500   -0.731148
     93          1           0       -7.248792   -6.959786   -0.039396
     94          7           0       -2.509743    0.585061   -0.990001
     95          6           0       -1.779425   -0.570571   -0.841457
     96          6           0       -0.352291   -0.328721   -0.866780
     97          6           0       -0.247462    1.112938   -0.994278
     98          6           0       -1.664605    1.614104   -1.091939
     99          6           0        0.704098   -1.330678   -0.844422
    100          6           0        0.983532    1.998162   -1.083228
    101          8           0        0.949929    3.175751   -1.306548
    102          6           0        2.283015    1.301439   -0.778484
    103          7           0       -4.458355    2.965098   -1.015751
    104          6           0       -3.271835    3.622592   -1.046949
    105          6           0       -3.488880    5.156585   -1.141122
    106          6           0       -5.046342    5.266234   -1.288853
    107          6           0       -5.512385    3.827133   -1.180315
    108          6           0       -2.932897    6.054770    0.015918
    109          6           0       -5.571140    5.914427   -2.618385
    110          6           0       -5.452930    7.454524   -2.636667
    111          7           0       -6.589686    1.113169   -0.749048
    112          6           0       -7.398556    2.220212   -0.863906
    113          6           0       -8.741432    1.824824   -0.705372
    114          6           0       -8.770964    0.510687   -0.423038
    115          6           0       -7.413234    0.068723   -0.429078
    116          6           0       -9.884306    2.808521   -0.920116
    117          6           0       -9.553827   -0.674120   -0.057475
    118          8           0      -10.737412   -0.806564    0.119160
    119          6           0       -8.559711   -1.924207    0.076413
    120          6           0       -8.516112   -2.302316    1.522613
    121          8           0       -7.836618   -1.902317    2.440941
    122          8           0       -9.441977   -3.319347    1.645287
    123          6           0       -9.607976   -3.920300    2.990109
    124          1           0       -1.741379   -2.601066   -0.511587
    125          1           0       -1.186392    3.670098   -0.891981
    126          1           0       -7.478394    4.444500   -1.246282
    127          1           0       -6.030736   -3.655640    1.162760
    128          1           0       -4.052186   -4.354492   -0.925102
    129          1           0       -2.725531   -4.872131    0.863483
    130          1           0       -4.051486   -4.535344    1.988547
    131          1           0       -2.859967   -3.337445    1.570999
    132          1           0       -6.683080   -4.045770   -1.726667
    133          1           0       -7.810059   -4.564804   -0.582054
    134          1           0       -5.317876   -6.050726   -0.213715
    135          1           0       -6.264497   -6.364984   -1.753640
    136          1           0        1.116718   -1.172266   -1.840765
    137          1           0        0.298155   -2.326683   -0.666879
    138          1           0        1.517825   -1.201019   -0.131171
    139          1           0        2.733861    0.957521   -1.709280
    140          1           0        2.251674    0.692758    0.125655
    141          1           0        2.854152    2.072537   -0.262231
    142          1           0       -3.159103    5.424864   -2.145245
    143          1           0       -5.454507    5.731453   -0.391320
    144          1           0       -3.663470    6.664943    0.547796
    145          1           0       -2.317469    6.805727   -0.478971
    146          1           0       -2.374231    5.527940    0.789502
    147          1           0       -6.627332    5.677375   -2.741307
    148          1           0       -5.004925    5.422828   -3.410703
    149          1           0       -5.390285    7.843497   -1.620177
    150          1           0       -6.325053    7.812029   -3.183981
    151          1           0       -4.547189    7.827486   -3.115756
    152          1           0      -10.795387    2.293809   -1.225442
    153          1           0       -9.573248    3.551522   -1.654553
    154          1           0      -10.044597    3.405400   -0.021987
    155          1           0       -8.867814   -2.754733   -0.559170
    156          1           0      -10.679124   -4.087000    3.103233
    157          1           0       -9.244811   -3.298200    3.808022
    158          1           0       -9.040321   -4.839324    2.841023
 ---------------------------------------------------------------------

 SCF Done:  E(RwB97XD) =  -4070.63611687     A.U. after   19 cycles

 Excitation energies and oscillator strengths:

 Excited State   1:      Singlet-A      1.6270 eV  762.02 nm  f=0.5688  <S**2>=0.000
     310 -> 316       -0.17676
     311 -> 313        0.15879
     312 -> 314        0.66589
     310 <- 316       -0.11393
 This state for optimization and/or second-order correction.
 Total Energy, E(TD-HF/TD-DFT) =  -4070.57632411
 Copying the excited state density for this state as the 1-particle RhoCI density.

 Excited State   2:      Singlet-A      1.6993 eV  729.60 nm  f=0.2425  <S**2>=0.000
     309 -> 315       -0.18864
     311 -> 313        0.65996
     312 -> 314       -0.15601
     309 <- 315       -0.11352

 Excited State   3:      Singlet-A      2.1610 eV  573.74 nm  f=0.0969  <S**2>=0.000
     310 -> 314        0.64327
     312 -> 316        0.27062

 Excited State   4:      Singlet-A      2.2163 eV  559.42 nm  f=0.0784  <S**2>=0.000
     309 -> 313        0.61792
     311 -> 315        0.32096

 Excited State   5:      Singlet-A      2.7590 eV  449.38 nm  f=0.0000  <S**2>=0.000
     312 -> 313        0.70359

 The electronic state is 1-A.
 Alpha  occ. eigenvalues --  -46.95221 -46.94694 -19.29847 -19.29017 -19.25564
 Alpha  occ. eigenvalues --  -19.24786 -19.24765 -19.23964 -19.23935 -19.23595
 Alpha  occ. eigenvalues --  -14.47264 -14.46649 -14.46203 -14.45697 -14.44643
 Alpha  occ. eigenvalues --  -14.43973 -14.43950 -14.43237 -10.44011 -10.42728
 Alpha  occ. eigenvalues --  -10.39835 -10.39413 -10.39108 -10.38347 -10.35586
 Alpha  occ. eigenvalues --  -10.35464 -10.35107 -10.34911 -10.34885 -10.34855
 Alpha  occ. eigenvalues --  -10.34773 -10.34731 -10.34715 -10.34701 -10.34245
 Alpha  occ. eigenvalues --  -10.34003 -10.33940 -10.33868 -10.33633 -10.33572
 Alpha  occ. eigenvalues --  -10.33505 -10.33428 -10.33303 -10.32892 -10.32829
 Alpha  occ. eigenvalues --  -10.32823 -10.32669 -10.32621 -10.32520 -10.32242
 Alpha  occ. eigenvalues --  -10.32148 -10.31990 -10.31891 -10.31788 -10.31691
 Alpha  occ. eigenvalues --  -10.31648 -10.31587 -10.31490 -10.31479 -10.31342
 Alpha  occ. eigenvalues --  -10.31206 -10.31042 -10.30849 -10.30767 -10.30714
 Alpha  occ. eigenvalues --  -10.30631 -10.30561 -10.30548 -10.30525 -10.30508
 Alpha  occ. eigenvalues --  -10.30502 -10.30446 -10.30072 -10.29812 -10.29741
 Alpha  occ. eigenvalues --  -10.29713 -10.29619 -10.29545 -10.29399 -10.29299
 Alpha  occ. eigenvalues --  -10.29288 -10.29269 -10.29263 -10.29116 -10.28875
 Alpha  occ. eigenvalues --  -10.28499  -3.21219  -3.20685  -1.94814  -1.94355
 Alpha  occ. eigenvalues --   -1.94272  -1.94175  -1.93787  -1.93673  -1.17780
 Alpha  occ. eigenvalues --   -1.17469  -1.13187  -1.12856  -1.12319  -1.11559
 Alpha  occ. eigenvalues --   -1.10118  -1.09588  -1.07285  -1.06563  -1.05595
 Alpha  occ. eigenvalues --   -1.05413  -1.05095  -1.04310  -1.03792  -1.03426
 Alpha  occ. eigenvalues --   -0.94807  -0.94408  -0.92126  -0.91040  -0.90531
 Alpha  occ. eigenvalues --   -0.90470  -0.89865  -0.89785  -0.89702  -0.88953
 Alpha  occ. eigenvalues --   -0.88813  -0.88563  -0.88489  -0.87740  -0.86477
 Alpha  occ. eigenvalues --   -0.85650  -0.85581  -0.84938  -0.84776  -0.84153
 Alpha  occ. eigenvalues --   -0.83938  -0.83482  -0.83145  -0.82832  -0.82466
 Alpha  occ. eigenvalues --   -0.81837  -0.81181  -0.79477  -0.79287  -0.79217
 Alpha  occ. eigenvalues --   -0.78752  -0.78395  -0.78157  -0.77349  -0.77044
 Alpha  occ. eigenvalues --   -0.76580  -0.74532  -0.74486  -0.73658  -0.73138
 Alpha  occ. eigenvalues --   -0.71426  -0.71370  -0.71297  -0.70519  -0.70239
 Alpha  occ. eigenvalues --   -0.69524  -0.69046  -0.68651  -0.67428  -0.67019
 Alpha  occ. eigenvalues --   -0.66825  -0.66713  -0.66605  -0.66378  -0.66213
 Alpha  occ. eigenvalues --   -0.65715  -0.64019  -0.63328  -0.62621  -0.61802
 Alpha  occ. eigenvalues --   -0.61709  -0.61444  -0.61245  -0.60602  -0.60497
 Alpha  occ. eigenvalues --   -0.60147  -0.60140  -0.59642  -0.59586  -0.58655
 Alpha  occ. eigenvalues --   -0.58549  -0.57862  -0.57805  -0.57689  -0.57467
 Alpha  occ. eigenvalues --   -0.56802  -0.56463  -0.56331  -0.56222  -0.56157
 Alpha  occ. eigenvalues --   -0.56042  -0.55687  -0.55518  -0.55478  -0.55344
 Alpha  occ. eigenvalues --   -0.55220  -0.54414  -0.54389  -0.54159  -0.54090
 Alpha  occ. eigenvalues --   -0.53894  -0.53654  -0.53527  -0.53358  -0.52922
 Alpha  occ. eigenvalues --   -0.52895  -0.52818  -0.52681  -0.52229  -0.52157
 Alpha  occ. eigenvalues --   -0.52059  -0.51954  -0.51836  -0.51563  -0.51451
 Alpha  occ. eigenvalues --   -0.51302  -0.51143  -0.50999  -0.50907  -0.50827
 Alpha  occ. eigenvalues --   -0.50630  -0.50429  -0.50273  -0.50158  -0.49899
 Alpha  occ. eigenvalues --   -0.49756  -0.49564  -0.49523  -0.49283  -0.49132
 Alpha  occ. eigenvalues --   -0.48838  -0.48798  -0.48513  -0.48380  -0.48255
 Alpha  occ. eigenvalues --   -0.48139  -0.47654  -0.47522  -0.47505  -0.47418
 Alpha  occ. eigenvalues --   -0.47105  -0.47085  -0.46952  -0.46793  -0.46713
 Alpha  occ. eigenvalues --   -0.46632  -0.46576  -0.46423  -0.46383  -0.46251
 Alpha  occ. eigenvalues --   -0.46218  -0.45862  -0.45786  -0.45731  -0.45643
 Alpha  occ. eigenvalues --   -0.45421  -0.45379  -0.45153  -0.44912  -0.44829
 Alpha  occ. eigenvalues --   -0.44543  -0.44327  -0.44291  -0.43882  -0.43803
 Alpha  occ. eigenvalues --   -0.43606  -0.43464  -0.43364  -0.43205  -0.43109
 Alpha  occ. eigenvalues --   -0.42727  -0.42570  -0.42487  -0.42398  -0.42253
 Alpha  occ. eigenvalues --   -0.41962  -0.41729  -0.41074  -0.40941  -0.40605
 Alpha  occ. eigenvalues --   -0.40096  -0.39869  -0.39712  -0.39496  -0.39372
 Alpha  occ. eigenvalues --   -0.38950  -0.38841  -0.38758  -0.38430  -0.38277
 Alpha  occ. eigenvalues --   -0.37995  -0.37664  -0.36762  -0.36480  -0.36427
 Alpha  occ. eigenvalues --   -0.35964  -0.35731  -0.34641  -0.33552  -0.33274
 Alpha  occ. eigenvalues --   -0.33250  -0.33222  -0.32784  -0.32403  -0.32339
 Alpha  occ. eigenvalues --   -0.31943  -0.31880  -0.31646  -0.26214  -0.25301
 Alpha  occ. eigenvalues --   -0.23013  -0.22535
 Alpha virt. eigenvalues --   -0.06874  -0.06630  -0.00234   0.00992   0.01952
 Alpha virt. eigenvalues --    0.03214   0.03957   0.04979   0.05869   0.06035
 Alpha virt. eigenvalues --    0.06452   0.07236   0.07575   0.07944   0.08248

 Mulliken charges:
               1
     1  Mg   0.904291
     2  C    0.015351
     3  C   -0.108318
     4  C   -0.063131
     5  C   -0.089880
     6  N   -0.268752
     7  C   -0.055747
     8  C   -0.076830
     9  C   -0.076835
    10  C    0.045672
    11  C    0.009564
    12  C   -0.000480
    13  C   -0.101346
    14  H    0.040783
    15  N   -0.415476
    16  C    0.140119
    17  C   -0.183482
    18  C   -0.083108
    19  C    0.134135
    20  C    0.086616
    21  C    0.064522
    22  O   -0.249716
    23  C   -0.005488
    24  N   -0.407880
    25  C    0.044370
    26  C   -0.108038
    27  C   -0.057304
    28  C    0.054588
    29  C    0.040997
    30  C   -0.057242
    31  C   -0.040866
    32  N   -0.481952
    33  C    0.164040
    34  C   -0.192019
    35  C   -0.021149
    36  C    0.159108
    37  C    0.078014
    38  C    0.119216
    39  O   -0.195687
    40  C   -0.105241
    41  C    0.298841
    42  O   -0.248271
    43  O   -0.391576
    44  C    0.148818
    45  H    0.012765
    46  H    0.019385
    47  H   -0.003982
    48  H    0.042084
    49  H    0.030348
    50  H    0.029243
    51  H    0.040762
    52  H    0.030162
    53  H    0.032307
    54  H    0.035167
    55  H    0.045675
    56  H    0.052887
    57  H    0.062676
    58  H    0.039817
    59  H    0.066641
    60  H    0.052640
    61  H    0.064109
    62  H    0.049544
    63  H    0.039635
    64  H    0.037244
    65  H    0.056804
    66  H    0.057703
    67  H    0.029213
    68  H    0.045822
    69  H    0.027643
    70  H    0.034223
    71  H    0.043666
    72  H    0.047111
    73  H    0.058365
    74  H    0.044670
    75  H    0.047025
    76  H    0.076308
    77  H    0.073369
    78  H    0.044940
    79  H    0.041555
    80  Mg   0.975159
    81  C   -0.037601
    82  C   -0.069438
    83  C   -0.071346
    84  C   -0.096968
    85  N   -0.382450
    86  C   -0.011819
    87  C   -0.026519
    88  C   -0.120754
    89  C    0.108580
    90  C   -0.013890
    91  C   -0.019357
    92  C   -0.122600
    93  H    0.028449
    94  N   -0.492102
    95  C    0.108148
    96  C   -0.136480
    97  C   -0.127855
    98  C    0.164613
    99  C    0.101142
   100  C    0.061446
   101  O   -0.206221
   102  C   -0.090030
   103  N   -0.339024
   104  C    0.031521
   105  C   -0.031247
   106  C   -0.109357
   107  C    0.025671
   108  C    0.021016
   109  C   -0.035429
   110  C   -0.029343
   111  N   -0.401191
   112  C    0.164190
   113  C   -0.243279
   114  C    0.013792
   115  C    0.136213
   116  C    0.096348
   117  C    0.119066
   118  O   -0.174550
   119  C   -0.118430
   120  C    0.285177
   121  O   -0.234474
   122  O   -0.386555
   123  C    0.128386
   124  H   -0.028194
   125  H    0.024667
   126  H    0.000680
   127  H    0.049270
   128  H    0.048191
   129  H    0.030134
   130  H    0.049007
   131  H    0.041860
   132  H    0.034343
   133  H    0.059580
   134  H    0.060113
   135  H    0.064044
   136  H    0.066147
   137  H    0.037158
   138  H    0.044920
   139  H    0.099577
   140  H    0.068376
   141  H    0.075601
   142  H    0.039343
   143  H    0.031344
   144  H    0.031839
   145  H    0.040277
   146  H    0.047419
   147  H    0.028473
   148  H    0.032985
   149  H    0.031209
   150  H    0.042538
   151  H    0.037413
   152  H    0.057994
   153  H    0.027197
   154  H    0.044417
   155  H    0.080618
   156  H    0.063535
   157  H    0.071957
   158  H    0.054601
 Sum of Mulliken charges =  -0.00000

 Dipole moment (field-independent basis, Debye):
    X=              2.7298    Y=             -0.8074    Z=              2.9798  Tot=              4.1210
 Quadrupole moment (field-independent basis, Debye-Ang):
   XX=           -552.7165   YY=           -485.0899   ZZ=           -490.7587
   XY=             10.2725   XZ=             16.0486   YZ=            -20.2867

 Normal termination of Gaussian 16 at Sun Sep 19 04:54:10 2021.
