 Gaussian 16, Revision A.03,
 Gaussian 16:  ES64L-G16RevA.03 25-Dec-2016

 --------------------------------
 #p wB97XD/Def2SVP td=(nstates=5)
 --------------------------------

 --------------------------------
 TDDFT excited states in gaussian
 --------------------------------
 Symbolic Z-matrix:
 Charge =  0 Multiplicity = 1

                         Standard orientation:
 ---------------------------------------------------------------------
 Center     Atomic      Atomic             Coordinates (Angstroms)
 Number     Number       Type             X           Y           Z
 ---------------------------------------------------------------------
      1         12           0       19.823260   -0.849485    0.286422
      2          6           0       19.258412    2.279998   -1.272837
      3          6           0       21.256524    0.981170    2.896605
      4          6           0       20.323177   -3.651460    1.923051
      5          6           0       19.118838   -2.445597   -2.721258
      6          7           0       20.158307    1.367690    0.725628
      7          6           0       19.721606    2.454344    0.030211
      8          6           0       20.062019    3.825327    0.639247
      9          6           0       20.831377    3.296929    1.953648
     10          6           0       20.742277    1.805780    1.816805
     11          6           0       22.346332    3.736561    2.041965
     12          6           0       18.794716    4.676806    0.976220
     13          6           0       18.404066    5.964950    0.262172
     14          1           0       17.744053    7.115104    1.011189
     15          7           0       20.602369   -1.305457    2.190136
     16          6           0       21.210546   -0.421929    3.093501
     17          6           0       21.743880   -1.214396    4.178912
     18          6           0       21.348784   -2.538565    4.005414
     19          6           0       20.676457   -2.536525    2.691522
     20          6           0       22.365103   -0.508131    5.335302
     21          6           0       21.611599   -3.791176    4.840626
     22          8           0       21.223186   -4.925709    4.546284
     23          6           0       22.253654   -3.596992    6.157637
     24          7           0       19.843659   -2.789651   -0.308261
     25          6           0       19.866363   -3.824593    0.585120
     26          6           0       19.337484   -5.145786   -0.069208
     27          6           0       19.079384   -4.732885   -1.512454
     28          6           0       19.435529   -3.220950   -1.558684
     29          6           0       20.290098   -6.369139    0.133579
     30          6           0       17.618615   -5.032394   -1.882036
     31          6           0       17.337236   -5.660432   -3.198478
     32          7           0       19.392292   -0.266713   -1.656287
     33          6           0       19.100377   -1.013743   -2.769407
     34          6           0       18.777107   -0.180030   -3.888383
     35          6           0       18.712506    1.201440   -3.360162
     36          6           0       19.099967    1.055137   -1.970108
     37          6           0       18.495269   -0.664680   -5.320872
     38          6           0       18.449052    2.634696   -3.644048
     39          8           0       17.972755    3.177694   -4.655315
     40          6           0       18.794119    3.369130   -2.283507
     41          6           0       19.865186    4.300849   -2.757930
     42          8           0       21.067660    4.091063   -2.861940
     43          8           0       19.383593    5.497083   -2.957822
     44          6           0       20.234039    6.537152   -3.585989
     45          1           0       21.528743    1.678525    3.691207
     46          1           0       20.476681   -4.651880    2.332195
     47          1           0       18.831915   -2.967777   -3.635987
     48          1           0       20.760495    4.321557   -0.035703
     49          1           0       20.395449    3.513303    2.929460
     50          1           0       22.809122    4.110718    1.129175
     51          1           0       22.958829    2.890850    2.352601
     52          1           0       22.433340    4.511856    2.803398
     53          1           0       18.892127    4.966867    2.022519
     54          1           0       17.894922    4.073284    0.863901
     55          1           0       17.607874    5.594701   -0.383822
     56          1           0       19.340243    6.236705   -0.225603
     57          1           0       21.821542   -0.688310    6.261735
     58          1           0       22.388329    0.569479    5.171120
     59          1           0       23.389989   -0.821617    5.531562
     60          1           0       21.731872   -2.810975    6.703700
     61          1           0       23.251738   -3.166467    6.075286
     62          1           0       22.230892   -4.474151    6.803514
     63          1           0       18.424579   -5.318579    0.500511
     64          1           0       19.665673   -5.336199   -2.205348
     65          1           0       21.107165   -6.189653    0.832201
     66          1           0       20.768189   -6.711133   -0.783590
     67          1           0       19.704682   -7.252013    0.389915
     68          1           0       17.162968   -4.043637   -1.847087
     69          1           0       17.104538   -5.706228   -1.197080
     70          1           0       16.626713   -4.985877   -3.675639
     71          1           0       17.009555   -6.691027   -3.062455
     72          1           0       18.177331   -5.667407   -3.893285
     73          1           0       19.430122   -0.678785   -5.879973
     74          1           0       17.760468    0.004523   -5.768201
     75          1           0       18.119839   -1.687976   -5.343142
     76          1           0       17.900110    3.919896   -1.991662
     77          1           0       21.131940    6.778419   -3.018129
     78          1           0       19.712026    7.468982   -3.802578
     79          1           0       20.613944    6.324006   -4.584691
     80         12           0      -20.256117   -0.568665    0.010284
     81          6           0      -17.665525    1.645542    0.531899
     82          6           0      -22.396166    1.920813    1.442270
     83          6           0      -22.741192   -2.681302   -0.109438
     84          6           0      -18.030297   -2.999813   -1.038741
     85          7           0      -19.964939    1.507256    1.092060
     86          6           0      -18.869577    2.234023    0.947524
     87          6           0      -19.165357    3.741393    1.188238
     88          6           0      -20.503417    3.623717    1.998605
     89          6           0      -21.043311    2.269207    1.512362
     90          6           0      -20.267799    3.651231    3.550688
     91          6           0      -19.325556    4.375053   -0.211627
     92          6           0      -19.481003    5.901159   -0.259221
     93          1           0      -19.724061    6.682861    1.016189
     94          7           0      -22.285173   -0.457865    0.449119
     95          6           0      -22.964908    0.682446    1.000111
     96          6           0      -24.385716    0.367391    0.940968
     97          6           0      -24.497473   -0.943501    0.380770
     98          6           0      -23.134995   -1.455333    0.240367
     99          6           0      -25.541489    1.346681    1.369174
    100          6           0      -25.812479   -1.683535   -0.032337
    101          8           0      -25.729675   -2.830488   -0.377102
    102          6           0      -27.132314   -0.986852    0.041305
    103          7           0      -20.382004   -2.556836   -0.596481
    104          6           0      -21.541483   -3.251779   -0.566196
    105          6           0      -21.377463   -4.717090   -0.968007
    106          6           0      -19.892017   -4.765566   -1.394785
    107          6           0      -19.390006   -3.324032   -0.976459
    108          6           0      -21.733476   -5.771915    0.143098
    109          6           0      -19.589110   -5.212008   -2.802370
    110          6           0      -20.365675   -4.639431   -4.012607
    111          7           0      -18.259350   -0.744895   -0.221928
    112          6           0      -17.475846   -1.772465   -0.663420
    113          6           0      -16.123726   -1.264913   -0.763488
    114          6           0      -16.107370    0.107012   -0.335147
    115          6           0      -17.467192    0.353728   -0.001199
    116          6           0      -14.956798   -2.077342   -1.231327
    117          6           0      -15.313603    1.256909   -0.058791
    118          8           0      -14.087242    1.485328   -0.143601
    119          6           0      -16.324984    2.207236    0.786237
    120          6           0      -16.018489    3.646034    0.367292
    121          8           0      -15.997461    4.046165   -0.733489
    122          8           0      -15.732268    4.360072    1.495940
    123          6           0      -15.763344    5.805778    1.412253
    124          1           0      -23.029775    2.657304    1.939930
    125          1           0      -23.524035   -3.442538   -0.122286
    126          1           0      -17.275114   -3.726065   -1.344043
    127          1           0      -18.418174    4.211846    1.827203
    128          1           0      -21.097672    4.458156    1.625437
    129          1           0      -20.557317    4.625550    3.942437
    130          1           0      -19.213062    3.442289    3.730528
    131          1           0      -20.886880    2.939877    4.097400
    132          1           0      -20.251419    3.988392   -0.636716
    133          1           0      -18.570328    4.018952   -0.911617
    134          1           0      -20.088259    6.244531   -1.097037
    135          1           0      -18.524470    6.252633   -0.646474
    136          1           0      -26.250394    0.878256    2.052558
    137          1           0      -25.996913    1.683972    0.438225
    138          1           0      -25.110239    2.248564    1.805281
    139          1           0      -27.697397   -1.500204   -0.736992
    140          1           0      -27.079602    0.050145   -0.288319
    141          1           0      -27.607888   -0.799491    1.003984
    142          1           0      -22.045913   -4.850395   -1.818304
    143          1           0      -19.281117   -5.386288   -0.739379
    144          1           0      -21.031587   -6.592982   -0.000407
    145          1           0      -22.749127   -6.059111   -0.129860
    146          1           0      -21.758735   -5.298272    1.124437
    147          1           0      -19.995677   -6.222217   -2.768389
    148          1           0      -18.544770   -5.221168   -3.116210
    149          1           0      -20.953641   -5.326346   -4.619888
    150          1           0      -19.686782   -4.266651   -4.779539
    151          1           0      -21.057475   -3.872979   -3.662924
    152          1           0      -14.089193   -1.425994   -1.129854
    153          1           0      -15.060731   -2.301922   -2.293714
    154          1           0      -14.854969   -3.057954   -0.767361
    155          1           0      -16.108908    1.981493    1.830689
    156          1           0      -14.757394    5.875958    1.826310
    157          1           0      -16.606035    6.258910    1.934841
    158          1           0      -15.744433    6.199175    0.395563
 ---------------------------------------------------------------------

 SCF Done:  E(RwB97XD) =  -4070.59995876     A.U. after   20 cycles

 Excitation energies and oscillator strengths:

 Excited State   1:      Singlet-A      1.6762 eV  739.66 nm  f=0.3748  <S**2>=0.000
     310 -> 315       -0.20177
     312 -> 314        0.67872
     310 <- 315       -0.12039
 This state for optimization and/or second-order correction.
 Total Energy, E(TD-HF/TD-DFT) =  -4070.53835877
 Copying the excited state density for this state as the 1-particle RhoCI density.

 Excited State   2:      Singlet-A      1.7235 eV  719.38 nm  f=0.3790  <S**2>=0.000
     309 -> 316        0.18637
     311 -> 313        0.68174
     309 <- 316        0.11197

 Excited State   3:      Singlet-A      2.1629 eV  573.24 nm  f=0.0850  <S**2>=0.000
     310 -> 314        0.63307
     312 -> 315        0.30170

 Excited State   4:      Singlet-A      2.1684 eV  571.77 nm  f=0.1064  <S**2>=0.000
     309 -> 313        0.63382
     311 -> 316       -0.29493

 Excited State   5:      Singlet-A      3.4475 eV  359.64 nm  f=0.0909  <S**2>=0.000
     299 -> 313       -0.10490
     303 -> 313        0.24604
     305 -> 313       -0.18310
     308 -> 313        0.57398
     311 -> 316       -0.18312

 The electronic state is 1-A.
 Alpha  occ. eigenvalues --  -46.94841 -46.94606 -19.30431 -19.29632 -19.25190
 Alpha  occ. eigenvalues --  -19.24654 -19.24129 -19.24065 -19.23846 -19.23075
 Alpha  occ. eigenvalues --  -14.47144 -14.46459 -14.46323 -14.46286 -14.44434
 Alpha  occ. eigenvalues --  -14.43900 -14.43896 -14.43518 -10.42774 -10.42420
 Alpha  occ. eigenvalues --  -10.39981 -10.39403 -10.39195 -10.39141 -10.35722
 Alpha  occ. eigenvalues --  -10.35646 -10.35439 -10.35254 -10.35206 -10.34865
 Alpha  occ. eigenvalues --  -10.34840 -10.34742 -10.34629 -10.34581 -10.34464
 Alpha  occ. eigenvalues --  -10.34440 -10.34306 -10.33678 -10.33636 -10.33375
 Alpha  occ. eigenvalues --  -10.33084 -10.32956 -10.32795 -10.32786 -10.32747
 Alpha  occ. eigenvalues --  -10.32743 -10.32683 -10.32619 -10.32573 -10.32332
 Alpha  occ. eigenvalues --  -10.32190 -10.32153 -10.32114 -10.31994 -10.31979
 Alpha  occ. eigenvalues --  -10.31845 -10.31801 -10.31766 -10.31727 -10.31721
 Alpha  occ. eigenvalues --  -10.31700 -10.31619 -10.31542 -10.31502 -10.31033
 Alpha  occ. eigenvalues --  -10.30967 -10.30703 -10.30582 -10.30517 -10.30399
 Alpha  occ. eigenvalues --  -10.30394 -10.30384 -10.30293 -10.30127 -10.30112
 Alpha  occ. eigenvalues --  -10.30051 -10.29872 -10.29848 -10.29703 -10.29702
 Alpha  occ. eigenvalues --  -10.29672 -10.29417 -10.29085 -10.29068 -10.28926
 Alpha  occ. eigenvalues --  -10.28612  -3.20870  -3.20671  -1.94461  -1.94263
 Alpha  occ. eigenvalues --   -1.93995  -1.93847  -1.93814  -1.93631  -1.19917
 Alpha  occ. eigenvalues --   -1.19785  -1.13696  -1.12335  -1.12017  -1.10541
 Alpha  occ. eigenvalues --   -1.10289  -1.08603  -1.07462  -1.07220  -1.06086
 Alpha  occ. eigenvalues --   -1.06084  -1.05109  -1.04749  -1.04088  -1.03301
 Alpha  occ. eigenvalues --   -0.95039  -0.93740  -0.91454  -0.91208  -0.90928
 Alpha  occ. eigenvalues --   -0.90660  -0.90592  -0.90390  -0.89674  -0.89244
 Alpha  occ. eigenvalues --   -0.88649  -0.88396  -0.87593  -0.87011  -0.86176
 Alpha  occ. eigenvalues --   -0.85983  -0.85609  -0.85325  -0.84739  -0.84639
 Alpha  occ. eigenvalues --   -0.84316  -0.83652  -0.83374  -0.82729  -0.82465
 Alpha  occ. eigenvalues --   -0.82245  -0.80762  -0.79937  -0.79377  -0.79263
 Alpha  occ. eigenvalues --   -0.78741  -0.78732  -0.78053  -0.77822  -0.77437
 Alpha  occ. eigenvalues --   -0.77094  -0.74677  -0.74159  -0.73981  -0.73772
 Alpha  occ. eigenvalues --   -0.72171  -0.71195  -0.70862  -0.70081  -0.70080
 Alpha  occ. eigenvalues --   -0.69560  -0.68937  -0.68181  -0.67738  -0.67161
 Alpha  occ. eigenvalues --   -0.67154  -0.66859  -0.66842  -0.66279  -0.66161
 Alpha  occ. eigenvalues --   -0.66123  -0.64348  -0.64332  -0.62984  -0.62476
 Alpha  occ. eigenvalues --   -0.61625  -0.61453  -0.61143  -0.60906  -0.60821
 Alpha  occ. eigenvalues --   -0.60430  -0.60153  -0.59876  -0.59741  -0.59609
 Alpha  occ. eigenvalues --   -0.58715  -0.58120  -0.58100  -0.57633  -0.57509
 Alpha  occ. eigenvalues --   -0.57279  -0.56898  -0.56192  -0.56180  -0.56089
 Alpha  occ. eigenvalues --   -0.55732  -0.55623  -0.55519  -0.55462  -0.54894
 Alpha  occ. eigenvalues --   -0.54874  -0.54553  -0.54457  -0.54311  -0.54201
 Alpha  occ. eigenvalues --   -0.54018  -0.53999  -0.53709  -0.53318  -0.52711
 Alpha  occ. eigenvalues --   -0.52643  -0.52523  -0.52379  -0.52061  -0.51941
 Alpha  occ. eigenvalues --   -0.51903  -0.51830  -0.51637  -0.51617  -0.51490
 Alpha  occ. eigenvalues --   -0.51358  -0.51248  -0.51209  -0.51013  -0.50749
 Alpha  occ. eigenvalues --   -0.50562  -0.50425  -0.50176  -0.50089  -0.50075
 Alpha  occ. eigenvalues --   -0.49981  -0.49896  -0.49699  -0.49559  -0.49299
 Alpha  occ. eigenvalues --   -0.48818  -0.48544  -0.48532  -0.48464  -0.48230
 Alpha  occ. eigenvalues --   -0.47975  -0.47916  -0.47753  -0.47734  -0.47534
 Alpha  occ. eigenvalues --   -0.47494  -0.47361  -0.47164  -0.47030  -0.46940
 Alpha  occ. eigenvalues --   -0.46937  -0.46615  -0.46519  -0.46268  -0.46170
 Alpha  occ. eigenvalues --   -0.45899  -0.45793  -0.45289  -0.45201  -0.45139
 Alpha  occ. eigenvalues --   -0.44971  -0.44907  -0.44849  -0.44716  -0.44626
 Alpha  occ. eigenvalues --   -0.44264  -0.44247  -0.44050  -0.43949  -0.43941
 Alpha  occ. eigenvalues --   -0.43786  -0.43594  -0.43571  -0.43334  -0.43268
 Alpha  occ. eigenvalues --   -0.43116  -0.42850  -0.42666  -0.42286  -0.42114
 Alpha  occ. eigenvalues --   -0.41938  -0.41697  -0.41493  -0.41374  -0.41321
 Alpha  occ. eigenvalues --   -0.40317  -0.40294  -0.39854  -0.39840  -0.39561
 Alpha  occ. eigenvalues --   -0.39245  -0.39166  -0.38671  -0.38378  -0.38333
 Alpha  occ. eigenvalues --   -0.37754  -0.37741  -0.37176  -0.36384  -0.35942
 Alpha  occ. eigenvalues --   -0.35570  -0.35491  -0.35114  -0.34098  -0.33793
 Alpha  occ. eigenvalues --   -0.33666  -0.33019  -0.32575  -0.32502  -0.32455
 Alpha  occ. eigenvalues --   -0.32019  -0.31507  -0.30793  -0.25830  -0.25729
 Alpha  occ. eigenvalues --   -0.22979  -0.22902
 Alpha virt. eigenvalues --   -0.06830  -0.06787   0.00027   0.00089   0.01885
 Alpha virt. eigenvalues --    0.02239   0.04199   0.04717   0.05812   0.06107
 Alpha virt. eigenvalues --    0.07732   0.08002   0.08225   0.08371   0.08507

 Mulliken charges:
               1
     1  Mg   0.972638
     2  C    0.039499
     3  C   -0.094895
     4  C   -0.084742
     5  C   -0.089114
     6  N   -0.280150
     7  C   -0.033628
     8  C   -0.039445
     9  C   -0.125352
    10  C    0.009646
    11  C    0.001879
    12  C   -0.006481
    13  C   -0.125687
    14  H    0.045903
    15  N   -0.445406
    16  C    0.189298
    17  C   -0.135331
    18  C   -0.078198
    19  C    0.174056
    20  C    0.050642
    21  C    0.084302
    22  O   -0.232488
    23  C   -0.006928
    24  N   -0.424753
    25  C    0.030672
    26  C   -0.065413
    27  C   -0.064772
    28  C    0.113719
    29  C    0.012669
    30  C   -0.040750
    31  C   -0.047842
    32  N   -0.454847
    33  C    0.145954
    34  C   -0.198948
    35  C   -0.045472
    36  C    0.123139
    37  C    0.077705
    38  C    0.112876
    39  O   -0.226498
    40  C   -0.112893
    41  C    0.233134
    42  O   -0.268695
    43  O   -0.310177
    44  C    0.148284
    45  H    0.001866
    46  H    0.016036
    47  H   -0.006126
    48  H    0.060596
    49  H    0.045625
    50  H    0.052666
    51  H    0.037757
    52  H    0.037470
    53  H    0.038507
    54  H    0.032796
    55  H    0.062126
    56  H    0.051813
    57  H    0.054631
    58  H    0.035455
    59  H    0.048322
    60  H    0.039680
    61  H    0.049817
    62  H    0.061257
    63  H    0.054005
    64  H    0.031645
    65  H    0.057251
    66  H    0.025239
    67  H    0.035160
    68  H    0.036587
    69  H    0.031274
    70  H    0.037314
    71  H    0.043611
    72  H    0.025439
    73  H    0.056321
    74  H    0.061445
    75  H    0.025358
    76  H    0.075669
    77  H    0.050723
    78  H    0.052473
    79  H    0.053085
    80  Mg   0.965851
    81  C   -0.025660
    82  C   -0.077156
    83  C   -0.087994
    84  C   -0.117718
    85  N   -0.288266
    86  C   -0.035857
    87  C   -0.084348
    88  C   -0.089563
    89  C    0.019637
    90  C    0.040478
    91  C    0.000367
    92  C   -0.089385
    93  H    0.044103
    94  N   -0.478780
    95  C    0.175873
    96  C   -0.189390
    97  C   -0.081125
    98  C    0.188829
    99  C    0.062425
   100  C    0.064867
   101  O   -0.213710
   102  C   -0.007318
   103  N   -0.341982
   104  C    0.014311
   105  C   -0.099236
   106  C   -0.054339
   107  C    0.091294
   108  C    0.035504
   109  C   -0.009978
   110  C   -0.072570
   111  N   -0.486656
   112  C    0.144579
   113  C   -0.184389
   114  C   -0.031078
   115  C    0.180593
   116  C    0.067873
   117  C    0.153425
   118  O   -0.233720
   119  C   -0.147827
   120  C    0.243120
   121  O   -0.185854
   122  O   -0.368665
   123  C    0.110514
   124  H    0.003768
   125  H    0.009636
   126  H   -0.005482
   127  H    0.019535
   128  H    0.022937
   129  H    0.039824
   130  H    0.043867
   131  H    0.040344
   132  H    0.025785
   133  H    0.065939
   134  H    0.042750
   135  H    0.038175
   136  H    0.059032
   137  H    0.057785
   138  H    0.030217
   139  H    0.058169
   140  H    0.020576
   141  H    0.069265
   142  H    0.047943
   143  H    0.031219
   144  H    0.046313
   145  H    0.047902
   146  H    0.054213
   147  H    0.029211
   148  H    0.040710
   149  H    0.032785
   150  H    0.032915
   151  H    0.039566
   152  H    0.062291
   153  H    0.042987
   154  H    0.047399
   155  H    0.085700
   156  H    0.070090
   157  H    0.062603
   158  H    0.062953
 Sum of Mulliken charges =  -0.00000

 Dipole moment (field-independent basis, Debye):
    X=             -3.3883    Y=              0.8703    Z=              6.1723  Tot=              7.0947
 Quadrupole moment (field-independent basis, Debye-Ang):
   XX=           -332.7456   YY=           -466.0296   ZZ=           -501.5272
   XY=            -20.8089   XZ=             87.6757   YZ=             42.5674

 Normal termination of Gaussian 16 at Mon Sep 20 12:52:11 2021.
