 Gaussian 16, Revision A.03,
 Gaussian 16:  ES64L-G16RevA.03 25-Dec-2016

 --------------------------------
 #p wB97XD/Def2SVP td=(nstates=5)
 --------------------------------

 --------------------------------
 TDDFT excited states in gaussian
 --------------------------------
 Symbolic Z-matrix:
 Charge =  0 Multiplicity = 1

                         Standard orientation:
 ---------------------------------------------------------------------
 Center     Atomic      Atomic             Coordinates (Angstroms)
 Number     Number       Type             X           Y           Z
 ---------------------------------------------------------------------
      1         12           0       25.513034   -0.524229    0.265352
      2          6           0       24.071108    2.751418    0.474995
      3          6           0       26.665559    0.315733   -2.874342
      4          6           0       26.256585   -3.679832   -0.140248
      5          6           0       24.060953   -1.181627    3.342644
      6          7           0       25.133612    1.290201   -1.200653
      7          6           0       24.623648    2.490493   -0.785502
      8          6           0       24.961104    3.585988   -1.832122
      9          6           0       25.751714    2.794677   -2.956432
     10          6           0       25.869995    1.344238   -2.361281
     11          6           0       25.118038    2.740023   -4.409931
     12          6           0       25.786790    4.783861   -1.291611
     13          6           0       25.365460    6.153267   -1.690689
     14          1           0       24.440773    6.452309   -2.931946
     15          7           0       26.360745   -1.604657   -1.325107
     16          6           0       26.904749   -1.081820   -2.498010
     17          6           0       27.418827   -2.193572   -3.320706
     18          6           0       27.398660   -3.354732   -2.456231
     19          6           0       26.649836   -2.919446   -1.254455
     20          6           0       27.930203   -2.088498   -4.725579
     21          6           0       27.958058   -4.782450   -2.660034
     22          8           0       28.156820   -5.610768   -1.746428
     23          6           0       28.450460   -5.133954   -4.006162
     24          7           0       25.147041   -2.133052    1.390030
     25          6           0       25.522135   -3.379106    0.937916
     26          6           0       25.378055   -4.448445    2.056035
     27          6           0       25.009585   -3.527602    3.302299
     28          6           0       24.731419   -2.181282    2.656563
     29          6           0       24.360544   -5.639248    1.825968
     30          6           0       26.053021   -3.400657    4.400921
     31          6           0       25.657950   -3.995612    5.768772
     32          7           0       24.476425    0.583002    1.737879
     33          6           0       23.925166    0.164238    2.925687
     34          6           0       23.182364    1.266554    3.550521
     35          6           0       23.280157    2.298010    2.633510
     36          6           0       24.067758    1.844663    1.551818
     37          6           0       22.417409    1.280151    4.832694
     38          6           0       22.897730    3.651526    2.447904
     39          8           0       22.323286    4.482404    3.207626
     40          6           0       23.364340    3.996792    1.097409
     41          6           0       22.230157    4.560582    0.284899
     42          8           0       21.307741    3.943138   -0.125643
     43          8           0       22.450116    5.850695    0.032519
     44          6           0       21.382912    6.661564   -0.447138
     45          1           0       27.056078    0.493295   -3.878705
     46          1           0       26.484238   -4.748373   -0.115573
     47          1           0       23.543001   -1.422445    4.272460
     48          1           0       24.001078    3.952546   -2.197441
     49          1           0       26.758539    3.199161   -3.055897
     50          1           0       24.253459    3.384421   -4.566688
     51          1           0       24.737680    1.726688   -4.546698
     52          1           0       25.881474    2.927699   -5.165553
     53          1           0       26.833619    4.748196   -1.595491
     54          1           0       25.789021    4.837224   -0.203300
     55          1           0       26.242533    6.744640   -1.955340
     56          1           0       24.889450    6.609154   -0.822982
     57          1           0       27.395408   -2.796160   -5.358696
     58          1           0       28.981215   -2.375159   -4.689391
     59          1           0       27.966354   -1.052204   -5.063155
     60          1           0       27.600518   -5.089984   -4.687236
     61          1           0       28.750526   -6.179348   -3.938133
     62          1           0       29.341698   -4.568792   -4.277547
     63          1           0       26.382926   -4.844011    2.207303
     64          1           0       24.108699   -3.950078    3.747181
     65          1           0       23.882811   -5.540925    0.851840
     66          1           0       23.653231   -5.763239    2.646885
     67          1           0       24.937251   -6.563607    1.862372
     68          1           0       26.493890   -2.414125    4.544762
     69          1           0       26.910343   -3.993963    4.084726
     70          1           0       25.889770   -3.400898    6.652104
     71          1           0       26.330258   -4.835368    5.946635
     72          1           0       24.610098   -4.273291    5.874501
     73          1           0       22.687581    0.454022    5.491056
     74          1           0       21.365229    1.069832    4.641450
     75          1           0       22.495588    2.293336    5.226766
     76          1           0       24.133468    4.756342    1.235023
     77          1           0       20.724389    6.831463    0.405840
     78          1           0       20.768777    6.114845   -1.162860
     79          1           0       21.745937    7.634023   -0.780819
     80         12           0      -24.771715   -0.983024   -0.129267
     81          6           0      -26.326872    2.211449    0.773082
     82          6           0      -22.673077    0.874698   -2.231771
     83          6           0      -23.574423   -3.800200   -1.250692
     84          6           0      -26.807909   -2.571336    2.127524
     85          7           0      -24.668195    1.222205   -0.814727
     86          6           0      -25.308546    2.392670   -0.227475
     87          6           0      -24.874614    3.727890   -0.869431
     88          6           0      -23.825029    3.153548   -1.987019
     89          6           0      -23.691292    1.643984   -1.706134
     90          6           0      -24.226850    3.458251   -3.417055
     91          6           0      -24.312278    4.699817    0.211614
     92          6           0      -23.589018    5.901158   -0.318632
     93          1           0      -23.846207    7.261799    0.289793
     94          7           0      -23.319306   -1.445178   -1.581233
     95          6           0      -22.553712   -0.551526   -2.338754
     96          6           0      -21.616515   -1.295454   -3.178349
     97          6           0      -21.857749   -2.703316   -2.901467
     98          6           0      -22.957819   -2.737674   -1.868138
     99          6           0      -20.520325   -0.645839   -4.100225
    100          6           0      -21.263540   -3.935884   -3.481710
    101          8           0      -21.536215   -5.077153   -3.134001
    102          6           0      -20.179810   -3.835432   -4.473581
    103          7           0      -25.057822   -2.850694    0.412001
    104          6           0      -24.549732   -3.878404   -0.270608
    105          6           0      -24.986629   -5.248444    0.298983
    106          6           0      -25.629389   -4.827484    1.604239
    107          6           0      -25.925301   -3.296925    1.360412
    108          6           0      -25.939162   -6.006062   -0.618746
    109          6           0      -24.968011   -5.024729    2.943678
    110          6           0      -23.677586   -4.253382    3.120741
    111          7           0      -26.327299   -0.378539    1.116731
    112          6           0      -27.002034   -1.162874    2.069624
    113          6           0      -27.942534   -0.329714    2.777550
    114          6           0      -27.610308    0.969743    2.315385
    115          6           0      -26.638277    0.903813    1.298993
    116          6           0      -28.878001   -0.707261    3.888814
    117          6           0      -27.951543    2.402947    2.573444
    118          8           0      -28.669499    2.928117    3.451099
    119          6           0      -27.147566    3.208278    1.555117
    120          6           0      -28.085621    4.084040    0.721806
    121          8           0      -29.003720    3.759328   -0.087844
    122          8           0      -27.667760    5.372356    0.879909
    123          6           0      -28.395934    6.386282    0.083936
    124          1           0      -21.897642    1.465041   -2.722383
    125          1           0      -23.234402   -4.755502   -1.655835
    126          1           0      -27.504577   -3.011859    2.843958
    127          1           0      -25.797760    4.179250   -1.232872
    128          1           0      -22.827763    3.528718   -1.757128
    129          1           0      -23.426248    4.030761   -3.886299
    130          1           0      -25.122457    4.075661   -3.357623
    131          1           0      -24.651662    2.645466   -4.005741
    132          1           0      -23.746749    4.071546    0.900641
    133          1           0      -25.144193    5.061808    0.815875
    134          1           0      -23.748358    6.152062   -1.367073
    135          1           0      -22.521307    5.784396   -0.135239
    136          1           0      -19.572817   -0.991633   -3.685987
    137          1           0      -20.530733    0.443908   -4.085647
    138          1           0      -20.701215   -1.032879   -5.103092
    139          1           0      -20.350420   -3.077175   -5.238083
    140          1           0      -20.165817   -4.822447   -4.934529
    141          1           0      -19.337427   -3.454758   -3.896820
    142          1           0      -24.082073   -5.844354    0.421043
    143          1           0      -26.573553   -5.343441    1.780973
    144          1           0      -25.664510   -7.060178   -0.605563
    145          1           0      -25.871487   -5.643919   -1.644045
    146          1           0      -26.946263   -6.004433   -0.200249
    147          1           0      -24.859319   -6.097219    3.107412
    148          1           0      -25.571118   -4.595366    3.743512
    149          1           0      -22.888479   -4.870139    3.549316
    150          1           0      -23.774538   -3.425400    3.823342
    151          1           0      -23.263604   -3.851387    2.195929
    152          1           0      -28.730139   -0.036120    4.734514
    153          1           0      -28.864916   -1.711988    4.311179
    154          1           0      -29.890221   -0.568221    3.508528
    155          1           0      -26.514443    3.907853    2.101619
    156          1           0      -27.811703    6.651320   -0.797028
    157          1           0      -28.509680    7.149128    0.854163
    158          1           0      -29.414143    6.076416   -0.154769
 ---------------------------------------------------------------------

 SCF Done:  E(RwB97XD) =  -4070.61532089     A.U. after   19 cycles

 Excitation energies and oscillator strengths:

 Excited State   1:      Singlet-A      1.6109 eV  769.64 nm  f=0.3987  <S**2>=0.000
     309 -> 315       -0.17049
     311 -> 313        0.68653
     309 <- 315       -0.11383
 This state for optimization and/or second-order correction.
 Total Energy, E(TD-HF/TD-DFT) =  -4070.55612015
 Copying the excited state density for this state as the 1-particle RhoCI density.

 Excited State   2:      Singlet-A      1.6707 eV  742.09 nm  f=0.4195  <S**2>=0.000
     310 -> 316        0.18115
     312 -> 314        0.68457
     310 <- 316        0.11413

 Excited State   3:      Singlet-A      2.1162 eV  585.89 nm  f=0.1330  <S**2>=0.000
     309 -> 313        0.64978
     311 -> 315        0.25752

 Excited State   4:      Singlet-A      2.1575 eV  574.66 nm  f=0.1259  <S**2>=0.000
     310 -> 314        0.64763
     312 -> 316       -0.26957

 Excited State   5:      Singlet-A      3.2645 eV  379.80 nm  f=0.0056  <S**2>=0.000
     305 -> 313       -0.31834
     308 -> 313        0.60969

 The electronic state is 1-A.
 Alpha  occ. eigenvalues --  -46.95274 -46.94100 -19.30975 -19.30272 -19.24640
 Alpha  occ. eigenvalues --  -19.24600 -19.24215 -19.23848 -19.23541 -19.23484
 Alpha  occ. eigenvalues --  -14.47140 -14.46771 -14.46683 -14.46246 -14.44608
 Alpha  occ. eigenvalues --  -14.44358 -14.44125 -14.43418 -10.43816 -10.42940
 Alpha  occ. eigenvalues --  -10.38891 -10.38820 -10.38732 -10.38637 -10.36007
 Alpha  occ. eigenvalues --  -10.35803 -10.35636 -10.35570 -10.35510 -10.35282
 Alpha  occ. eigenvalues --  -10.35149 -10.35102 -10.34962 -10.34796 -10.34739
 Alpha  occ. eigenvalues --  -10.34701 -10.34591 -10.34144 -10.33683 -10.33498
 Alpha  occ. eigenvalues --  -10.33407 -10.33207 -10.33026 -10.33019 -10.32986
 Alpha  occ. eigenvalues --  -10.32905 -10.32873 -10.32830 -10.32616 -10.32594
 Alpha  occ. eigenvalues --  -10.32587 -10.32574 -10.32441 -10.32386 -10.32332
 Alpha  occ. eigenvalues --  -10.32326 -10.32195 -10.31631 -10.31610 -10.31587
 Alpha  occ. eigenvalues --  -10.31558 -10.31413 -10.31274 -10.31102 -10.31003
 Alpha  occ. eigenvalues --  -10.30987 -10.30888 -10.30815 -10.30782 -10.30745
 Alpha  occ. eigenvalues --  -10.30446 -10.30173 -10.30137 -10.29792 -10.29786
 Alpha  occ. eigenvalues --  -10.29782 -10.29760 -10.29730 -10.29551 -10.29481
 Alpha  occ. eigenvalues --  -10.29416 -10.29341 -10.29301 -10.29182 -10.28691
 Alpha  occ. eigenvalues --  -10.28357  -3.21295  -3.20256  -1.94866  -1.94429
 Alpha  occ. eigenvalues --   -1.94264  -1.93856  -1.93392  -1.93234  -1.20860
 Alpha  occ. eigenvalues --   -1.18173  -1.12645  -1.11961  -1.10477  -1.10406
 Alpha  occ. eigenvalues --   -1.09986  -1.07943  -1.07049  -1.06939  -1.05832
 Alpha  occ. eigenvalues --   -1.04800  -1.04536  -1.04350  -1.03797  -1.02608
 Alpha  occ. eigenvalues --   -0.95667  -0.94244  -0.91546  -0.91059  -0.90816
 Alpha  occ. eigenvalues --   -0.90553  -0.90435  -0.90269  -0.89766  -0.89258
 Alpha  occ. eigenvalues --   -0.88990  -0.88794  -0.88235  -0.87789  -0.86671
 Alpha  occ. eigenvalues --   -0.86550  -0.85923  -0.85426  -0.84855  -0.84544
 Alpha  occ. eigenvalues --   -0.84274  -0.83988  -0.83681  -0.83362  -0.82503
 Alpha  occ. eigenvalues --   -0.82037  -0.80522  -0.80274  -0.79694  -0.79181
 Alpha  occ. eigenvalues --   -0.79118  -0.78703  -0.78302  -0.77883  -0.77443
 Alpha  occ. eigenvalues --   -0.77145  -0.75219  -0.74730  -0.73914  -0.73499
 Alpha  occ. eigenvalues --   -0.72207  -0.71410  -0.71401  -0.70961  -0.69621
 Alpha  occ. eigenvalues --   -0.69463  -0.69162  -0.68235  -0.67876  -0.67036
 Alpha  occ. eigenvalues --   -0.66896  -0.66852  -0.66655  -0.66494  -0.66270
 Alpha  occ. eigenvalues --   -0.65800  -0.65061  -0.63909  -0.62340  -0.62243
 Alpha  occ. eigenvalues --   -0.61911  -0.61332  -0.61168  -0.61143  -0.61073
 Alpha  occ. eigenvalues --   -0.60287  -0.60219  -0.59763  -0.59666  -0.59384
 Alpha  occ. eigenvalues --   -0.58460  -0.58296  -0.58113  -0.57863  -0.57455
 Alpha  occ. eigenvalues --   -0.57215  -0.57161  -0.56923  -0.56710  -0.56227
 Alpha  occ. eigenvalues --   -0.55729  -0.55427  -0.55361  -0.55255  -0.55035
 Alpha  occ. eigenvalues --   -0.54946  -0.54698  -0.54695  -0.54393  -0.54381
 Alpha  occ. eigenvalues --   -0.54086  -0.53672  -0.53526  -0.53443  -0.53074
 Alpha  occ. eigenvalues --   -0.53062  -0.52793  -0.52698  -0.52290  -0.52095
 Alpha  occ. eigenvalues --   -0.52055  -0.51973  -0.51817  -0.51691  -0.51520
 Alpha  occ. eigenvalues --   -0.51289  -0.51034  -0.50744  -0.50722  -0.50718
 Alpha  occ. eigenvalues --   -0.50564  -0.50535  -0.50416  -0.50237  -0.50172
 Alpha  occ. eigenvalues --   -0.50027  -0.49658  -0.49643  -0.49536  -0.49363
 Alpha  occ. eigenvalues --   -0.48918  -0.48887  -0.48729  -0.48691  -0.48430
 Alpha  occ. eigenvalues --   -0.48193  -0.48098  -0.48084  -0.48010  -0.47926
 Alpha  occ. eigenvalues --   -0.47780  -0.47581  -0.47377  -0.47211  -0.46820
 Alpha  occ. eigenvalues --   -0.46776  -0.46528  -0.46468  -0.46448  -0.46263
 Alpha  occ. eigenvalues --   -0.46103  -0.45849  -0.45651  -0.45386  -0.45377
 Alpha  occ. eigenvalues --   -0.45151  -0.44926  -0.44614  -0.44593  -0.44544
 Alpha  occ. eigenvalues --   -0.44458  -0.44161  -0.44119  -0.43861  -0.43840
 Alpha  occ. eigenvalues --   -0.43718  -0.43574  -0.43430  -0.43224  -0.43158
 Alpha  occ. eigenvalues --   -0.42916  -0.42820  -0.42393  -0.42205  -0.42020
 Alpha  occ. eigenvalues --   -0.41872  -0.41595  -0.41148  -0.41054  -0.40992
 Alpha  occ. eigenvalues --   -0.40790  -0.40106  -0.39868  -0.39304  -0.39135
 Alpha  occ. eigenvalues --   -0.39121  -0.38785  -0.38598  -0.38472  -0.38280
 Alpha  occ. eigenvalues --   -0.38103  -0.37787  -0.36695  -0.36296  -0.36144
 Alpha  occ. eigenvalues --   -0.36056  -0.35293  -0.35184  -0.33744  -0.33720
 Alpha  occ. eigenvalues --   -0.33594  -0.33252  -0.32889  -0.32628  -0.32582
 Alpha  occ. eigenvalues --   -0.32286  -0.31616  -0.31286  -0.26175  -0.26070
 Alpha  occ. eigenvalues --   -0.23277  -0.23138
 Alpha virt. eigenvalues --   -0.07645  -0.07309   0.00262   0.00425   0.01824
 Alpha virt. eigenvalues --    0.02378   0.04097   0.04305   0.05378   0.06262
 Alpha virt. eigenvalues --    0.06691   0.07701   0.07789   0.08324   0.08456

 Mulliken charges:
               1
     1  Mg   0.968223
     2  C   -0.020878
     3  C   -0.037277
     4  C   -0.068947
     5  C   -0.100274
     6  N   -0.318813
     7  C   -0.004743
     8  C   -0.025702
     9  C   -0.108395
    10  C    0.038783
    11  C    0.011074
    12  C    0.007138
    13  C   -0.131873
    14  H    0.014306
    15  N   -0.444876
    16  C    0.109601
    17  C   -0.188412
    18  C   -0.082191
    19  C    0.150453
    20  C    0.090862
    21  C    0.056732
    22  O   -0.260056
    23  C   -0.010118
    24  N   -0.428891
    25  C    0.096557
    26  C   -0.123019
    27  C   -0.081928
    28  C    0.106301
    29  C    0.027993
    30  C    0.012418
    31  C   -0.064938
    32  N   -0.411494
    33  C    0.113973
    34  C   -0.170931
    35  C   -0.051450
    36  C    0.143858
    37  C    0.088561
    38  C    0.114915
    39  O   -0.251365
    40  C   -0.028948
    41  C    0.225693
    42  O   -0.205823
    43  O   -0.332397
    44  C    0.138728
    45  H   -0.013849
    46  H    0.020121
    47  H   -0.001515
    48  H    0.046093
    49  H    0.041926
    50  H    0.041052
    51  H    0.040354
    52  H    0.039992
    53  H    0.033347
    54  H    0.031239
    55  H    0.045761
    56  H    0.057638
    57  H    0.058248
    58  H    0.041411
    59  H    0.035354
    60  H    0.054130
    61  H    0.046935
    62  H    0.066219
    63  H    0.046356
    64  H    0.023291
    65  H    0.051605
    66  H    0.034834
    67  H    0.038274
    68  H    0.040942
    69  H    0.022570
    70  H    0.029656
    71  H    0.032311
    72  H    0.037082
    73  H    0.030961
    74  H    0.058200
    75  H    0.072579
    76  H    0.069305
    77  H    0.047659
    78  H    0.056333
    79  H    0.061160
    80  Mg   0.975130
    81  C   -0.025854
    82  C   -0.091595
    83  C   -0.091505
    84  C   -0.077693
    85  N   -0.366156
    86  C   -0.005738
    87  C   -0.064874
    88  C   -0.111846
    89  C    0.088808
    90  C    0.051909
    91  C   -0.005915
    92  C   -0.128103
    93  H    0.029133
    94  N   -0.467471
    95  C    0.163094
    96  C   -0.170408
    97  C   -0.057398
    98  C    0.152352
    99  C    0.067302
   100  C    0.022113
   101  O   -0.243514
   102  C    0.001722
   103  N   -0.422608
   104  C    0.103980
   105  C   -0.088158
   106  C   -0.066141
   107  C    0.109826
   108  C    0.042979
   109  C    0.010266
   110  C   -0.067781
   111  N   -0.449560
   112  C    0.078862
   113  C   -0.151460
   114  C   -0.101668
   115  C    0.167276
   116  C    0.064791
   117  C    0.158604
   118  O   -0.236423
   119  C   -0.063670
   120  C    0.279101
   121  O   -0.286792
   122  O   -0.366323
   123  C    0.125382
   124  H   -0.007300
   125  H    0.021594
   126  H    0.001290
   127  H    0.052029
   128  H    0.035116
   129  H    0.045592
   130  H    0.021886
   131  H    0.048107
   132  H    0.034825
   133  H    0.058213
   134  H    0.052509
   135  H    0.055239
   136  H    0.061418
   137  H    0.044208
   138  H    0.067010
   139  H    0.027231
   140  H    0.066582
   141  H    0.059806
   142  H    0.041436
   143  H    0.013863
   144  H    0.035651
   145  H    0.048280
   146  H    0.036540
   147  H    0.035158
   148  H    0.029065
   149  H    0.029070
   150  H    0.034951
   151  H    0.040789
   152  H    0.061481
   153  H    0.026460
   154  H    0.055486
   155  H    0.079618
   156  H    0.065858
   157  H    0.060817
   158  H    0.076143
 Sum of Mulliken charges =  -0.00000

 Dipole moment (field-independent basis, Debye):
    X=              7.2932    Y=              1.2329    Z=             -3.7652  Tot=              8.2998
 Quadrupole moment (field-independent basis, Debye-Ang):
   XX=           -648.9110   YY=           -496.3710   ZZ=           -483.6742
   XY=             34.6500   XZ=             27.0085   YZ=            -48.9319

 Normal termination of Gaussian 16 at Mon Sep 20 09:05:26 2021.
