 Gaussian 16, Revision A.03,
 Gaussian 16:  ES64L-G16RevA.03 25-Dec-2016

 --------------------------------
 #p wB97XD/Def2SVP td=(nstates=5)
 --------------------------------

 --------------------------------
 TDDFT excited states in gaussian
 --------------------------------
 Symbolic Z-matrix:
 Charge =  0 Multiplicity = 1

                         Standard orientation:
 ---------------------------------------------------------------------
 Center     Atomic      Atomic             Coordinates (Angstroms)
 Number     Number       Type             X           Y           Z
 ---------------------------------------------------------------------
      1         12           0      -29.303394   -0.212419    0.007319
      2          6           0      -26.058731    0.039347   -0.992065
      3          6           0      -28.184160   -2.102874    2.691110
      4          6           0      -32.444218   -0.135094    1.191314
      5          6           0      -30.233351    2.241073   -2.338172
      6          7           0      -27.293023   -0.725066    0.894771
      7          6           0      -26.131864   -0.526872    0.239176
      8          6           0      -24.951523   -0.966541    1.025855
      9          6           0      -25.708426   -2.015207    2.055369
     10          6           0      -27.188043   -1.608294    1.892026
     11          6           0      -25.395002   -3.507009    1.737114
     12          6           0      -24.345409    0.224402    1.751143
     13          6           0      -25.269733    1.108118    2.710522
     14          1           0      -24.729011    1.629547    4.036089
     15          7           0      -30.195952   -0.997692    1.692009
     16          6           0      -29.593310   -1.877136    2.626717
     17          6           0      -30.636778   -2.387767    3.451690
     18          6           0      -31.857923   -1.824308    3.102887
     19          6           0      -31.585876   -0.970891    1.934020
     20          6           0      -30.267777   -3.388431    4.527934
     21          6           0      -33.181498   -1.982952    3.812259
     22          8           0      -33.168706   -2.722782    4.827496
     23          6           0      -34.362042   -1.225126    3.565175
     24          7           0      -31.027484    1.075075   -0.383997
     25          6           0      -32.231887    0.840068    0.211394
     26          6           0      -33.320165    1.800124   -0.325863
     27          6           0      -32.567681    2.558889   -1.470428
     28          6           0      -31.165567    1.985340   -1.354156
     29          6           0      -34.581716    1.093463   -0.773829
     30          6           0      -32.644076    4.164173   -1.258857
     31          6           0      -32.898366    4.953108   -2.548392
     32          7           0      -28.379554    0.977895   -1.455276
     33          6           0      -28.875815    1.757461   -2.450586
     34          6           0      -27.801894    1.983586   -3.379259
     35          6           0      -26.627315    1.299924   -2.909722
     36          6           0      -27.042814    0.729330   -1.717986
     37          6           0      -27.816419    2.983063   -4.484747
     38          6           0      -25.234675    1.029061   -3.068562
     39          8           0      -24.553432    1.404633   -4.030960
     40          6           0      -24.836828    0.187070   -1.870380
     41          6           0      -24.298646   -1.105531   -2.359599
     42          8           0      -23.353023   -1.103311   -3.122988
     43          8           0      -24.886462   -2.207036   -1.816703
     44          6           0      -24.347821   -3.489247   -2.274651
     45          1           0      -27.879343   -2.909582    3.360835
     46          1           0      -33.492989   -0.307267    1.441411
     47          1           0      -30.478824    2.862896   -3.201985
     48          1           0      -24.123357   -1.434893    0.493887
     49          1           0      -25.292114   -1.940683    3.060818
     50          1           0      -24.944668   -3.986112    2.605691
     51          1           0      -24.655083   -3.509014    0.936289
     52          1           0      -26.251601   -4.090281    1.396789
     53          1           0      -23.840016    0.830451    0.998943
     54          1           0      -23.480568   -0.224185    2.239791
     55          1           0      -26.198220    0.639081    3.036392
     56          1           0      -25.436922    1.992438    2.096292
     57          1           0      -29.954347   -2.789510    5.383217
     58          1           0      -29.411210   -3.970068    4.189508
     59          1           0      -31.048520   -4.088081    4.827818
     60          1           0      -34.966749   -1.111825    4.465503
     61          1           0      -34.927781   -1.567912    2.697880
     62          1           0      -34.005874   -0.209359    3.398972
     63          1           0      -33.504719    2.460091    0.522492
     64          1           0      -32.944571    2.222230   -2.436008
     65          1           0      -34.591509    0.024984   -0.560179
     66          1           0      -34.987305    1.239502   -1.774601
     67          1           0      -35.313588    1.437495   -0.042419
     68          1           0      -31.744819    4.594618   -0.818103
     69          1           0      -33.397151    4.444503   -0.522597
     70          1           0      -33.921801    5.326004   -2.518484
     71          1           0      -32.863681    4.255678   -3.385615
     72          1           0      -32.209397    5.787565   -2.680084
     73          1           0      -28.463096    2.781433   -5.337860
     74          1           0      -26.777698    3.063995   -4.807287
     75          1           0      -28.149706    3.964228   -4.146439
     76          1           0      -24.043503    0.737978   -1.364326
     77          1           0      -23.280771   -3.500113   -2.050573
     78          1           0      -24.557240   -3.698145   -3.323871
     79          1           0      -24.889237   -4.317965   -1.818604
     80         12           0       28.563531    0.548940    0.555858
     81          6           0       28.895195   -2.621552   -0.884152
     82          6           0       26.914711    1.599535   -2.079932
     83          6           0       28.932620    3.779670    1.664892
     84          6           0       30.762835   -0.434877    3.136687
     85          7           0       27.918865   -0.457593   -1.179834
     86          6           0       28.078124   -1.763329   -1.588994
     87          6           0       27.243456   -2.074503   -2.824595
     88          6           0       26.820477   -0.642441   -3.284398
     89          6           0       27.133586    0.192687   -2.091963
     90          6           0       27.328628   -0.098009   -4.601931
     91          6           0       26.080197   -3.091081   -2.592994
     92          6           0       25.252712   -3.430443   -3.837531
     93          1           0       25.079825   -4.911532   -4.140821
     94          7           0       28.022520    2.529786   -0.189108
     95          6           0       27.204113    2.706457   -1.247275
     96          6           0       26.852427    4.095896   -1.345960
     97          6           0       27.529767    4.765910   -0.312610
     98          6           0       28.215523    3.676624    0.434420
     99          6           0       25.967821    4.667252   -2.433890
    100          6           0       27.505980    6.210227    0.067315
    101          8           0       28.248871    6.768968    0.918068
    102          6           0       26.485047    7.149911   -0.562497
    103          7           0       29.692034    1.508247    2.124540
    104          6           0       29.719369    2.847387    2.318453
    105          6           0       30.479366    3.178811    3.713404
    106          6           0       30.621191    1.752684    4.352177
    107          6           0       30.286352    0.863635    3.197774
    108          6           0       31.840442    3.913081    3.396149
    109          6           0       29.514186    1.516414    5.443613
    110          6           0       28.056355    1.771037    5.093395
    111          7           0       29.619779   -1.230191    1.115838
    112          6           0       30.447652   -1.429370    2.186365
    113          6           0       30.882092   -2.747219    2.124614
    114          6           0       30.352863   -3.325930    0.935277
    115          6           0       29.585015   -2.354411    0.348956
    116          6           0       31.829832   -3.463830    3.020486
    117          6           0       30.278103   -4.510989    0.050952
    118          8           0       30.811479   -5.614375    0.070944
    119          6           0       29.229190   -4.112913   -1.126265
    120          6           0       29.763637   -4.507400   -2.456876
    121          8           0       30.985550   -4.462055   -2.788254
    122          8           0       28.760823   -5.058206   -3.127524
    123          6           0       29.179724   -5.902855   -4.229686
    124          1           0       26.266641    1.974009   -2.875213
    125          1           0       29.030189    4.796952    2.051421
    126          1           0       31.332733   -0.739183    4.015971
    127          1           0       27.932722   -2.607568   -3.479742
    128          1           0       25.740847   -0.532210   -3.391774
    129          1           0       27.695365   -0.825146   -5.326388
    130          1           0       28.097950    0.649130   -4.405086
    131          1           0       26.561449    0.577115   -4.981585
    132          1           0       25.428475   -2.726604   -1.798529
    133          1           0       26.494494   -4.019391   -2.201033
    134          1           0       25.819078   -3.251099   -4.751233
    135          1           0       24.302596   -2.895425   -3.839994
    136          1           0       25.706604    3.966845   -3.227084
    137          1           0       26.423193    5.431567   -3.063147
    138          1           0       25.032124    5.083071   -2.058902
    139          1           0       26.751112    7.275760   -1.611641
    140          1           0       26.620650    8.179745   -0.232888
    141          1           0       25.452617    6.855910   -0.369983
    142          1           0       29.877447    3.872063    4.300959
    143          1           0       31.671834    1.675409    4.631886
    144          1           0       31.910567    4.275595    2.370441
    145          1           0       32.724892    3.289356    3.526846
    146          1           0       31.991844    4.820811    3.978508
    147          1           0       29.871560    2.216803    6.198560
    148          1           0       29.522492    0.523973    5.893258
    149          1           0       27.985946    2.300611    4.143050
    150          1           0       27.446841    2.240639    5.864684
    151          1           0       27.648666    0.760895    5.053816
    152          1           0       31.559764   -3.433975    4.076375
    153          1           0       32.772542   -2.927204    2.917549
    154          1           0       31.995228   -4.496511    2.715097
    155          1           0       28.360292   -4.735610   -0.914840
    156          1           0       28.589435   -6.819952   -4.242337
    157          1           0       30.215081   -6.242340   -4.211934
    158          1           0       28.973713   -5.332735   -5.136156
 ---------------------------------------------------------------------

 SCF Done:  E(RwB97XD) =  -4070.62102849     A.U. after   20 cycles

 Excitation energies and oscillator strengths:

 Excited State   1:      Singlet-A      1.6681 eV  743.28 nm  f=0.3879  <S**2>=0.000
     310 -> 316       -0.17124
     311 -> 313        0.68671
     310 <- 316       -0.11160
 This state for optimization and/or second-order correction.
 Total Energy, E(TD-HF/TD-DFT) =  -4070.55972835
 Copying the excited state density for this state as the 1-particle RhoCI density.

 Excited State   2:      Singlet-A      1.6886 eV  734.25 nm  f=0.3947  <S**2>=0.000
     309 -> 315       -0.18198
     312 -> 314        0.68307
     309 <- 315       -0.11275

 Excited State   3:      Singlet-A      2.0912 eV  592.89 nm  f=0.1653  <S**2>=0.000
     310 -> 313        0.66094
     311 -> 316        0.23076

 Excited State   4:      Singlet-A      2.1633 eV  573.12 nm  f=0.1261  <S**2>=0.000
     309 -> 314        0.64773
     312 -> 315        0.25647

 Excited State   5:      Singlet-A      3.0725 eV  403.53 nm  f=0.0091  <S**2>=0.000
     308 -> 313        0.67869

 The electronic state is 1-A.
 Alpha  occ. eigenvalues --  -46.95717 -46.95492 -19.31847 -19.31615 -19.24442
 Alpha  occ. eigenvalues --  -19.24219 -19.24014 -19.23454 -19.23334 -19.23258
 Alpha  occ. eigenvalues --  -14.47512 -14.46695 -14.46676 -14.46416 -14.44472
 Alpha  occ. eigenvalues --  -14.44363 -14.43196 -14.42586 -10.43320 -10.43064
 Alpha  occ. eigenvalues --  -10.39800 -10.38840 -10.38823 -10.38461 -10.36508
 Alpha  occ. eigenvalues --  -10.36200 -10.35765 -10.35732 -10.35361 -10.35258
 Alpha  occ. eigenvalues --  -10.35166 -10.35003 -10.34875 -10.34742 -10.34525
 Alpha  occ. eigenvalues --  -10.34501 -10.34206 -10.34052 -10.33999 -10.33213
 Alpha  occ. eigenvalues --  -10.33189 -10.33056 -10.32619 -10.32589 -10.32530
 Alpha  occ. eigenvalues --  -10.32480 -10.32460 -10.32444 -10.32381 -10.32353
 Alpha  occ. eigenvalues --  -10.32349 -10.32347 -10.32189 -10.32135 -10.32117
 Alpha  occ. eigenvalues --  -10.31887 -10.31833 -10.31816 -10.31807 -10.31796
 Alpha  occ. eigenvalues --  -10.31792 -10.31550 -10.31464 -10.31394 -10.31290
 Alpha  occ. eigenvalues --  -10.31214 -10.31021 -10.30954 -10.30804 -10.30496
 Alpha  occ. eigenvalues --  -10.30448 -10.30443 -10.30413 -10.30377 -10.30364
 Alpha  occ. eigenvalues --  -10.30240 -10.30214 -10.30040 -10.29545 -10.29528
 Alpha  occ. eigenvalues --  -10.29445 -10.29241 -10.28838 -10.28698 -10.28578
 Alpha  occ. eigenvalues --  -10.28257  -3.21562  -3.21398  -1.95156  -1.94959
 Alpha  occ. eigenvalues --   -1.94653  -1.94541  -1.94537  -1.94349  -1.20279
 Alpha  occ. eigenvalues --   -1.19602  -1.11260  -1.10985  -1.10656  -1.10640
 Alpha  occ. eigenvalues --   -1.10226  -1.08091  -1.07502  -1.07005  -1.06567
 Alpha  occ. eigenvalues --   -1.06381  -1.05318  -1.04765  -1.04460  -1.03624
 Alpha  occ. eigenvalues --   -0.96073  -0.93783  -0.91484  -0.91263  -0.91191
 Alpha  occ. eigenvalues --   -0.90934  -0.90658  -0.90344  -0.89967  -0.89735
 Alpha  occ. eigenvalues --   -0.89054  -0.88365  -0.87805  -0.87585  -0.87043
 Alpha  occ. eigenvalues --   -0.86709  -0.86032  -0.85665  -0.85313  -0.84765
 Alpha  occ. eigenvalues --   -0.84727  -0.83809  -0.83417  -0.83294  -0.82879
 Alpha  occ. eigenvalues --   -0.82630  -0.80874  -0.80594  -0.79996  -0.79493
 Alpha  occ. eigenvalues --   -0.79252  -0.78996  -0.78083  -0.78053  -0.77179
 Alpha  occ. eigenvalues --   -0.76955  -0.74712  -0.74503  -0.74141  -0.73709
 Alpha  occ. eigenvalues --   -0.72105  -0.71877  -0.71099  -0.71084  -0.70812
 Alpha  occ. eigenvalues --   -0.70352  -0.69682  -0.69190  -0.68504  -0.67455
 Alpha  occ. eigenvalues --   -0.67370  -0.67231  -0.67195  -0.66671  -0.66505
 Alpha  occ. eigenvalues --   -0.66386  -0.65829  -0.64695  -0.63071  -0.62247
 Alpha  occ. eigenvalues --   -0.61737  -0.61732  -0.61358  -0.61218  -0.60757
 Alpha  occ. eigenvalues --   -0.60531  -0.60401  -0.60053  -0.59508  -0.59238
 Alpha  occ. eigenvalues --   -0.58769  -0.58602  -0.58217  -0.57952  -0.57798
 Alpha  occ. eigenvalues --   -0.57717  -0.57374  -0.57282  -0.57117  -0.56492
 Alpha  occ. eigenvalues --   -0.56333  -0.56239  -0.55724  -0.55466  -0.55239
 Alpha  occ. eigenvalues --   -0.55096  -0.55049  -0.54895  -0.54483  -0.54463
 Alpha  occ. eigenvalues --   -0.53835  -0.53739  -0.53640  -0.53510  -0.53366
 Alpha  occ. eigenvalues --   -0.53042  -0.52908  -0.52837  -0.52514  -0.52415
 Alpha  occ. eigenvalues --   -0.52347  -0.52031  -0.51600  -0.51524  -0.51456
 Alpha  occ. eigenvalues --   -0.51072  -0.51068  -0.50814  -0.50723  -0.50610
 Alpha  occ. eigenvalues --   -0.50490  -0.50444  -0.50441  -0.50255  -0.50091
 Alpha  occ. eigenvalues --   -0.50013  -0.49572  -0.49212  -0.49130  -0.49057
 Alpha  occ. eigenvalues --   -0.48687  -0.48682  -0.48442  -0.48439  -0.48403
 Alpha  occ. eigenvalues --   -0.48281  -0.48030  -0.47874  -0.47761  -0.47697
 Alpha  occ. eigenvalues --   -0.47582  -0.47357  -0.47166  -0.47078  -0.46845
 Alpha  occ. eigenvalues --   -0.46615  -0.46610  -0.46543  -0.46501  -0.46347
 Alpha  occ. eigenvalues --   -0.46201  -0.45793  -0.45719  -0.45635  -0.45534
 Alpha  occ. eigenvalues --   -0.45350  -0.45144  -0.44822  -0.44771  -0.44563
 Alpha  occ. eigenvalues --   -0.44351  -0.44311  -0.44255  -0.44212  -0.43991
 Alpha  occ. eigenvalues --   -0.43858  -0.43807  -0.43763  -0.43372  -0.43327
 Alpha  occ. eigenvalues --   -0.43141  -0.43101  -0.42959  -0.42764  -0.42380
 Alpha  occ. eigenvalues --   -0.42372  -0.41514  -0.41451  -0.41131  -0.41120
 Alpha  occ. eigenvalues --   -0.40684  -0.40608  -0.39845  -0.39820  -0.39729
 Alpha  occ. eigenvalues --   -0.39494  -0.39367  -0.39016  -0.38864  -0.38564
 Alpha  occ. eigenvalues --   -0.38332  -0.37914  -0.36742  -0.36121  -0.36001
 Alpha  occ. eigenvalues --   -0.35944  -0.35320  -0.35039  -0.34158  -0.34017
 Alpha  occ. eigenvalues --   -0.33177  -0.32960  -0.32840  -0.32419  -0.32334
 Alpha  occ. eigenvalues --   -0.32072  -0.31158  -0.30626  -0.26246  -0.25985
 Alpha  occ. eigenvalues --   -0.23589  -0.23499
 Alpha virt. eigenvalues --   -0.07718  -0.07519   0.00028   0.00648   0.01988
 Alpha virt. eigenvalues --    0.02193   0.04100   0.04440   0.04537   0.04947
 Alpha virt. eigenvalues --    0.06624   0.07150   0.07335   0.08000   0.08376

 Mulliken charges:
               1
     1  Mg   0.931875
     2  C   -0.001025
     3  C   -0.065743
     4  C   -0.091462
     5  C   -0.077560
     6  N   -0.307360
     7  C    0.004357
     8  C   -0.074634
     9  C   -0.126288
    10  C    0.080309
    11  C    0.020497
    12  C    0.007941
    13  C   -0.131034
    14  H    0.036885
    15  N   -0.514697
    16  C    0.149045
    17  C   -0.151784
    18  C   -0.055468
    19  C    0.178055
    20  C    0.087259
    21  C    0.034417
    22  O   -0.271003
    23  C    0.017101
    24  N   -0.324973
    25  C    0.043486
    26  C   -0.057415
    27  C   -0.088547
    28  C    0.106161
    29  C    0.017417
    30  C   -0.009882
    31  C   -0.055801
    32  N   -0.439835
    33  C    0.094587
    34  C   -0.179717
    35  C    0.011878
    36  C    0.117610
    37  C    0.048056
    38  C    0.070976
    39  O   -0.201946
    40  C   -0.081095
    41  C    0.257066
    42  O   -0.227880
    43  O   -0.352631
    44  C    0.138928
    45  H   -0.003851
    46  H   -0.037256
    47  H   -0.005221
    48  H    0.022118
    49  H    0.037567
    50  H    0.038106
    51  H    0.026455
    52  H    0.039085
    53  H    0.025029
    54  H    0.032703
    55  H    0.078020
    56  H    0.066404
    57  H    0.053652
    58  H    0.029916
    59  H    0.063982
    60  H    0.061116
    61  H    0.077283
    62  H    0.047617
    63  H    0.049753
    64  H    0.040771
    65  H    0.036129
    66  H    0.051933
    67  H    0.027132
    68  H    0.036484
    69  H    0.028001
    70  H    0.034969
    71  H    0.031360
    72  H    0.047281
    73  H    0.038327
    74  H    0.058158
    75  H    0.037798
    76  H    0.089604
    77  H    0.063390
    78  H    0.059060
    79  H    0.051003
    80  Mg   0.940743
    81  C    0.025498
    82  C   -0.076044
    83  C   -0.054425
    84  C   -0.071319
    85  N   -0.396577
    86  C   -0.020159
    87  C   -0.029372
    88  C   -0.089392
    89  C    0.104760
    90  C    0.044373
    91  C    0.022398
    92  C   -0.128882
    93  H    0.030705
    94  N   -0.379718
    95  C    0.094793
    96  C   -0.112230
    97  C   -0.048735
    98  C    0.101697
    99  C    0.053338
   100  C    0.041303
   101  O   -0.259353
   102  C   -0.009158
   103  N   -0.351576
   104  C    0.069173
   105  C   -0.145314
   106  C   -0.029878
   107  C    0.039038
   108  C    0.014262
   109  C   -0.014311
   110  C   -0.051426
   111  N   -0.418328
   112  C    0.151752
   113  C   -0.204299
   114  C   -0.041163
   115  C    0.088470
   116  C    0.077125
   117  C    0.161955
   118  O   -0.201883
   119  C   -0.129296
   120  C    0.263481
   121  O   -0.280595
   122  O   -0.330281
   123  C    0.127188
   124  H   -0.027653
   125  H    0.024842
   126  H   -0.001124
   127  H    0.031515
   128  H    0.031554
   129  H    0.056318
   130  H    0.033576
   131  H    0.025687
   132  H    0.024430
   133  H    0.044956
   134  H    0.046511
   135  H    0.062202
   136  H    0.028554
   137  H    0.048677
   138  H    0.055046
   139  H    0.043787
   140  H    0.044670
   141  H    0.064244
   142  H    0.043799
   143  H    0.030743
   144  H    0.043545
   145  H    0.032452
   146  H    0.040114
   147  H    0.029586
   148  H    0.030950
   149  H    0.055299
   150  H    0.043824
   151  H    0.033829
   152  H    0.035237
   153  H    0.042852
   154  H    0.057948
   155  H    0.082053
   156  H    0.053486
   157  H    0.078570
   158  H    0.049585
 Sum of Mulliken charges =  -0.00000

 Dipole moment (field-independent basis, Debye):
    X=            -10.3657    Y=              1.5790    Z=             -0.3432  Tot=             10.4909
 Quadrupole moment (field-independent basis, Debye-Ang):
   XX=           -602.4479   YY=           -521.8016   ZZ=           -510.4364
   XY=             91.3396   XZ=            -19.3555   YZ=             11.2782

 Normal termination of Gaussian 16 at Sun Sep 19 18:45:43 2021.
