 Gaussian 16, Revision A.03,
 Gaussian 16:  ES64L-G16RevA.03 25-Dec-2016

 --------------------------------
 #p wB97XD/Def2SVP td=(nstates=5)
 --------------------------------

 --------------------------------
 TDDFT excited states in gaussian
 --------------------------------
 Symbolic Z-matrix:
 Charge =  0 Multiplicity = 1

                         Standard orientation:
 ---------------------------------------------------------------------
 Center     Atomic      Atomic             Coordinates (Angstroms)
 Number     Number       Type             X           Y           Z
 ---------------------------------------------------------------------
      1         12           0       -0.719919    0.133279    0.143357
      2          6           0        2.795660    0.384084    0.147094
      3          6           0       -0.302757   -3.294620    0.001561
      4          6           0       -4.108533   -0.259931    0.011923
      5          6           0       -0.975178    3.474221   -0.062120
      6          7           0        1.071003   -1.309189    0.116206
      7          6           0        2.418321   -1.001794    0.262643
      8          6           0        3.222781   -2.259528    0.522866
      9          6           0        2.243839   -3.416295    0.104881
     10          6           0        0.948887   -2.635481    0.092025
     11          6           0        2.604360   -4.168596   -1.235762
     12          6           0        3.626477   -2.426253    1.995411
     13          6           0        5.011425   -3.037816    2.232643
     14          1           0        5.230076   -4.535896    1.881903
     15          7           0       -2.028157   -1.527234    0.114181
     16          6           0       -1.605388   -2.808862    0.018319
     17          6           0       -2.745980   -3.654159   -0.124593
     18          6           0       -3.932985   -2.854845    0.013784
     19          6           0       -3.387169   -1.509154   -0.002884
     20          6           0       -2.621375   -5.139452   -0.321991
     21          6           0       -5.416983   -3.222180    0.007846
     22          8           0       -6.301381   -2.391458    0.311641
     23          6           0       -5.922664   -4.588591   -0.440789
     24          7           0       -2.293250    1.411818    0.088730
     25          6           0       -3.631673    1.051234   -0.034578
     26          6           0       -4.457534    2.288364   -0.177007
     27          6           0       -3.520069    3.548526   -0.139400
     28          6           0       -2.176525    2.817500    0.014488
     29          6           0       -5.484573    2.254557   -1.348569
     30          6           0       -3.780805    4.538999    1.016079
     31          6           0       -4.671563    5.730760    0.615194
     32          7           0        0.561820    1.633664    0.013200
     33          6           0        0.361015    3.013202   -0.003205
     34          6           0        1.655381    3.789793    0.032956
     35          6           0        2.592646    2.744274    0.056637
     36          6           0        1.907797    1.487438    0.098929
     37          6           0        1.812729    5.299437    0.035724
     38          6           0        4.028779    2.511755    0.085397
     39          8           0        4.975596    3.298849    0.052679
     40          6           0        4.183688    0.942590    0.270135
     41          6           0        5.158956    0.499271   -0.838064
     42          8           0        5.183390    0.904081   -1.982055
     43          8           0        6.127890   -0.326632   -0.271422
     44          6           0        7.113325   -0.800902   -1.243241
     45          1           0       -0.136266   -4.373064    0.037800
     46          1           0       -5.199783   -0.268164   -0.021359
     47          1           0       -1.141993    4.535903   -0.253862
     48          1           0        4.123840   -2.355603   -0.082410
     49          1           0        2.175663   -4.235612    0.820593
     50          1           0        3.555600   -3.890034   -1.690157
     51          1           0        1.909744   -4.045164   -2.066305
     52          1           0        2.713987   -5.238631   -1.059309
     53          1           0        2.904876   -3.036898    2.537605
     54          1           0        3.682062   -1.457246    2.491836
     55          1           0        5.360977   -2.870284    3.251297
     56          1           0        5.779808   -2.503918    1.673885
     57          1           0       -1.888447   -5.194248   -1.127062
     58          1           0       -3.499922   -5.680287   -0.673477
     59          1           0       -2.225509   -5.683444    0.535297
     60          1           0       -5.490729   -4.865941   -1.402497
     61          1           0       -6.998972   -4.424153   -0.489890
     62          1           0       -5.640343   -5.364925    0.270327
     63          1           0       -5.176895    2.275922    0.642376
     64          1           0       -3.462649    4.111650   -1.071793
     65          1           0       -5.339987    1.318296   -1.888090
     66          1           0       -5.270557    3.080335   -2.026561
     67          1           0       -6.453215    2.292019   -0.849019
     68          1           0       -2.812340    4.800496    1.441880
     69          1           0       -4.384618    4.074555    1.796003
     70          1           0       -5.285862    5.459442   -0.243590
     71          1           0       -4.159689    6.627309    0.265007
     72          1           0       -5.349096    5.936073    1.444517
     73          1           0        1.506679    5.652269    1.020739
     74          1           0        1.199862    5.838652   -0.686323
     75          1           0        2.873963    5.483763   -0.130572
     76          1           0        4.573979    0.616925    1.234169
     77          1           0        6.854202   -1.737431   -1.737991
     78          1           0        8.028748   -0.890915   -0.658601
     79          1           0        7.352098   -0.178503   -2.105611
 ---------------------------------------------------------------------

 SCF Done:  E(RwB97XD) =  -2035.33381904     A.U. after   17 cycles

 Excitation energies and oscillator strengths:

 Excited State   1:      Singlet-A      1.6477 eV  752.47 nm  f=0.3736  <S**2>=0.000
     155 ->158        -0.19186
     156 ->157         0.68143
     155 <-158        -0.11860
 This state for optimization and/or second-order correction.
 Total Energy, E(TD-HF/TD-DFT) =  -2035.27326768
 Copying the excited state density for this state as the 1-particle RhoCI density.

 Excited State   2:      Singlet-A      2.1799 eV  568.77 nm  f=0.0974  <S**2>=0.000
     155 ->157         0.63415
     156 ->158         0.30020

 Excited State   3:      Singlet-A      3.4328 eV  361.17 nm  f=0.1153  <S**2>=0.000
     153 ->157         0.16817
     154 ->157         0.56576
     155 ->157         0.11123
     156 ->158        -0.34318

 Excited State   4:      Singlet-A      3.5740 eV  346.91 nm  f=0.5108  <S**2>=0.000
     152 ->157         0.12915
     153 ->157        -0.15603
     153 ->159        -0.11724
     154 ->157         0.35443
     155 ->157        -0.24484
     156 ->158         0.47214

 Excited State   5:      Singlet-A      3.6199 eV  342.51 nm  f=0.1358  <S**2>=0.000
     152 ->157         0.39923
     152 ->159         0.27844
     152 ->160         0.21958
     153 ->157        -0.27354
     153 ->159        -0.14787
     153 ->160        -0.12282
     155 ->157         0.11886
     156 ->158        -0.21527

 The electronic state is 1-A.
 Alpha  occ. eigenvalues --  -46.93988 -19.30980 -19.25335 -19.24267 -19.24133
 Alpha  occ. eigenvalues --  -14.47288 -14.45876 -14.44491 -14.44099 -10.43536
 Alpha  occ. eigenvalues --  -10.39859 -10.39095 -10.35452 -10.35222 -10.34903
 Alpha  occ. eigenvalues --  -10.34832 -10.34794 -10.34315 -10.34281 -10.33654
 Alpha  occ. eigenvalues --  -10.33193 -10.33080 -10.32920 -10.32886 -10.32836
 Alpha  occ. eigenvalues --  -10.32698 -10.32587 -10.32436 -10.31897 -10.31687
 Alpha  occ. eigenvalues --  -10.31303 -10.31225 -10.31164 -10.31021 -10.30478
 Alpha  occ. eigenvalues --  -10.30316 -10.30257 -10.30247 -10.30034 -10.29974
 Alpha  occ. eigenvalues --  -10.29718 -10.29526 -10.29371  -3.20182  -1.93776
 Alpha  occ. eigenvalues --   -1.93286  -1.93200  -1.18459  -1.11446  -1.11164
 Alpha  occ. eigenvalues --   -1.10376  -1.06724  -1.05743  -1.05075  -1.03446
 Alpha  occ. eigenvalues --   -0.94539  -0.91295  -0.90916  -0.90211  -0.89399
 Alpha  occ. eigenvalues --   -0.88989  -0.88084  -0.86324  -0.85435  -0.84215
 Alpha  occ. eigenvalues --   -0.83668  -0.82917  -0.82045  -0.80432  -0.79384
 Alpha  occ. eigenvalues --   -0.79197  -0.78087  -0.77002  -0.74674  -0.73633
 Alpha  occ. eigenvalues --   -0.71350  -0.70736  -0.70161  -0.69327  -0.67722
 Alpha  occ. eigenvalues --   -0.67445  -0.66488  -0.66162  -0.64554  -0.62363
 Alpha  occ. eigenvalues --   -0.62151  -0.60939  -0.60476  -0.59703  -0.59497
 Alpha  occ. eigenvalues --   -0.58035  -0.57460  -0.57084  -0.56537  -0.55755
 Alpha  occ. eigenvalues --   -0.55428  -0.55087  -0.54822  -0.54511  -0.54118
 Alpha  occ. eigenvalues --   -0.53778  -0.53697  -0.53165  -0.52393  -0.52196
 Alpha  occ. eigenvalues --   -0.51998  -0.51725  -0.51268  -0.51012  -0.50849
 Alpha  occ. eigenvalues --   -0.50402  -0.50191  -0.50006  -0.49582  -0.49327
 Alpha  occ. eigenvalues --   -0.48775  -0.48593  -0.48454  -0.48214  -0.47833
 Alpha  occ. eigenvalues --   -0.47453  -0.46838  -0.46588  -0.46461  -0.46295
 Alpha  occ. eigenvalues --   -0.46261  -0.45520  -0.45372  -0.45140  -0.44960
 Alpha  occ. eigenvalues --   -0.44636  -0.44301  -0.43857  -0.43732  -0.43525
 Alpha  occ. eigenvalues --   -0.43114  -0.42976  -0.42400  -0.42163  -0.41601
 Alpha  occ. eigenvalues --   -0.40603  -0.40240  -0.39861  -0.39296  -0.38851
 Alpha  occ. eigenvalues --   -0.38719  -0.37152  -0.36957  -0.35097  -0.33506
 Alpha  occ. eigenvalues --   -0.33157  -0.32941  -0.32683  -0.32207  -0.25874
 Alpha  occ. eigenvalues --   -0.22889
 Alpha virt. eigenvalues --   -0.06918   0.00136   0.02042   0.03848   0.06778
 Alpha virt. eigenvalues --    0.07112   0.07420   0.08327   0.09015   0.10004
 Alpha virt. eigenvalues --    0.10761   0.12173   0.12928   0.12957   0.13673

 Mulliken charges:
               1
     1  Mg   1.001401
     2  C   -0.064881
     3  C   -0.110685
     4  C   -0.083558
     5  C   -0.100668
     6  N   -0.307630
     7  C    0.022497
     8  C   -0.031885
     9  C   -0.097732
    10  C    0.018987
    11  C    0.007935
    12  C    0.023199
    13  C   -0.123384
    14  H    0.017000
    15  N   -0.427882
    16  C    0.224004
    17  C   -0.180409
    18  C   -0.042792
    19  C    0.127534
    20  C    0.061782
    21  C    0.049219
    22  O   -0.257556
    23  C   -0.023849
    24  N   -0.456651
    25  C    0.109028
    26  C   -0.100389
    27  C   -0.055389
    28  C    0.059167
    29  C    0.015940
    30  C    0.000249
    31  C   -0.055612
    32  N   -0.483301
    33  C    0.140217
    34  C   -0.167068
    35  C   -0.071843
    36  C    0.182677
    37  C    0.080915
    38  C    0.161275
    39  O   -0.208550
    40  C   -0.105825
    41  C    0.266336
    42  O   -0.223779
    43  O   -0.369688
    44  C    0.126407
    45  H   -0.009076
    46  H    0.016369
    47  H   -0.010457
    48  H    0.030673
    49  H    0.039928
    50  H    0.034309
    51  H    0.041868
    52  H    0.034283
    53  H    0.040680
    54  H    0.036916
    55  H    0.048538
    56  H    0.050338
    57  H    0.046155
    58  H    0.026885
    59  H    0.058715
    60  H    0.061418
    61  H    0.063747
    62  H    0.063657
    63  H    0.042776
    64  H    0.042935
    65  H    0.043681
    66  H    0.034113
    67  H    0.043581
    68  H    0.037031
    69  H    0.028025
    70  H    0.024568
    71  H    0.041178
    72  H    0.040910
    73  H    0.050541
    74  H    0.047760
    75  H    0.066163
    76  H    0.072907
    77  H    0.043203
    78  H    0.055693
    79  H    0.065224
 Sum of Mulliken charges =  -0.00000

 Dipole moment (field-independent basis, Debye):
    X=             -1.3334    Y=             -3.9982    Z=              0.5268  Tot=              4.2475
 Quadrupole moment (field-independent basis, Debye-Ang):
   XX=           -272.2492   YY=           -227.1461   ZZ=           -257.7670
   XY=            -30.8594   XZ=              8.5333   YZ=              6.7520

 Normal termination of Gaussian 16 at Sun Sep 19 17:05:54 2021.
