 Gaussian 16, Revision A.03,
 Gaussian 16:  ES64L-G16RevA.03 25-Dec-2016

 --------------------------------
 #p wB97XD/Def2SVP td=(nstates=5)
 --------------------------------

 --------------------------------
 TDDFT excited states in gaussian
 --------------------------------
 Symbolic Z-matrix:
 Charge =  0 Multiplicity = 1

                         Standard orientation:
 ---------------------------------------------------------------------
 Center     Atomic      Atomic             Coordinates (Angstroms)
 Number     Number       Type             X           Y           Z
 ---------------------------------------------------------------------
      1         12           0      -30.224100    0.159744    0.397471
      2          6           0      -28.062203   -1.941281   -1.388403
      3          6           0      -30.438934    2.210167   -2.481001
      4          6           0      -32.036671    2.394245    2.200544
      5          6           0      -29.338830   -1.502538    3.291281
      6          7           0      -29.479259    0.008023   -1.684382
      7          6           0      -28.749646   -1.069192   -2.195527
      8          6           0      -28.823711   -1.042455   -3.764752
      9          6           0      -29.489292    0.310171   -4.043572
     10          6           0      -29.790631    0.924820   -2.632243
     11          6           0      -28.544537    1.216666   -4.877803
     12          6           0      -29.580196   -2.278040   -4.237041
     13          6           0      -29.255498   -2.831431   -5.614909
     14          1           0      -28.427748   -1.952539   -6.579674
     15          7           0      -31.142074    2.037811   -0.031050
     16          6           0      -31.087412    2.719569   -1.261615
     17          6           0      -31.786765    3.989432   -1.173550
     18          6           0      -32.346263    4.083054    0.161300
     19          6           0      -31.830479    2.818812    0.842239
     20          6           0      -32.036946    4.923411   -2.364488
     21          6           0      -33.226806    5.141560    0.797262
     22          8           0      -33.609054    5.014238    1.952848
     23          6           0      -33.784718    6.210130   -0.062187
     24          7           0      -30.670195    0.343122    2.474371
     25          6           0      -31.516189    1.301364    2.944984
     26          6           0      -31.831122    1.032915    4.439902
     27          6           0      -31.013648   -0.269091    4.795527
     28          6           0      -30.363607   -0.597047    3.426460
     29          6           0      -31.456311    2.257061    5.294361
     30          6           0      -31.872493   -1.470695    5.271600
     31          6           0      -31.780451   -1.581918    6.790307
     32          7           0      -28.887040   -1.344520    0.969402
     33          6           0      -28.556988   -1.889964    2.165035
     34          6           0      -27.384393   -2.770101    1.941098
     35          6           0      -27.223428   -2.907476    0.593444
     36          6           0      -28.142483   -1.974670    0.048639
     37          6           0      -26.710962   -3.502448    3.089528
     38          6           0      -26.506037   -3.589646   -0.491886
     39          8           0      -25.603440   -4.415203   -0.423960
     40          6           0      -27.100310   -3.038977   -1.773829
     41          6           0      -25.950686   -2.626466   -2.594392
     42          8           0      -25.236002   -1.617679   -2.521513
     43          8           0      -25.704411   -3.639272   -3.498618
     44          6           0      -24.560971   -3.470701   -4.368823
     45          1           0      -30.546165    2.772057   -3.410941
     46          1           0      -32.714265    3.105898    2.676926
     47          1           0      -29.046545   -1.915682    4.259004
     48          1           0      -27.761019   -1.053558   -4.009959
     49          1           0      -30.314209    0.099697   -4.724173
     50          1           0      -28.147923    2.080926   -4.344754
     51          1           0      -29.181402    1.735102   -5.593992
     52          1           0      -27.691404    0.667416   -5.275561
     53          1           0      -30.630024   -2.007198   -4.120719
     54          1           0      -29.455279   -3.069206   -3.498689
     55          1           0      -30.185614   -3.129838   -6.096688
     56          1           0      -28.717918   -3.743237   -5.352318
     57          1           0      -31.506073    4.635142   -3.271977
     58          1           0      -31.724020    5.937452   -2.112129
     59          1           0      -33.112117    5.008741   -2.517567
     60          1           0      -34.464414    5.755279   -0.783189
     61          1           0      -32.997366    6.865261   -0.434912
     62          1           0      -34.439855    6.878384    0.496768
     63          1           0      -32.910375    0.912009    4.530296
     64          1           0      -30.243912    0.062906    5.493449
     65          1           0      -30.745873    2.088780    6.103201
     66          1           0      -32.430014    2.456955    5.741114
     67          1           0      -30.987170    3.070396    4.741454
     68          1           0      -31.396839   -2.409603    4.987656
     69          1           0      -32.917962   -1.411549    4.968357
     70          1           0      -32.817853   -1.705511    7.100769
     71          1           0      -31.495889   -0.656739    7.290890
     72          1           0      -31.167227   -2.402370    7.164062
     73          1           0      -26.990603   -3.162828    4.087141
     74          1           0      -25.623903   -3.469627    3.027665
     75          1           0      -27.094023   -4.523295    3.111397
     76          1           0      -27.672982   -3.838779   -2.242242
     77          1           0      -23.703371   -3.227239   -3.741125
     78          1           0      -24.687641   -2.677607   -5.106074
     79          1           0      -24.282050   -4.484994   -4.652304
     80         12           0       30.168526    0.323140   -0.147309
     81          6           0       27.193926   -1.345179   -0.343093
     82          6           0       28.347569    3.323929   -0.732121
     83          6           0       33.010995    2.047216    0.430481
     84          6           0       31.618121   -2.493283    1.303061
     85          7           0       27.860769    0.959454   -0.133417
     86          6           0       26.899864    0.043592   -0.440948
     87          6           0       25.578101    0.735291   -0.629211
     88          6           0       25.949927    2.278633   -0.726088
     89          6           0       27.499600    2.250115   -0.536641
     90          6           0       25.231788    3.068846   -1.758252
     91          6           0       24.355165    0.397697    0.348460
     92          6           0       24.664849    0.021665    1.767144
     93          1           0       23.873241    0.728309    2.858612
     94          7           0       30.647808    2.355978   -0.386704
     95          6           0       29.810585    3.396649   -0.645194
     96          6           0       30.504218    4.650008   -0.685052
     97          6           0       31.926715    4.270916   -0.456802
     98          6           0       31.914489    2.829253   -0.125591
     99          6           0       29.968499    5.977652   -0.938712
    100          6           0       33.170492    5.145115   -0.528544
    101          8           0       33.075307    6.315534   -0.641508
    102          6           0       34.594262    4.688937   -0.368538
    103          7           0       31.964001   -0.117150    0.842800
    104          6           0       33.016934    0.711250    0.769071
    105          6           0       34.259573    0.134179    1.629202
    106          6           0       33.897447   -1.428231    1.544367
    107          6           0       32.416077   -1.324284    1.269925
    108          6           0       35.654402    0.468076    1.092872
    109          6           0       34.353854   -2.215176    2.786159
    110          6           0       35.114649   -3.538346    2.640396
    111          7           0       29.521105   -1.520614    0.484931
    112          6           0       30.203800   -2.604381    1.023126
    113          6           0       29.387967   -3.754322    1.083433
    114          6           0       28.188245   -3.364262    0.511522
    115          6           0       28.302854   -1.974846    0.151383
    116          6           0       29.759471   -5.120029    1.572629
    117          6           0       26.902295   -3.714330    0.071449
    118          8           0       26.358159   -4.812702    0.165117
    119          6           0       26.136234   -2.423055   -0.334281
    120          6           0       25.574341   -2.772043   -1.704607
    121          8           0       24.372393   -2.647899   -2.021912
    122          8           0       26.636864   -3.090994   -2.516950
    123          6           0       26.487723   -3.245541   -3.984720
    124          1           0       27.717843    4.214143   -0.789520
    125          1           0       33.850360    2.638306    0.802361
    126          1           0       32.101509   -3.391144    1.692828
    127          1           0       25.142848    0.393229   -1.568887
    128          1           0       25.637104    2.719164    0.220137
    129          1           0       25.891173    3.684218   -2.370208
    130          1           0       24.393166    3.626651   -1.341488
    131          1           0       24.787219    2.389177   -2.485300
    132          1           0       23.737034   -0.439202    0.023265
    133          1           0       23.751812    1.294218    0.494380
    134          1           0       25.726935   -0.043001    2.001203
    135          1           0       24.277101   -0.986676    1.915763
    136          1           0       29.110265    5.886771   -1.603770
    137          1           0       30.684665    6.670195   -1.379363
    138          1           0       29.644922    6.372428    0.025057
    139          1           0       34.427890    3.703771   -0.804929
    140          1           0       34.900009    4.608394    0.674131
    141          1           0       35.362066    5.258892   -0.891987
    142          1           0       34.087017    0.466838    2.653207
    143          1           0       34.266350   -2.004694    0.696375
    144          1           0       36.047478   -0.445623    0.646228
    145          1           0       36.240912    0.980945    1.854597
    146          1           0       35.639379    1.201515    0.287230
    147          1           0       33.456519   -2.414795    3.372466
    148          1           0       34.909490   -1.530657    3.427273
    149          1           0       36.033764   -3.677743    3.209717
    150          1           0       35.279210   -3.822289    1.600149
    151          1           0       34.347418   -4.264711    2.906543
    152          1           0       29.277765   -5.941426    1.041640
    153          1           0       29.500094   -5.189072    2.629320
    154          1           0       30.821077   -5.344074    1.460346
    155          1           0       25.378134   -2.341006    0.443646
    156          1           0       27.334478   -2.838421   -4.537041
    157          1           0       25.579380   -2.725067   -4.288665
    158          1           0       26.365476   -4.231770   -4.430752
 ---------------------------------------------------------------------

 SCF Done:  E(RwB97XD) =  -4070.55340017     A.U. after   19 cycles

 Excitation energies and oscillator strengths:

 Excited State   1:      Singlet-A      1.5770 eV  786.21 nm  f=0.3848  <S**2>=0.000
     309 -> 315        0.17494
     311 -> 313        0.68654
     309 <- 315        0.11857
 This state for optimization and/or second-order correction.
 Total Energy, E(TD-HF/TD-DFT) =  -4070.49544677
 Copying the excited state density for this state as the 1-particle RhoCI density.

 Excited State   2:      Singlet-A      1.6258 eV  762.62 nm  f=0.3953  <S**2>=0.000
     310 -> 316       -0.17887
     312 -> 314        0.68467
     310 <- 316       -0.11342

 Excited State   3:      Singlet-A      2.0921 eV  592.62 nm  f=0.1442  <S**2>=0.000
     309 -> 313        0.64988
     311 -> 315       -0.25887

 Excited State   4:      Singlet-A      2.1420 eV  578.83 nm  f=0.1180  <S**2>=0.000
     310 -> 314        0.64311
     312 -> 316        0.27658

 Excited State   5:      Singlet-A      3.0083 eV  412.14 nm  f=0.0074  <S**2>=0.000
     307 -> 313       -0.21738
     308 -> 313        0.63601
     308 -> 318       -0.12454

 The electronic state is 1-A.
 Alpha  occ. eigenvalues --  -46.96306 -46.95444 -19.31479 -19.29661 -19.25328
 Alpha  occ. eigenvalues --  -19.24716 -19.24301 -19.24272 -19.23611 -19.22186
 Alpha  occ. eigenvalues --  -14.47177 -14.46779 -14.46652 -14.46320 -14.44747
 Alpha  occ. eigenvalues --  -14.44612 -14.44290 -14.43736 -10.44398 -10.43191
 Alpha  occ. eigenvalues --  -10.39473 -10.39370 -10.38355 -10.37469 -10.36570
 Alpha  occ. eigenvalues --  -10.36148 -10.36069 -10.35662 -10.35301 -10.35262
 Alpha  occ. eigenvalues --  -10.35101 -10.35014 -10.34925 -10.34861 -10.34698
 Alpha  occ. eigenvalues --  -10.34670 -10.34650 -10.34152 -10.34030 -10.33769
 Alpha  occ. eigenvalues --  -10.33448 -10.33282 -10.33045 -10.32994 -10.32959
 Alpha  occ. eigenvalues --  -10.32578 -10.32525 -10.32508 -10.32406 -10.32367
 Alpha  occ. eigenvalues --  -10.32366 -10.32279 -10.32234 -10.31995 -10.31918
 Alpha  occ. eigenvalues --  -10.31875 -10.31816 -10.31799 -10.31749 -10.31630
 Alpha  occ. eigenvalues --  -10.31598 -10.31594 -10.31586 -10.31561 -10.31430
 Alpha  occ. eigenvalues --  -10.31280 -10.30756 -10.30753 -10.30709 -10.30705
 Alpha  occ. eigenvalues --  -10.30691 -10.30513 -10.30388 -10.30320 -10.30210
 Alpha  occ. eigenvalues --  -10.30195 -10.30069 -10.29911 -10.29624 -10.29389
 Alpha  occ. eigenvalues --  -10.29311 -10.29114 -10.29006 -10.28939 -10.28794
 Alpha  occ. eigenvalues --  -10.28742  -3.22239  -3.21294  -1.95780  -1.95396
 Alpha  occ. eigenvalues --   -1.95179  -1.94893  -1.94372  -1.94293  -1.17934
 Alpha  occ. eigenvalues --   -1.17891  -1.13581  -1.12708  -1.12197  -1.11658
 Alpha  occ. eigenvalues --   -1.09491  -1.09030  -1.07214  -1.06434  -1.06287
 Alpha  occ. eigenvalues --   -1.04937  -1.04783  -1.04630  -1.04164  -1.03688
 Alpha  occ. eigenvalues --   -0.95748  -0.95312  -0.91722  -0.91106  -0.90630
 Alpha  occ. eigenvalues --   -0.90618  -0.90317  -0.89916  -0.89896  -0.89190
 Alpha  occ. eigenvalues --   -0.89027  -0.88790  -0.87792  -0.87504  -0.86458
 Alpha  occ. eigenvalues --   -0.86240  -0.85915  -0.85740  -0.85010  -0.84610
 Alpha  occ. eigenvalues --   -0.84326  -0.84101  -0.82943  -0.82825  -0.82557
 Alpha  occ. eigenvalues --   -0.81980  -0.80471  -0.80088  -0.79755  -0.79176
 Alpha  occ. eigenvalues --   -0.78919  -0.78696  -0.78657  -0.77842  -0.77439
 Alpha  occ. eigenvalues --   -0.76474  -0.75594  -0.74499  -0.73749  -0.72976
 Alpha  occ. eigenvalues --   -0.71975  -0.71387  -0.71026  -0.70389  -0.70356
 Alpha  occ. eigenvalues --   -0.69859  -0.69072  -0.68569  -0.68208  -0.67513
 Alpha  occ. eigenvalues --   -0.67313  -0.66819  -0.66698  -0.66637  -0.66386
 Alpha  occ. eigenvalues --   -0.65874  -0.65608  -0.64094  -0.62290  -0.62143
 Alpha  occ. eigenvalues --   -0.61589  -0.61461  -0.61044  -0.60861  -0.60736
 Alpha  occ. eigenvalues --   -0.60326  -0.60055  -0.59634  -0.59581  -0.59217
 Alpha  occ. eigenvalues --   -0.58508  -0.57839  -0.57805  -0.57703  -0.57266
 Alpha  occ. eigenvalues --   -0.57070  -0.57007  -0.56708  -0.56403  -0.55962
 Alpha  occ. eigenvalues --   -0.55553  -0.55480  -0.55307  -0.55287  -0.55229
 Alpha  occ. eigenvalues --   -0.55096  -0.54843  -0.54743  -0.54431  -0.54051
 Alpha  occ. eigenvalues --   -0.53799  -0.53759  -0.53735  -0.53650  -0.53331
 Alpha  occ. eigenvalues --   -0.53304  -0.53047  -0.52684  -0.52649  -0.52552
 Alpha  occ. eigenvalues --   -0.52312  -0.51916  -0.51822  -0.51631  -0.51542
 Alpha  occ. eigenvalues --   -0.51454  -0.51209  -0.51183  -0.51126  -0.50947
 Alpha  occ. eigenvalues --   -0.50945  -0.50550  -0.50142  -0.50061  -0.49822
 Alpha  occ. eigenvalues --   -0.49778  -0.49485  -0.49333  -0.49291  -0.49157
 Alpha  occ. eigenvalues --   -0.49096  -0.49043  -0.48821  -0.48630  -0.48379
 Alpha  occ. eigenvalues --   -0.48293  -0.48066  -0.47945  -0.47813  -0.47580
 Alpha  occ. eigenvalues --   -0.47472  -0.47266  -0.47153  -0.46968  -0.46887
 Alpha  occ. eigenvalues --   -0.46820  -0.46688  -0.46370  -0.46301  -0.46126
 Alpha  occ. eigenvalues --   -0.46121  -0.45942  -0.45516  -0.45346  -0.45308
 Alpha  occ. eigenvalues --   -0.45129  -0.44987  -0.44963  -0.44790  -0.44665
 Alpha  occ. eigenvalues --   -0.44606  -0.44554  -0.44376  -0.44238  -0.44046
 Alpha  occ. eigenvalues --   -0.43939  -0.43739  -0.43651  -0.43419  -0.43418
 Alpha  occ. eigenvalues --   -0.43207  -0.43181  -0.42984  -0.42457  -0.42298
 Alpha  occ. eigenvalues --   -0.42181  -0.41856  -0.40946  -0.40810  -0.40631
 Alpha  occ. eigenvalues --   -0.40335  -0.39949  -0.39899  -0.39874  -0.39663
 Alpha  occ. eigenvalues --   -0.39439  -0.38980  -0.38600  -0.38292  -0.38155
 Alpha  occ. eigenvalues --   -0.37752  -0.37540  -0.36803  -0.36289  -0.36040
 Alpha  occ. eigenvalues --   -0.35855  -0.35321  -0.34863  -0.33803  -0.33546
 Alpha  occ. eigenvalues --   -0.33498  -0.33376  -0.33070  -0.32583  -0.32447
 Alpha  occ. eigenvalues --   -0.32162  -0.31532  -0.30400  -0.26388  -0.25716
 Alpha  occ. eigenvalues --   -0.23524  -0.22728
 Alpha virt. eigenvalues --   -0.08041  -0.07006  -0.00024   0.00472   0.02244
 Alpha virt. eigenvalues --    0.02334   0.04000   0.04075   0.04830   0.05542
 Alpha virt. eigenvalues --    0.06651   0.07357   0.07398   0.07797   0.08226

 Mulliken charges:
               1
     1  Mg   0.955524
     2  C   -0.016131
     3  C   -0.071927
     4  C   -0.061407
     5  C   -0.075404
     6  N   -0.370325
     7  C   -0.076496
     8  C   -0.019337
     9  C   -0.128207
    10  C    0.112541
    11  C    0.004201
    12  C    0.005688
    13  C   -0.087415
    14  H    0.044134
    15  N   -0.442549
    16  C    0.155444
    17  C   -0.170802
    18  C   -0.084781
    19  C    0.094786
    20  C    0.080313
    21  C    0.059017
    22  O   -0.231362
    23  C   -0.015806
    24  N   -0.372723
    25  C    0.091414
    26  C   -0.107466
    27  C   -0.062917
    28  C    0.055540
    29  C    0.009043
    30  C    0.009697
    31  C   -0.064276
    32  N   -0.405477
    33  C    0.114603
    34  C   -0.207881
    35  C   -0.016000
    36  C    0.137345
    37  C    0.069690
    38  C    0.119850
    39  O   -0.196938
    40  C   -0.032965
    41  C    0.261350
    42  O   -0.260791
    43  O   -0.368898
    44  C    0.150878
    45  H   -0.002601
    46  H    0.022735
    47  H   -0.005004
    48  H    0.035168
    49  H    0.041289
    50  H    0.033200
    51  H    0.028436
    52  H    0.050204
    53  H    0.018842
    54  H    0.026430
    55  H    0.050757
    56  H    0.056882
    57  H    0.044909
    58  H    0.041629
    59  H    0.050553
    60  H    0.068935
    61  H    0.058677
    62  H    0.044875
    63  H    0.042170
    64  H    0.041186
    65  H    0.028406
    66  H    0.042379
    67  H    0.055140
    68  H    0.035734
    69  H    0.040892
    70  H    0.024672
    71  H    0.026469
    72  H    0.047223
    73  H    0.017830
    74  H    0.060239
    75  H    0.049677
    76  H    0.082139
    77  H    0.044825
    78  H    0.059113
    79  H    0.053215
    80  Mg   0.958292
    81  C    0.008339
    82  C   -0.083380
    83  C   -0.083917
    84  C   -0.096684
    85  N   -0.330676
    86  C   -0.005402
    87  C   -0.018826
    88  C   -0.091852
    89  C    0.035633
    90  C    0.041619
    91  C   -0.010941
    92  C   -0.168617
    93  H    0.030016
    94  N   -0.448349
    95  C    0.171589
    96  C   -0.181751
    97  C   -0.096671
    98  C    0.137261
    99  C    0.086362
   100  C    0.013458
   101  O   -0.209784
   102  C   -0.015014
   103  N   -0.361481
   104  C    0.084216
   105  C   -0.139003
   106  C   -0.084301
   107  C    0.074805
   108  C    0.050073
   109  C   -0.015337
   110  C   -0.044756
   111  N   -0.442126
   112  C    0.139431
   113  C   -0.188130
   114  C    0.058673
   115  C    0.109824
   116  C    0.078521
   117  C    0.062432
   118  O   -0.216436
   119  C   -0.121391
   120  C    0.312930
   121  O   -0.256634
   122  O   -0.379229
   123  C    0.145012
   124  H    0.008471
   125  H    0.003746
   126  H   -0.014193
   127  H    0.042137
   128  H    0.049771
   129  H    0.035471
   130  H    0.041472
   131  H    0.026936
   132  H    0.059253
   133  H    0.045143
   134  H    0.064476
   135  H    0.055826
   136  H    0.031674
   137  H    0.063171
   138  H    0.053807
   139  H    0.032392
   140  H    0.070917
   141  H    0.057987
   142  H    0.056102
   143  H    0.040607
   144  H    0.038893
   145  H    0.039567
   146  H    0.032337
   147  H    0.030269
   148  H    0.027705
   149  H    0.056404
   150  H    0.025817
   151  H    0.030891
   152  H    0.060952
   153  H    0.060887
   154  H    0.031917
   155  H    0.065593
   156  H    0.053561
   157  H    0.053929
   158  H    0.058314
 Sum of Mulliken charges =  -0.00000

 Dipole moment (field-independent basis, Debye):
    X=             -0.4034    Y=              0.0055    Z=             -3.0249  Tot=              3.0517
 Quadrupole moment (field-independent basis, Debye-Ang):
   XX=            -28.0527   YY=           -544.3913   ZZ=           -465.0006
   XY=           -103.8256   XZ=             57.2553   YZ=             -9.6061

 Normal termination of Gaussian 16 at Sun Sep 19 22:18:15 2021.
