 Gaussian 16, Revision A.03,
 Gaussian 16:  ES64L-G16RevA.03 25-Dec-2016

 --------------------------------
 #p wB97XD/Def2SVP td=(nstates=5)
 --------------------------------

 --------------------------------
 TDDFT excited states in gaussian
 --------------------------------
 Symbolic Z-matrix:
 Charge =  0 Multiplicity = 1

                         Standard orientation:
 ---------------------------------------------------------------------
 Center     Atomic      Atomic             Coordinates (Angstroms)
 Number     Number       Type             X           Y           Z
 ---------------------------------------------------------------------
      1         12           0        4.821276   -0.709797   -0.243587
      2          6           0        3.127023    2.334002   -0.860635
      3          6           0        7.687699    1.093909    0.421197
      4          6           0        6.490368   -3.643530    0.054679
      5          6           0        1.944539   -2.504091   -1.134821
      6          7           0        5.269590    1.455777   -0.349987
      7          6           0        4.389412    2.533939   -0.403789
      8          6           0        5.140654    3.906447   -0.160335
      9          6           0        6.616664    3.443026   -0.037250
     10          6           0        6.562502    1.898853   -0.036742
     11          6           0        7.649320    3.962387   -1.106371
     12          6           0        4.560141    4.842743    0.977230
     13          6           0        4.115318    6.199728    0.522158
     14          1           0        4.383352    7.390590    1.525401
     15          7           0        6.774831   -1.142948    0.162614
     16          6           0        7.812810   -0.290262    0.479271
     17          6           0        9.024254   -1.064311    0.700525
     18          6           0        8.729963   -2.454129    0.607812
     19          6           0        7.256902   -2.476626    0.280250
     20          6           0       10.368851   -0.454405    1.145206
     21          6           0        9.630163   -3.666524    0.822843
     22          8           0        9.235472   -4.814153    0.799609
     23          6           0       11.163760   -3.580059    1.208314
     24          7           0        4.301436   -2.801345   -0.602368
     25          6           0        5.156186   -3.796668   -0.405856
     26          6           0        4.497587   -5.198649   -0.664332
     27          6           0        2.974338   -4.826645   -0.858121
     28          6           0        3.047753   -3.269829   -0.843317
     29          6           0        5.208105   -5.974245   -1.811093
     30          6           0        2.091270   -5.462939    0.196987
     31          6           0        0.778052   -6.024418   -0.345163
     32          7           0        2.929707   -0.291156   -1.009109
     33          6           0        1.830863   -1.098524   -1.232386
     34          6           0        0.787648   -0.265094   -1.745809
     35          6           0        1.200545    1.081240   -1.588881
     36          6           0        2.547264    1.041968   -1.131522
     37          6           0       -0.525586   -0.726258   -2.253871
     38          6           0        0.762176    2.485082   -1.676967
     39          8           0       -0.249004    3.016117   -2.126871
     40          6           0        2.113770    3.381820   -1.121348
     41          6           0        2.519088    4.313685   -2.126950
     42          8           0        3.493370    4.183240   -2.835843
     43          8           0        1.733005    5.443214   -2.092199
     44          6           0        2.081508    6.416040   -3.157495
     45          1           0        8.580816    1.624308    0.758619
     46          1           0        6.988433   -4.614161    0.089623
     47          1           0        1.071183   -3.136700   -1.310352
     48          1           0        5.129581    4.389908   -1.136595
     49          1           0        7.031819    3.734542    0.927558
     50          1           0        8.569170    4.186669   -0.565402
     51          1           0        7.229966    4.844328   -1.589922
     52          1           0        7.887281    3.241720   -1.888999
     53          1           0        5.338485    4.901340    1.738177
     54          1           0        3.676395    4.342120    1.373162
     55          1           0        3.038761    6.193470    0.346618
     56          1           0        4.646786    6.336654   -0.419169
     57          1           0       10.522451   -0.823118    2.158763
     58          1           0       10.246097    0.622069    1.266862
     59          1           0       11.238130   -0.731341    0.547456
     60          1           0       11.245551   -2.996409    2.125881
     61          1           0       11.800586   -3.335011    0.357796
     62          1           0       11.476187   -4.619533    1.303637
     63          1           0        4.523291   -5.857428    0.203452
     64          1           0        2.723203   -5.128733   -1.875059
     65          1           0        4.449025   -6.310982   -2.517716
     66          1           0        5.846219   -6.783733   -1.455735
     67          1           0        5.880344   -5.303338   -2.343444
     68          1           0        1.864158   -4.776295    1.011830
     69          1           0        2.569325   -6.270741    0.753253
     70          1           0        0.610256   -5.719528   -1.378164
     71          1           0       -0.013160   -5.590281    0.266719
     72          1           0        0.690289   -7.100339   -0.193367
     73          1           0       -0.713327   -1.799920   -2.256770
     74          1           0       -0.707544   -0.164973   -3.171153
     75          1           0       -1.199820   -0.470453   -1.436164
     76          1           0        1.833125    3.918515   -0.214645
     77          1           0        1.959000    5.951959   -4.136377
     78          1           0        3.089388    6.762584   -2.929200
     79          1           0        1.422003    7.282869   -3.173067
     80         12           0       -4.958376   -0.643547    0.283412
     81          6           0       -2.752793    1.970670    1.014310
     82          6           0       -7.315032    1.804068   -0.418980
     83          6           0       -7.134504   -3.044624    0.017771
     84          6           0       -2.436480   -2.921867    1.279893
     85          7           0       -5.147301    1.674339    0.686611
     86          6           0       -4.083104    2.472829    0.818215
     87          6           0       -4.556542    3.883348    0.704448
     88          6           0       -6.101952    3.789167    0.684178
     89          6           0       -6.233173    2.339507    0.261010
     90          6           0       -6.902667    4.126805    1.943073
     91          6           0       -4.000478    4.584080   -0.575641
     92          6           0       -3.339632    5.993990   -0.441415
     93          1           0       -3.825429    6.957819    0.685721
     94          7           0       -6.959614   -0.630778   -0.298519
     95          6           0       -7.660492    0.491874   -0.718738
     96          6           0       -8.936396    0.031307   -1.160920
     97          6           0       -8.976919   -1.401243   -0.924905
     98          6           0       -7.674939   -1.776905   -0.394232
     99          6           0      -10.077262    0.947389   -1.655205
    100          6           0      -10.150199   -2.407428   -1.102473
    101          8           0      -10.083298   -3.570537   -0.859336
    102          6           0      -11.428431   -1.839743   -1.687488
    103          7           0       -4.766604   -2.671525    0.598451
    104          6           0       -5.856712   -3.462242    0.480926
    105          6           0       -5.579421   -4.964457    0.763829
    106          6           0       -3.996936   -4.927262    0.902678
    107          6           0       -3.673551   -3.437881    0.905265
    108          6           0       -6.405312   -5.464974    2.084442
    109          6           0       -3.253022   -5.810948   -0.147319
    110          6           0       -2.697541   -5.127854   -1.384158
    111          7           0       -2.948415   -0.577582    0.978492
    112          6           0       -2.045826   -1.570509    1.248650
    113          6           0       -0.736923   -0.925313    1.617183
    114          6           0       -0.992192    0.461904    1.529553
    115          6           0       -2.368788    0.653832    1.175778
    116          6           0        0.501462   -1.592444    2.151163
    117          6           0       -0.406191    1.790859    1.686217
    118          8           0        0.745612    2.077651    2.024851
    119          6           0       -1.472143    2.770168    1.203768
    120          6           0       -1.588522    3.808303    2.282843
    121          8           0       -2.183451    3.662882    3.334947
    122          8           0       -0.771383    4.787133    1.930414
    123          6           0       -0.353138    5.735260    2.951031
    124          1           0       -8.097738    2.560420   -0.501568
    125          1           0       -7.793178   -3.876392   -0.239408
    126          1           0       -1.654791   -3.626456    1.572454
    127          1           0       -4.197740    4.440563    1.569241
    128          1           0       -6.436401    4.520849   -0.051386
    129          1           0       -6.329265    4.469499    2.804577
    130          1           0       -7.489614    3.263905    2.258951
    131          1           0       -7.593275    4.919165    1.655258
    132          1           0       -4.712861    4.613331   -1.399849
    133          1           0       -3.244854    3.850448   -0.856221
    134          1           0       -3.545577    6.460464   -1.405616
    135          1           0       -2.264173    5.862746   -0.324738
    136          1           0      -11.018302    0.785393   -1.129468
    137          1           0      -10.362340    0.734079   -2.685530
    138          1           0       -9.847860    2.013251   -1.621120
    139          1           0      -11.260187   -1.279321   -2.607352
    140          1           0      -11.915506   -1.244912   -0.914708
    141          1           0      -12.163676   -2.631628   -1.830315
    142          1           0       -5.877884   -5.607920   -0.063623
    143          1           0       -3.640608   -5.355744    1.839339
    144          1           0       -5.637794   -5.595154    2.847497
    145          1           0       -6.825599   -6.465565    1.980665
    146          1           0       -7.095320   -4.722005    2.486017
    147          1           0       -4.036618   -6.458612   -0.540771
    148          1           0       -2.485039   -6.438867    0.303907
    149          1           0       -3.495944   -4.450966   -1.690693
    150          1           0       -2.559556   -5.979090   -2.050424
    151          1           0       -1.826664   -4.476081   -1.319296
    152          1           0        0.466990   -2.659135    2.372922
    153          1           0        0.792177   -1.110973    3.084958
    154          1           0        1.285882   -1.342000    1.437671
    155          1           0       -1.181856    3.375020    0.344480
    156          1           0       -0.631683    5.575757    3.992209
    157          1           0       -0.881098    6.643518    2.658850
    158          1           0        0.632844    6.112273    2.679089
 ---------------------------------------------------------------------

 SCF Done:  E(RwB97XD) =  -4070.63747815     A.U. after   20 cycles

 Excitation energies and oscillator strengths:

 Excited State   1:      Singlet-A      1.6419 eV  755.14 nm  f=0.7812  <S**2>=0.000
     310 -> 316       -0.16688
     311 -> 313        0.22923
     311 -> 314       -0.14593
     312 -> 313        0.26531
     312 -> 314        0.56992
     310 <- 316       -0.10622
 This state for optimization and/or second-order correction.
 Total Energy, E(TD-HF/TD-DFT) =  -4070.57714047
 Copying the excited state density for this state as the 1-particle RhoCI density.

 Excited State   2:      Singlet-A      1.7638 eV  702.93 nm  f=0.1322  <S**2>=0.000
     309 -> 315        0.16372
     311 -> 313        0.60099
     311 -> 314       -0.17014
     312 -> 314       -0.27190

 Excited State   3:      Singlet-A      2.1498 eV  576.73 nm  f=0.0357  <S**2>=0.000
     309 -> 313        0.15408
     309 -> 314       -0.10973
     310 -> 313        0.24175
     310 -> 314        0.56683
     312 -> 316        0.26205

 Excited State   4:      Singlet-A      2.1985 eV  563.95 nm  f=0.1378  <S**2>=0.000
     309 -> 313        0.58250
     309 -> 314       -0.18216
     310 -> 314       -0.18218
     311 -> 315       -0.26595

 Excited State   5:      Singlet-A      2.5960 eV  477.59 nm  f=0.0010  <S**2>=0.000
     311 -> 313        0.21839
     311 -> 314        0.65037

 The electronic state is 1-A.
 Alpha  occ. eigenvalues --  -46.94775 -46.94465 -19.31173 -19.29586 -19.24916
 Alpha  occ. eigenvalues --  -19.24702 -19.24448 -19.24225 -19.24076 -19.23302
 Alpha  occ. eigenvalues --  -14.46784 -14.46291 -14.46056 -14.45792 -14.44931
 Alpha  occ. eigenvalues --  -14.43665 -14.43229 -14.42966 -10.42601 -10.42050
 Alpha  occ. eigenvalues --  -10.40408 -10.40195 -10.39310 -10.38128 -10.36563
 Alpha  occ. eigenvalues --  -10.36123 -10.35565 -10.35337 -10.35209 -10.35122
 Alpha  occ. eigenvalues --  -10.34885 -10.34862 -10.34509 -10.34470 -10.34414
 Alpha  occ. eigenvalues --  -10.33976 -10.33735 -10.33303 -10.33302 -10.33226
 Alpha  occ. eigenvalues --  -10.33018 -10.32958 -10.32665 -10.32578 -10.32510
 Alpha  occ. eigenvalues --  -10.32477 -10.32320 -10.32263 -10.31991 -10.31957
 Alpha  occ. eigenvalues --  -10.31955 -10.31836 -10.31825 -10.31712 -10.31687
 Alpha  occ. eigenvalues --  -10.31641 -10.31489 -10.31485 -10.31407 -10.30969
 Alpha  occ. eigenvalues --  -10.30877 -10.30615 -10.30526 -10.30520 -10.30515
 Alpha  occ. eigenvalues --  -10.30479 -10.30380 -10.30305 -10.30284 -10.30268
 Alpha  occ. eigenvalues --  -10.30239 -10.30120 -10.30047 -10.30039 -10.30030
 Alpha  occ. eigenvalues --  -10.30005 -10.29720 -10.29650 -10.29626 -10.29616
 Alpha  occ. eigenvalues --  -10.29404 -10.28958 -10.28799 -10.28791 -10.28787
 Alpha  occ. eigenvalues --  -10.28779  -3.20687  -3.20438  -1.94281  -1.94034
 Alpha  occ. eigenvalues --   -1.93845  -1.93617  -1.93553  -1.93419  -1.20193
 Alpha  occ. eigenvalues --   -1.18001  -1.13749  -1.13259  -1.11813  -1.11714
 Alpha  occ. eigenvalues --   -1.10504  -1.09595  -1.06587  -1.06058  -1.05500
 Alpha  occ. eigenvalues --   -1.04457  -1.04365  -1.03865  -1.03534  -1.02841
 Alpha  occ. eigenvalues --   -0.94940  -0.93600  -0.91088  -0.90429  -0.90145
 Alpha  occ. eigenvalues --   -0.89959  -0.89793  -0.89609  -0.89198  -0.88765
 Alpha  occ. eigenvalues --   -0.88725  -0.87896  -0.87373  -0.87083  -0.86176
 Alpha  occ. eigenvalues --   -0.86007  -0.85578  -0.85153  -0.84411  -0.84306
 Alpha  occ. eigenvalues --   -0.82930  -0.82869  -0.82638  -0.82405  -0.81998
 Alpha  occ. eigenvalues --   -0.81605  -0.80386  -0.79549  -0.78936  -0.78879
 Alpha  occ. eigenvalues --   -0.78434  -0.78266  -0.77918  -0.77646  -0.76725
 Alpha  occ. eigenvalues --   -0.76632  -0.74337  -0.74128  -0.73363  -0.73229
 Alpha  occ. eigenvalues --   -0.71342  -0.71055  -0.70883  -0.70531  -0.69433
 Alpha  occ. eigenvalues --   -0.69278  -0.69007  -0.67656  -0.67581  -0.66812
 Alpha  occ. eigenvalues --   -0.66690  -0.66634  -0.66514  -0.66301  -0.66226
 Alpha  occ. eigenvalues --   -0.65942  -0.64502  -0.63128  -0.62063  -0.61496
 Alpha  occ. eigenvalues --   -0.61260  -0.61125  -0.60773  -0.60658  -0.60115
 Alpha  occ. eigenvalues --   -0.59919  -0.59787  -0.59475  -0.59027  -0.58886
 Alpha  occ. eigenvalues --   -0.58532  -0.57914  -0.57675  -0.57651  -0.56713
 Alpha  occ. eigenvalues --   -0.56640  -0.56495  -0.56357  -0.56175  -0.55654
 Alpha  occ. eigenvalues --   -0.55281  -0.55183  -0.55123  -0.54968  -0.54717
 Alpha  occ. eigenvalues --   -0.54463  -0.54273  -0.54028  -0.53996  -0.53696
 Alpha  occ. eigenvalues --   -0.53591  -0.53503  -0.53437  -0.53210  -0.52979
 Alpha  occ. eigenvalues --   -0.52841  -0.52761  -0.52693  -0.52363  -0.52102
 Alpha  occ. eigenvalues --   -0.51865  -0.51611  -0.51510  -0.51381  -0.51128
 Alpha  occ. eigenvalues --   -0.50925  -0.50809  -0.50538  -0.50459  -0.50408
 Alpha  occ. eigenvalues --   -0.50259  -0.50035  -0.49967  -0.49914  -0.49618
 Alpha  occ. eigenvalues --   -0.49604  -0.49492  -0.49418  -0.49179  -0.48708
 Alpha  occ. eigenvalues --   -0.48620  -0.48226  -0.48102  -0.48024  -0.47892
 Alpha  occ. eigenvalues --   -0.47588  -0.47551  -0.47529  -0.47444  -0.47238
 Alpha  occ. eigenvalues --   -0.47155  -0.47032  -0.46892  -0.46739  -0.46657
 Alpha  occ. eigenvalues --   -0.46590  -0.46545  -0.46363  -0.46051  -0.45875
 Alpha  occ. eigenvalues --   -0.45778  -0.45450  -0.45336  -0.45283  -0.45099
 Alpha  occ. eigenvalues --   -0.44963  -0.44938  -0.44882  -0.44659  -0.44507
 Alpha  occ. eigenvalues --   -0.44303  -0.44245  -0.44201  -0.43764  -0.43720
 Alpha  occ. eigenvalues --   -0.43491  -0.43208  -0.43112  -0.43057  -0.42762
 Alpha  occ. eigenvalues --   -0.42685  -0.42348  -0.42267  -0.42215  -0.41820
 Alpha  occ. eigenvalues --   -0.41691  -0.41659  -0.41154  -0.41051  -0.40812
 Alpha  occ. eigenvalues --   -0.40625  -0.40182  -0.39578  -0.39140  -0.38881
 Alpha  occ. eigenvalues --   -0.38729  -0.38677  -0.38290  -0.38263  -0.37877
 Alpha  occ. eigenvalues --   -0.37801  -0.37751  -0.36177  -0.35980  -0.35749
 Alpha  occ. eigenvalues --   -0.35717  -0.35196  -0.34982  -0.33833  -0.33445
 Alpha  occ. eigenvalues --   -0.33221  -0.32853  -0.32608  -0.32358  -0.32013
 Alpha  occ. eigenvalues --   -0.31939  -0.30775  -0.30547  -0.25903  -0.25361
 Alpha  occ. eigenvalues --   -0.23086  -0.22541
 Alpha virt. eigenvalues --   -0.06820  -0.06468   0.00220   0.00722   0.01895
 Alpha virt. eigenvalues --    0.02658   0.04123   0.05326   0.06298   0.06351
 Alpha virt. eigenvalues --    0.06935   0.07836   0.08215   0.08273   0.08538

 Mulliken charges:
               1
     1  Mg   0.953083
     2  C    0.031406
     3  C   -0.099208
     4  C   -0.066947
     5  C   -0.067821
     6  N   -0.381761
     7  C   -0.007352
     8  C   -0.055149
     9  C   -0.157055
    10  C    0.114226
    11  C    0.022844
    12  C    0.044372
    13  C   -0.136815
    14  H    0.025080
    15  N   -0.509387
    16  C    0.184317
    17  C   -0.167749
    18  C   -0.051843
    19  C    0.185638
    20  C    0.065804
    21  C    0.037480
    22  O   -0.218496
    23  C   -0.019090
    24  N   -0.317659
    25  C    0.039048
    26  C   -0.121292
    27  C   -0.060542
    28  C    0.022668
    29  C    0.018176
    30  C    0.008960
    31  C   -0.062442
    32  N   -0.465468
    33  C    0.147890
    34  C   -0.202319
    35  C   -0.035744
    36  C    0.168187
    37  C    0.102788
    38  C    0.143746
    39  O   -0.214966
    40  C   -0.154821
    41  C    0.268714
    42  O   -0.250153
    43  O   -0.374146
    44  C    0.150083
    45  H   -0.008590
    46  H    0.019846
    47  H   -0.025334
    48  H    0.050177
    49  H    0.033245
    50  H    0.036614
    51  H    0.042797
    52  H    0.050297
    53  H    0.038142
    54  H    0.051540
    55  H    0.064495
    56  H    0.049821
    57  H    0.052751
    58  H    0.034237
    59  H    0.066187
    60  H    0.061753
    61  H    0.055464
    62  H    0.047183
    63  H    0.039800
    64  H    0.034943
    65  H    0.034788
    66  H    0.050648
    67  H    0.041932
    68  H    0.024291
    69  H    0.027243
    70  H    0.046348
    71  H    0.027532
    72  H    0.040659
    73  H    0.016680
    74  H    0.065198
    75  H    0.049201
    76  H    0.083976
    77  H    0.059769
    78  H    0.050412
    79  H    0.049946
    80  Mg   0.940730
    81  C    0.011339
    82  C   -0.052059
    83  C   -0.051088
    84  C   -0.093401
    85  N   -0.282091
    86  C    0.030761
    87  C   -0.104370
    88  C   -0.078802
    89  C   -0.021452
    90  C    0.044416
    91  C   -0.014773
    92  C   -0.107390
    93  H    0.023537
    94  N   -0.486492
    95  C    0.194940
    96  C   -0.162124
    97  C   -0.111343
    98  C    0.127860
    99  C    0.066904
   100  C    0.057218
   101  O   -0.198742
   102  C   -0.024806
   103  N   -0.388465
   104  C    0.068470
   105  C   -0.105271
   106  C   -0.049744
   107  C    0.080826
   108  C    0.015417
   109  C   -0.032866
   110  C   -0.036186
   111  N   -0.427734
   112  C    0.110790
   113  C   -0.179080
   114  C   -0.017640
   115  C    0.129633
   116  C    0.074177
   117  C    0.144233
   118  O   -0.220444
   119  C   -0.106622
   120  C    0.225112
   121  O   -0.249206
   122  O   -0.324632
   123  C    0.145096
   124  H   -0.006373
   125  H    0.023659
   126  H   -0.012587
   127  H    0.038725
   128  H    0.021429
   129  H    0.046149
   130  H    0.039904
   131  H    0.029221
   132  H    0.036044
   133  H    0.047491
   134  H    0.051796
   135  H    0.070107
   136  H    0.036407
   137  H    0.040472
   138  H    0.034624
   139  H    0.057521
   140  H    0.051825
   141  H    0.039130
   142  H    0.049415
   143  H    0.030147
   144  H    0.018293
   145  H    0.045126
   146  H    0.059253
   147  H    0.022219
   148  H    0.026061
   149  H    0.031850
   150  H    0.044667
   151  H    0.037533
   152  H    0.035276
   153  H    0.054607
   154  H    0.075217
   155  H    0.092291
   156  H    0.084341
   157  H    0.028980
   158  H    0.054271
 Sum of Mulliken charges =  -0.00000

 Dipole moment (field-independent basis, Debye):
    X=              4.5374    Y=              1.6237    Z=              0.5033  Tot=              4.8454
 Quadrupole moment (field-independent basis, Debye-Ang):
   XX=           -470.7950   YY=           -470.3617   ZZ=           -520.5686
   XY=             -7.9683   XZ=             20.4168   YZ=             -2.4781

 Normal termination of Gaussian 16 at Mon Sep 20 15:14:20 2021.
