 Gaussian 16, Revision A.03,
 Gaussian 16:  ES64L-G16RevA.03 25-Dec-2016

 --------------------------------
 #p wB97XD/Def2SVP td=(nstates=5)
 --------------------------------

 --------------------------------
 TDDFT excited states in gaussian
 --------------------------------
 Symbolic Z-matrix:
 Charge =  0 Multiplicity = 1

                         Standard orientation:
 ---------------------------------------------------------------------
 Center     Atomic      Atomic             Coordinates (Angstroms)
 Number     Number       Type             X           Y           Z
 ---------------------------------------------------------------------
      1         12           0       30.455070    0.157459   -0.438039
      2          6           0       27.498507   -1.138025    0.802931
      3          6           0       28.761926    3.214834   -1.053297
      4          6           0       33.437218    1.694591   -1.135308
      5          6           0       32.188795   -2.642745    0.602184
      6          7           0       28.339012    0.855561   -0.261183
      7          6           0       27.328985    0.165829    0.375905
      8          6           0       26.033160    1.023108    0.631939
      9          6           0       26.313627    2.277801   -0.322653
     10          6           0       27.905141    2.143904   -0.641778
     11          6           0       25.463759    2.450400   -1.638835
     12          6           0       25.807808    1.427314    2.046415
     13          6           0       24.564440    0.982375    2.792236
     14          1           0       24.071742    1.923050    3.903602
     15          7           0       31.011667    2.169585   -1.110828
     16          6           0       30.111915    3.228064   -1.337658
     17          6           0       30.817346    4.351409   -1.867474
     18          6           0       32.250910    3.975420   -1.752379
     19          6           0       32.313435    2.551492   -1.298843
     20          6           0       30.171173    5.707104   -2.171246
     21          6           0       33.369454    4.971770   -2.103985
     22          8           0       33.239695    6.135858   -2.471662
     23          6           0       34.747358    4.621570   -1.665755
     24          7           0       32.630427   -0.346324   -0.115773
     25          6           0       33.599290    0.398329   -0.665716
     26          6           0       34.923594   -0.162801   -0.149868
     27          6           0       34.592715   -1.643432    0.357739
     28          6           0       33.002834   -1.588410    0.262096
     29          6           0       35.952298   -0.256888   -1.331936
     30          6           0       35.085772   -2.115139    1.787048
     31          6           0       36.118645   -3.224030    1.921773
     32          7           0       29.949157   -1.629917    0.460316
     33          6           0       30.760272   -2.716799    0.801281
     34          6           0       29.979337   -3.721495    1.455840
     35          6           0       28.662777   -3.167273    1.501381
     36          6           0       28.734197   -1.891537    0.817235
     37          6           0       30.425510   -5.041389    2.001312
     38          6           0       27.320614   -3.371455    1.862090
     39          8           0       26.832051   -4.340266    2.408270
     40          6           0       26.526592   -2.054551    1.508819
     41          6           0       25.266367   -2.429816    0.848767
     42          8           0       24.175751   -2.387092    1.406762
     43          8           0       25.513337   -2.849382   -0.449874
     44          6           0       24.289899   -3.285375   -1.159894
     45          1           0       28.342763    4.185728   -1.323959
     46          1           0       34.330664    2.232019   -1.461170
     47          1           0       32.760795   -3.500426    0.961912
     48          1           0       25.162127    0.478525    0.269137
     49          1           0       26.230478    3.165890    0.304861
     50          1           0       24.620693    1.763394   -1.566278
     51          1           0       26.014931    2.272302   -2.562289
     52          1           0       25.148945    3.492581   -1.677053
     53          1           0       25.733432    2.515817    2.045024
     54          1           0       26.630124    1.075745    2.668625
     55          1           0       24.806220    0.056758    3.313798
     56          1           0       23.693444    0.864240    2.148036
     57          1           0       29.123029    5.900024   -1.943696
     58          1           0       30.409267    5.837092   -3.226663
     59          1           0       30.864877    6.416320   -1.720836
     60          1           0       35.395810    4.051052   -2.329291
     61          1           0       34.764117    4.186494   -0.666376
     62          1           0       35.283894    5.567914   -1.587989
     63          1           0       35.351571    0.434127    0.655820
     64          1           0       34.875682   -2.372093   -0.401115
     65          1           0       36.871430    0.215414   -0.985226
     66          1           0       35.632178    0.196160   -2.271065
     67          1           0       36.177693   -1.282498   -1.625107
     68          1           0       34.166918   -2.406890    2.295185
     69          1           0       35.562722   -1.236626    2.223810
     70          1           0       35.958816   -3.637991    2.917678
     71          1           0       37.114905   -2.781582    1.904795
     72          1           0       36.098106   -4.074722    1.241415
     73          1           0       29.531833   -5.509952    2.414321
     74          1           0       31.206598   -4.839627    2.733689
     75          1           0       30.828621   -5.736560    1.264655
     76          1           0       26.271064   -1.642434    2.485603
     77          1           0       24.125616   -4.351367   -1.002860
     78          1           0       24.421311   -2.974162   -2.196200
     79          1           0       23.409811   -2.736835   -0.825466
     80         12           0      -30.554721    0.242682    0.377355
     81          6           0      -27.930815   -1.653322   -1.103308
     82          6           0      -32.162535    0.231532   -2.661953
     83          6           0      -32.860037    2.051963    1.904084
     84          6           0      -28.541953    0.604670    3.333206
     85          7           0      -30.062650   -0.579144   -1.743334
     86          6           0      -28.976311   -1.393747   -2.005256
     87          6           0      -29.129472   -1.856676   -3.494653
     88          6           0      -30.509786   -1.200033   -4.033673
     89          6           0      -30.923966   -0.466943   -2.753703
     90          6           0      -30.401399   -0.345837   -5.313941
     91          6           0      -28.961178   -3.404439   -3.789436
     92          6           0      -27.875652   -3.767360   -4.760606
     93          1           0      -27.399716   -2.855260   -5.860315
     94          7           0      -32.415096    0.958639   -0.285136
     95          6           0      -32.868380    0.853057   -1.562313
     96          6           0      -34.226856    1.331103   -1.538527
     97          6           0      -34.414565    1.947128   -0.282382
     98          6           0      -33.193513    1.709281    0.554159
     99          6           0      -35.088234    1.265311   -2.810990
    100          6           0      -35.560382    2.818122    0.135528
    101          8           0      -35.564817    3.411358    1.240200
    102          6           0      -36.691248    3.031555   -0.800970
    103          7           0      -30.600225    1.240191    2.362566
    104          6           0      -31.678093    1.832249    2.743750
    105          6           0      -31.714784    2.382339    4.267962
    106          6           0      -30.312862    1.924123    4.697850
    107          6           0      -29.785697    1.237933    3.461476
    108          6           0      -31.942668    3.938348    4.261272
    109          6           0      -30.226450    0.997216    5.961043
    110          6           0      -30.715421   -0.460034    5.784813
    111          7           0      -28.651231   -0.264043    0.925950
    112          6           0      -27.989185   -0.015621    2.151347
    113          6           0      -26.693075   -0.706312    2.109251
    114          6           0      -26.635298   -1.365471    0.857838
    115          6           0      -27.875534   -1.101026    0.184341
    116          6           0      -25.639487   -0.722324    3.256988
    117          6           0      -25.831704   -2.181004    0.112401
    118          8           0      -24.713452   -2.616464    0.296998
    119          6           0      -26.618965   -2.488328   -1.191996
    120          6           0      -25.782036   -2.153253   -2.320890
    121          8           0      -25.719963   -1.036070   -2.846458
    122          8           0      -24.889704   -3.201842   -2.573981
    123          6           0      -23.854722   -2.891037   -3.590984
    124          1           0      -32.642062    0.514186   -3.601836
    125          1           0      -33.552050    2.780170    2.332395
    126          1           0      -27.891839    0.680203    4.207280
    127          1           0      -28.208533   -1.423399   -3.882690
    128          1           0      -31.186665   -2.000911   -4.327875
    129          1           0      -31.083583   -0.713728   -6.081417
    130          1           0      -29.409415   -0.243254   -5.753552
    131          1           0      -30.710884    0.647648   -4.989420
    132          1           0      -29.904687   -3.821675   -4.141846
    133          1           0      -28.674480   -3.847085   -2.835481
    134          1           0      -28.302068   -4.516562   -5.428611
    135          1           0      -27.020629   -4.121704   -4.185952
    136          1           0      -34.679798    0.573660   -3.548165
    137          1           0      -35.167341    2.258196   -3.251871
    138          1           0      -36.059397    0.916229   -2.461630
    139          1           0      -37.098026    2.047406   -1.033609
    140          1           0      -36.352141    3.466553   -1.741904
    141          1           0      -37.412977    3.729882   -0.379156
    142          1           0      -32.484784    1.879064    4.853219
    143          1           0      -29.653264    2.789396    4.767541
    144          1           0      -31.513550    4.332140    3.339963
    145          1           0      -31.381135    4.366022    5.092610
    146          1           0      -32.966517    4.306255    4.332985
    147          1           0      -30.657115    1.506677    6.822483
    148          1           0      -29.181125    0.962294    6.266326
    149          1           0      -31.528906   -0.623135    5.078682
    150          1           0      -30.936638   -0.863747    6.773479
    151          1           0      -29.835840   -1.010960    5.452131
    152          1           0      -25.286003   -1.724303    3.500485
    153          1           0      -25.983983   -0.229456    4.165412
    154          1           0      -24.691278   -0.347660    2.870645
    155          1           0      -26.754889   -3.566488   -1.113789
    156          1           0      -23.148991   -2.154939   -3.206859
    157          1           0      -24.242424   -2.454818   -4.510867
    158          1           0      -23.464725   -3.849997   -3.932590
 ---------------------------------------------------------------------

 SCF Done:  E(RwB97XD) =  -4070.59320991     A.U. after   19 cycles

 Excitation energies and oscillator strengths:

 Excited State   1:      Singlet-A      1.6653 eV  744.50 nm  f=0.3792  <S**2>=0.000
     309 -> 315       -0.17865
     311 -> 313        0.68431
     309 <- 315       -0.11349
 This state for optimization and/or second-order correction.
 Total Energy, E(TD-HF/TD-DFT) =  -4070.53200975
 Copying the excited state density for this state as the 1-particle RhoCI density.

 Excited State   2:      Singlet-A      1.7178 eV  721.77 nm  f=0.3745  <S**2>=0.000
     310 -> 316        0.19150
     312 -> 314        0.67997
     310 <- 316        0.11531

 Excited State   3:      Singlet-A      2.1184 eV  585.28 nm  f=0.1556  <S**2>=0.000
     309 -> 313        0.64906
     311 -> 315        0.25656

 Excited State   4:      Singlet-A      2.1591 eV  574.24 nm  f=0.1064  <S**2>=0.000
     310 -> 314        0.63945
     312 -> 316       -0.28264

 Excited State   5:      Singlet-A      3.0629 eV  404.79 nm  f=0.0077  <S**2>=0.000
     307 -> 313        0.68067

 The electronic state is 1-A.
 Alpha  occ. eigenvalues --  -46.96822 -46.96143 -19.30335 -19.29428 -19.24765
 Alpha  occ. eigenvalues --  -19.24197 -19.24162 -19.23873 -19.23291 -19.22486
 Alpha  occ. eigenvalues --  -14.48157 -14.47260 -14.46556 -14.46445 -14.44702
 Alpha  occ. eigenvalues --  -14.44420 -14.44371 -14.44229 -10.42970 -10.42392
 Alpha  occ. eigenvalues --  -10.39305 -10.39084 -10.38146 -10.37275 -10.37195
 Alpha  occ. eigenvalues --  -10.36226 -10.35981 -10.35802 -10.35755 -10.35684
 Alpha  occ. eigenvalues --  -10.35580 -10.35229 -10.35096 -10.35046 -10.34787
 Alpha  occ. eigenvalues --  -10.34553 -10.34483 -10.34143 -10.34099 -10.34086
 Alpha  occ. eigenvalues --  -10.33791 -10.33597 -10.33527 -10.33027 -10.32878
 Alpha  occ. eigenvalues --  -10.32773 -10.32746 -10.32733 -10.32706 -10.32575
 Alpha  occ. eigenvalues --  -10.32431 -10.32340 -10.32326 -10.32305 -10.32217
 Alpha  occ. eigenvalues --  -10.32175 -10.32118 -10.32100 -10.32057 -10.31962
 Alpha  occ. eigenvalues --  -10.31915 -10.31898 -10.31668 -10.31540 -10.31461
 Alpha  occ. eigenvalues --  -10.31425 -10.31325 -10.31181 -10.31146 -10.31143
 Alpha  occ. eigenvalues --  -10.30960 -10.30866 -10.30843 -10.30503 -10.30259
 Alpha  occ. eigenvalues --  -10.30208 -10.30164 -10.30067 -10.29882 -10.29866
 Alpha  occ. eigenvalues --  -10.29790 -10.29707 -10.29667 -10.29336 -10.28895
 Alpha  occ. eigenvalues --  -10.27821  -3.22517  -3.21947  -1.96127  -1.95609
 Alpha  occ. eigenvalues --   -1.95546  -1.95478  -1.95101  -1.94867  -1.17686
 Alpha  occ. eigenvalues --   -1.16437  -1.12336  -1.11951  -1.11391  -1.10726
 Alpha  occ. eigenvalues --   -1.09674  -1.08437  -1.08119  -1.06799  -1.06060
 Alpha  occ. eigenvalues --   -1.05764  -1.05061  -1.04639  -1.03812  -1.03664
 Alpha  occ. eigenvalues --   -0.94541  -0.94207  -0.91588  -0.91473  -0.91254
 Alpha  occ. eigenvalues --   -0.90264  -0.90047  -0.89658  -0.89653  -0.89223
 Alpha  occ. eigenvalues --   -0.89083  -0.88694  -0.87839  -0.87395  -0.86444
 Alpha  occ. eigenvalues --   -0.86211  -0.85726  -0.85214  -0.84824  -0.84428
 Alpha  occ. eigenvalues --   -0.84184  -0.84181  -0.82830  -0.82728  -0.82586
 Alpha  occ. eigenvalues --   -0.82018  -0.80322  -0.79786  -0.79457  -0.79140
 Alpha  occ. eigenvalues --   -0.78940  -0.78332  -0.78147  -0.77604  -0.77462
 Alpha  occ. eigenvalues --   -0.76931  -0.75498  -0.74484  -0.74288  -0.73527
 Alpha  occ. eigenvalues --   -0.72344  -0.71342  -0.71013  -0.70972  -0.69991
 Alpha  occ. eigenvalues --   -0.69798  -0.69098  -0.68924  -0.67543  -0.67456
 Alpha  occ. eigenvalues --   -0.67286  -0.67237  -0.66877  -0.66783  -0.66575
 Alpha  occ. eigenvalues --   -0.66200  -0.64980  -0.63370  -0.62304  -0.62260
 Alpha  occ. eigenvalues --   -0.61730  -0.61474  -0.61455  -0.61071  -0.60595
 Alpha  occ. eigenvalues --   -0.60083  -0.59860  -0.59798  -0.59504  -0.58904
 Alpha  occ. eigenvalues --   -0.58554  -0.58205  -0.57976  -0.57930  -0.57406
 Alpha  occ. eigenvalues --   -0.57190  -0.56896  -0.56692  -0.55770  -0.55495
 Alpha  occ. eigenvalues --   -0.55468  -0.55210  -0.55175  -0.54923  -0.54802
 Alpha  occ. eigenvalues --   -0.54780  -0.54695  -0.54479  -0.54397  -0.54043
 Alpha  occ. eigenvalues --   -0.53961  -0.53844  -0.53452  -0.53263  -0.53214
 Alpha  occ. eigenvalues --   -0.52838  -0.52704  -0.52439  -0.52352  -0.52154
 Alpha  occ. eigenvalues --   -0.51731  -0.51710  -0.51462  -0.51446  -0.51178
 Alpha  occ. eigenvalues --   -0.51177  -0.51119  -0.50941  -0.50841  -0.50772
 Alpha  occ. eigenvalues --   -0.50555  -0.50504  -0.50220  -0.49953  -0.49866
 Alpha  occ. eigenvalues --   -0.49832  -0.49788  -0.49413  -0.49215  -0.49144
 Alpha  occ. eigenvalues --   -0.48962  -0.48636  -0.48610  -0.48529  -0.48515
 Alpha  occ. eigenvalues --   -0.48428  -0.48087  -0.48082  -0.47923  -0.47795
 Alpha  occ. eigenvalues --   -0.47720  -0.47649  -0.47412  -0.47207  -0.47094
 Alpha  occ. eigenvalues --   -0.46820  -0.46650  -0.46497  -0.46475  -0.46104
 Alpha  occ. eigenvalues --   -0.46068  -0.45718  -0.45658  -0.45646  -0.45566
 Alpha  occ. eigenvalues --   -0.45385  -0.45121  -0.44973  -0.44743  -0.44659
 Alpha  occ. eigenvalues --   -0.44365  -0.44339  -0.44253  -0.44154  -0.43771
 Alpha  occ. eigenvalues --   -0.43723  -0.43589  -0.43538  -0.43430  -0.43367
 Alpha  occ. eigenvalues --   -0.43240  -0.43171  -0.43010  -0.42477  -0.42335
 Alpha  occ. eigenvalues --   -0.41976  -0.41887  -0.41671  -0.41625  -0.41371
 Alpha  occ. eigenvalues --   -0.40998  -0.40260  -0.39938  -0.39408  -0.39198
 Alpha  occ. eigenvalues --   -0.38873  -0.38786  -0.38637  -0.38422  -0.38017
 Alpha  occ. eigenvalues --   -0.37836  -0.37443  -0.36518  -0.36327  -0.35895
 Alpha  occ. eigenvalues --   -0.35537  -0.35473  -0.35298  -0.33999  -0.33526
 Alpha  occ. eigenvalues --   -0.33209  -0.33181  -0.32504  -0.32472  -0.32296
 Alpha  occ. eigenvalues --   -0.31921  -0.31841  -0.31644  -0.26543  -0.25726
 Alpha  occ. eigenvalues --   -0.23975  -0.23054
 Alpha virt. eigenvalues --   -0.08090  -0.06873  -0.00418   0.00143   0.02063
 Alpha virt. eigenvalues --    0.02212   0.04328   0.04445   0.05472   0.05704
 Alpha virt. eigenvalues --    0.07058   0.07244   0.07430   0.08127   0.08470

 Mulliken charges:
               1
     1  Mg   0.930418
     2  C    0.060778
     3  C   -0.053513
     4  C   -0.067790
     5  C   -0.064593
     6  N   -0.367894
     7  C   -0.017701
     8  C   -0.066753
     9  C   -0.122770
    10  C    0.087922
    11  C    0.030136
    12  C    0.037131
    13  C   -0.149339
    14  H    0.025285
    15  N   -0.454689
    16  C    0.135153
    17  C   -0.149594
    18  C   -0.136743
    19  C    0.177590
    20  C    0.084183
    21  C    0.092279
    22  O   -0.239793
    23  C   -0.062673
    24  N   -0.335461
    25  C    0.120479
    26  C   -0.138922
    27  C   -0.048757
    28  C    0.022544
    29  C    0.006354
    30  C   -0.011638
    31  C   -0.052421
    32  N   -0.425501
    33  C    0.118283
    34  C   -0.169452
    35  C   -0.018201
    36  C    0.076916
    37  C    0.078446
    38  C    0.069246
    39  O   -0.202355
    40  C   -0.060303
    41  C    0.246534
    42  O   -0.245746
    43  O   -0.384161
    44  C    0.134980
    45  H   -0.012734
    46  H   -0.019730
    47  H   -0.002610
    48  H    0.034892
    49  H    0.040606
    50  H    0.043305
    51  H    0.048386
    52  H    0.043018
    53  H    0.039678
    54  H    0.043299
    55  H    0.068910
    56  H    0.058998
    57  H    0.056929
    58  H    0.057830
    59  H    0.063766
    60  H    0.068470
    61  H    0.055850
    62  H    0.048636
    63  H    0.055220
    64  H    0.030156
    65  H    0.036209
    66  H    0.039795
    67  H    0.031078
    68  H    0.041417
    69  H    0.028821
    70  H    0.036992
    71  H    0.037552
    72  H    0.038385
    73  H    0.063001
    74  H    0.045524
    75  H    0.046932
    76  H    0.066579
    77  H    0.069718
    78  H    0.052472
    79  H    0.054755
    80  Mg   0.949167
    81  C    0.012824
    82  C   -0.090522
    83  C   -0.048267
    84  C   -0.087791
    85  N   -0.314479
    86  C   -0.013286
    87  C   -0.056152
    88  C   -0.105071
    89  C    0.077792
    90  C    0.018424
    91  C    0.000160
    92  C   -0.139664
    93  H    0.031614
    94  N   -0.486343
    95  C    0.140234
    96  C   -0.180494
    97  C   -0.072239
    98  C    0.161234
    99  C    0.073164
   100  C    0.036526
   101  O   -0.261900
   102  C    0.006376
   103  N   -0.272095
   104  C    0.015810
   105  C   -0.110001
   106  C    0.029214
   107  C   -0.040161
   108  C   -0.003637
   109  C   -0.032839
   110  C   -0.036066
   111  N   -0.476751
   112  C    0.148403
   113  C   -0.176035
   114  C    0.006826
   115  C    0.138758
   116  C    0.087106
   117  C    0.031598
   118  O   -0.201440
   119  C   -0.063135
   120  C    0.267107
   121  O   -0.263302
   122  O   -0.379048
   123  C    0.150047
   124  H    0.007836
   125  H    0.029005
   126  H   -0.009058
   127  H    0.057297
   128  H    0.044911
   129  H    0.035046
   130  H    0.051798
   131  H    0.033481
   132  H    0.031600
   133  H    0.036291
   134  H    0.048469
   135  H    0.062287
   136  H    0.047835
   137  H    0.064115
   138  H    0.046227
   139  H    0.050958
   140  H    0.050422
   141  H    0.058525
   142  H    0.052386
   143  H    0.036482
   144  H    0.045564
   145  H    0.037062
   146  H    0.064057
   147  H    0.030901
   148  H    0.025101
   149  H    0.049780
   150  H    0.041215
   151  H    0.038635
   152  H    0.043763
   153  H    0.031554
   154  H    0.051163
   155  H    0.073546
   156  H    0.064652
   157  H    0.041693
   158  H    0.053739
 Sum of Mulliken charges =  -0.00000

 Dipole moment (field-independent basis, Debye):
    X=             -1.2922    Y=              0.4627    Z=             -3.5486  Tot=              3.8048
 Quadrupole moment (field-independent basis, Debye-Ang):
   XX=            -36.5871   YY=           -539.4525   ZZ=           -481.0882
   XY=             12.8096   XZ=             -5.5769   YZ=             28.6088

 Normal termination of Gaussian 16 at Mon Sep 20 06:03:07 2021.
