 Gaussian 16, Revision A.03,
 Gaussian 16:  ES64L-G16RevA.03 25-Dec-2016

 --------------------------------
 #p wB97XD/Def2SVP td=(nstates=5)
 --------------------------------

 --------------------------------
 TDDFT excited states in gaussian
 --------------------------------
 Symbolic Z-matrix:
 Charge =  0 Multiplicity = 1

                         Standard orientation:
 ---------------------------------------------------------------------
 Center     Atomic      Atomic             Coordinates (Angstroms)
 Number     Number       Type             X           Y           Z
 ---------------------------------------------------------------------
      1         12           0       14.653484   -0.194431   -0.205129
      2          6           0       11.214498   -1.167139   -0.476465
      3          6           0       13.899862    2.463024   -2.416250
      4          6           0       17.601578    1.192321    0.598580
      5          6           0       14.982233   -2.418559    2.413755
      6          7           0       12.768084    0.579682   -1.347825
      7          6           0       11.538723   -0.004368   -1.222376
      8          6           0       10.479406    0.901565   -1.829814
      9          6           0       11.434856    1.861052   -2.655578
     10          6           0       12.813224    1.674082   -2.146501
     11          6           0       11.428817    1.711228   -4.214026
     12          6           0        9.574118    1.498795   -0.705133
     13          6           0        8.001365    1.527720   -0.890581
     14          1           0        7.261043    2.877030   -0.916211
     15          7           0       15.686063    1.404971   -0.910834
     16          6           0       15.235984    2.388507   -1.830651
     17          6           0       16.287175    3.352643   -2.098225
     18          6           0       17.363530    2.969272   -1.198753
     19          6           0       16.889882    1.805887   -0.472579
     20          6           0       16.074552    4.504798   -2.989008
     21          6           0       18.707790    3.715707   -1.142589
     22          8           0       18.798692    4.759160   -1.853089
     23          6           0       19.932049    3.295296   -0.301915
     24          7           0       16.051743   -0.347249    1.476794
     25          6           0       17.254349    0.195029    1.477219
     26          6           0       17.990285   -0.283322    2.686935
     27          6           0       17.141794   -1.477793    3.199210
     28          6           0       15.906806   -1.374416    2.358080
     29          6           0       19.531777   -0.652652    2.583564
     30          6           0       16.815563   -1.464457    4.781085
     31          6           0       17.395292   -2.596168    5.664597
     32          7           0       13.492755   -1.637331    0.648731
     33          6           0       13.743230   -2.455001    1.685199
     34          6           0       12.638845   -3.298592    1.961910
     35          6           0       11.640490   -2.847399    1.095439
     36          6           0       12.189687   -1.789449    0.327724
     37          6           0       12.485278   -4.412298    2.918114
     38          6           0       10.266679   -3.084771    0.775497
     39          8           0        9.494259   -3.857610    1.296684
     40          6           0        9.900024   -1.885601   -0.308226
     41          6           0        9.448930   -2.477585   -1.573265
     42          8           0        9.970730   -3.445505   -2.141045
     43          8           0        8.371776   -1.729004   -1.997394
     44          6           0        7.747262   -2.142856   -3.252786
     45          1           0       13.731839    3.300111   -3.095583
     46          1           0       18.515613    1.657733    0.972319
     47          1           0       15.106777   -3.283514    3.068862
     48          1           0        9.955035    0.300599   -2.573209
     49          1           0       11.075690    2.808400   -2.251828
     50          1           0       12.454841    1.507963   -4.524043
     51          1           0       11.118992    2.609276   -4.748002
     52          1           0       10.858574    0.867706   -4.604318
     53          1           0        9.962640    2.516863   -0.691191
     54          1           0        9.738483    1.105903    0.297970
     55          1           0        7.618422    0.903516   -0.083433
     56          1           0        7.753121    0.913550   -1.755653
     57          1           0       15.170756    5.001339   -2.635098
     58          1           0       15.848082    4.158362   -3.997156
     59          1           0       16.910541    5.185542   -3.151791
     60          1           0       19.703099    3.492200    0.745551
     61          1           0       20.779859    3.716697   -0.841043
     62          1           0       19.976244    2.218494   -0.468591
     63          1           0       17.978670    0.539010    3.401221
     64          1           0       17.689426   -2.327824    2.792016
     65          1           0       19.922376   -0.455475    3.582204
     66          1           0       19.983799   -0.033318    1.808994
     67          1           0       19.578549   -1.719222    2.363011
     68          1           0       15.726245   -1.460896    4.815758
     69          1           0       17.077923   -0.476273    5.158694
     70          1           0       16.645670   -3.056220    6.307046
     71          1           0       18.200682   -2.182918    6.272358
     72          1           0       17.898148   -3.380185    5.098113
     73          1           0       11.643155   -5.053438    2.659533
     74          1           0       12.304513   -3.811087    3.809353
     75          1           0       13.477424   -4.808677    3.133686
     76          1           0        9.230421   -1.146740    0.130562
     77          1           0        7.502260   -3.205206   -3.250918
     78          1           0        8.406072   -1.903048   -4.088689
     79          1           0        6.811723   -1.596415   -3.372484
     80         12           0      -13.828556    0.902738    0.082994
     81          6           0      -13.714364   -2.683046   -0.404332
     82          6           0      -10.610129    0.829608   -0.188588
     83          6           0      -14.122969    4.102455    0.816258
     84          6           0      -17.292270    0.640881    1.152462
     85          7           0      -12.341465   -0.783346   -0.389727
     86          6           0      -12.464929   -2.148504   -0.544478
     87          6           0      -11.129970   -2.767641   -0.752873
     88          6           0      -10.147123   -1.706237   -0.195148
     89          6           0      -11.077234   -0.470229   -0.208294
     90          6           0       -9.638630   -1.996588    1.233987
     91          6           0      -10.869942   -2.954598   -2.278770
     92          6           0      -10.241952   -4.332965   -2.720743
     93          1           0      -10.369430   -4.815305   -4.220451
     94          7           0      -12.447556    2.330565    0.238378
     95          6           0      -11.176582    2.162351   -0.012653
     96          6           0      -10.527785    3.458464    0.049282
     97          6           0      -11.592583    4.375266    0.214708
     98          6           0      -12.777794    3.598573    0.458180
     99          6           0       -9.021766    3.604135   -0.234779
    100          6           0      -11.486861    5.874860    0.208012
    101          8           0      -12.457856    6.546632    0.390376
    102          6           0      -10.178501    6.512024   -0.129774
    103          7           0      -15.484325    2.132174    1.170026
    104          6           0      -15.301637    3.450810    1.148626
    105          6           0      -16.555871    4.192382    1.422611
    106          6           0      -17.530189    3.010440    1.726129
    107          6           0      -16.741614    1.788875    1.334144
    108          6           0      -16.513130    5.339915    2.494800
    109          6           0      -18.893726    3.182619    0.949586
    110          6           0      -20.172576    3.608179    1.723459
    111          7           0      -15.212829   -0.568444    0.341073
    112          6           0      -16.581188   -0.569625    0.692701
    113          6           0      -17.110759   -1.945804    0.599213
    114          6           0      -16.050070   -2.733553    0.172335
    115          6           0      -14.931997   -1.923514    0.068166
    116          6           0      -18.520903   -2.392140    1.055682
    117          6           0      -15.708614   -4.149927   -0.177323
    118          8           0      -16.347954   -5.172872   -0.247974
    119          6           0      -14.115416   -4.206451   -0.403738
    120          6           0      -13.772876   -4.972732   -1.545180
    121          8           0      -13.624243   -4.458121   -2.662376
    122          8           0      -13.651184   -6.346980   -1.364538
    123          6           0      -13.099828   -7.177591   -2.478789
    124          1           0       -9.531965    0.952937   -0.305048
    125          1           0      -14.235933    5.173335    0.997137
    126          1           0      -18.334435    0.546845    1.461503
    127          1           0      -11.027697   -3.650526   -0.121336
    128          1           0       -9.239802   -1.532183   -0.773244
    129          1           0       -8.553141   -2.099868    1.239458
    130          1           0      -10.104757   -2.928733    1.551901
    131          1           0       -9.922999   -1.252138    1.978178
    132          1           0      -10.170179   -2.159922   -2.538113
    133          1           0      -11.822555   -2.752475   -2.768018
    134          1           0      -10.636853   -5.101294   -2.056598
    135          1           0       -9.185712   -4.184680   -2.492956
    136          1           0       -8.899654    4.182326   -1.151605
    137          1           0       -8.453149    2.676153   -0.284257
    138          1           0       -8.563612    4.262786    0.502483
    139          1           0       -9.847596    6.274331   -1.140426
    140          1           0       -9.309098    6.179673    0.437376
    141          1           0      -10.303152    7.595033   -0.113012
    142          1           0      -16.872205    4.657253    0.488831
    143          1           0      -17.658644    2.918819    2.804866
    144          1           0      -15.466876    5.452791    2.776989
    145          1           0      -17.183098    5.251168    3.350729
    146          1           0      -16.865431    6.258892    2.026024
    147          1           0      -19.159790    2.230279    0.490126
    148          1           0      -18.630143    3.752049    0.058317
    149          1           0      -20.691201    4.395243    1.176292
    150          1           0      -19.897145    3.941800    2.724072
    151          1           0      -20.867558    2.771762    1.806811
    152          1           0      -19.203517   -1.561274    0.879578
    153          1           0      -18.516582   -2.534899    2.136534
    154          1           0      -18.858437   -3.286052    0.530677
    155          1           0      -13.669626   -4.662320    0.479830
    156          1           0      -12.069930   -6.897481   -2.704504
    157          1           0      -13.806751   -7.260942   -3.303393
    158          1           0      -12.913187   -8.166818   -2.061013
 ---------------------------------------------------------------------

 SCF Done:  E(RwB97XD) =  -4070.56066548     A.U. after   19 cycles

 Excitation energies and oscillator strengths:

 Excited State   1:      Singlet-A      1.6376 eV  757.10 nm  f=0.3933  <S**2>=0.000
     309 -> 315        0.19101
     312 -> 314        0.68324
     309 <- 315        0.12124
 This state for optimization and/or second-order correction.
 Total Energy, E(TD-HF/TD-DFT) =  -4070.50048392
 Copying the excited state density for this state as the 1-particle RhoCI density.

 Excited State   2:      Singlet-A      1.6946 eV  731.64 nm  f=0.3782  <S**2>=0.000
     310 -> 316       -0.16831
     311 -> 313        0.68667
     310 <- 316       -0.11047

 Excited State   3:      Singlet-A      2.1225 eV  584.15 nm  f=0.2239  <S**2>=0.000
     310 -> 313        0.67195
     311 -> 316        0.20536

 Excited State   4:      Singlet-A      2.1989 eV  563.86 nm  f=0.1284  <S**2>=0.000
     309 -> 314        0.63861
     312 -> 315       -0.29229

 Excited State   5:      Singlet-A      3.3055 eV  375.08 nm  f=0.0055  <S**2>=0.000
     308 -> 314        0.66960
     308 -> 317        0.10698

 The electronic state is 1-A.
 Alpha  occ. eigenvalues --  -46.95785 -46.95332 -19.31622 -19.29184 -19.25634
 Alpha  occ. eigenvalues --  -19.24911 -19.24623 -19.24320 -19.23449 -19.23262
 Alpha  occ. eigenvalues --  -14.46638 -14.46385 -14.46056 -14.44736 -14.44642
 Alpha  occ. eigenvalues --  -14.44517 -14.44415 -14.44368 -10.44061 -10.42319
 Alpha  occ. eigenvalues --  -10.39930 -10.39596 -10.39328 -10.39130 -10.36322
 Alpha  occ. eigenvalues --  -10.35361 -10.35307 -10.35293 -10.35094 -10.34870
 Alpha  occ. eigenvalues --  -10.34762 -10.34738 -10.34489 -10.34478 -10.34419
 Alpha  occ. eigenvalues --  -10.34075 -10.34025 -10.33860 -10.33831 -10.33586
 Alpha  occ. eigenvalues --  -10.33355 -10.33189 -10.33096 -10.32955 -10.32891
 Alpha  occ. eigenvalues --  -10.32847 -10.32811 -10.32343 -10.32263 -10.32239
 Alpha  occ. eigenvalues --  -10.32139 -10.31970 -10.31955 -10.31900 -10.31771
 Alpha  occ. eigenvalues --  -10.31720 -10.31700 -10.31648 -10.31623 -10.31556
 Alpha  occ. eigenvalues --  -10.31321 -10.31317 -10.31300 -10.31299 -10.31269
 Alpha  occ. eigenvalues --  -10.31194 -10.30857 -10.30741 -10.30633 -10.30566
 Alpha  occ. eigenvalues --  -10.30562 -10.30394 -10.30378 -10.30282 -10.30213
 Alpha  occ. eigenvalues --  -10.30158 -10.30016 -10.29968 -10.29879 -10.29599
 Alpha  occ. eigenvalues --  -10.29546 -10.29398 -10.29348 -10.29081 -10.29065
 Alpha  occ. eigenvalues --  -10.28708  -3.21763  -3.21330  -1.95337  -1.94909
 Alpha  occ. eigenvalues --   -1.94894  -1.94726  -1.94442  -1.94312  -1.18844
 Alpha  occ. eigenvalues --   -1.16316  -1.14432  -1.13186  -1.13041  -1.10483
 Alpha  occ. eigenvalues --   -1.09534  -1.08532  -1.07821  -1.07557  -1.06973
 Alpha  occ. eigenvalues --   -1.06916  -1.06844  -1.05847  -1.04483  -1.02962
 Alpha  occ. eigenvalues --   -0.95258  -0.93188  -0.91329  -0.91143  -0.90815
 Alpha  occ. eigenvalues --   -0.90296  -0.90099  -0.89979  -0.89884  -0.89772
 Alpha  occ. eigenvalues --   -0.89620  -0.89507  -0.88061  -0.87126  -0.86684
 Alpha  occ. eigenvalues --   -0.86272  -0.85852  -0.84944  -0.84695  -0.84080
 Alpha  occ. eigenvalues --   -0.84015  -0.83915  -0.83425  -0.82874  -0.82538
 Alpha  occ. eigenvalues --   -0.82377  -0.80775  -0.80276  -0.79685  -0.79033
 Alpha  occ. eigenvalues --   -0.78921  -0.78603  -0.78320  -0.78125  -0.77385
 Alpha  occ. eigenvalues --   -0.77376  -0.75290  -0.74726  -0.74287  -0.73088
 Alpha  occ. eigenvalues --   -0.71809  -0.71475  -0.71207  -0.70719  -0.70546
 Alpha  occ. eigenvalues --   -0.69971  -0.69278  -0.68839  -0.68153  -0.68052
 Alpha  occ. eigenvalues --   -0.67722  -0.67534  -0.67208  -0.66980  -0.66869
 Alpha  occ. eigenvalues --   -0.66237  -0.65062  -0.63494  -0.63046  -0.62234
 Alpha  occ. eigenvalues --   -0.62068  -0.62019  -0.61602  -0.61058  -0.60996
 Alpha  occ. eigenvalues --   -0.60501  -0.60032  -0.59682  -0.59526  -0.59170
 Alpha  occ. eigenvalues --   -0.58577  -0.58275  -0.58000  -0.57704  -0.57635
 Alpha  occ. eigenvalues --   -0.57479  -0.56942  -0.56564  -0.55916  -0.55830
 Alpha  occ. eigenvalues --   -0.55763  -0.55386  -0.55366  -0.55021  -0.54985
 Alpha  occ. eigenvalues --   -0.54658  -0.54596  -0.54374  -0.54155  -0.53929
 Alpha  occ. eigenvalues --   -0.53771  -0.53720  -0.53448  -0.53271  -0.53223
 Alpha  occ. eigenvalues --   -0.52628  -0.52535  -0.52331  -0.52186  -0.52082
 Alpha  occ. eigenvalues --   -0.52074  -0.51997  -0.51796  -0.51638  -0.51626
 Alpha  occ. eigenvalues --   -0.51537  -0.51444  -0.51172  -0.50813  -0.50753
 Alpha  occ. eigenvalues --   -0.50649  -0.50493  -0.50233  -0.49955  -0.49946
 Alpha  occ. eigenvalues --   -0.49733  -0.49695  -0.49687  -0.49633  -0.49487
 Alpha  occ. eigenvalues --   -0.49465  -0.49352  -0.49069  -0.48668  -0.48485
 Alpha  occ. eigenvalues --   -0.48377  -0.48184  -0.48142  -0.47980  -0.47710
 Alpha  occ. eigenvalues --   -0.47640  -0.47479  -0.47456  -0.47304  -0.47049
 Alpha  occ. eigenvalues --   -0.46879  -0.46732  -0.46580  -0.46523  -0.46431
 Alpha  occ. eigenvalues --   -0.45937  -0.45784  -0.45665  -0.45632  -0.45425
 Alpha  occ. eigenvalues --   -0.45295  -0.45272  -0.45115  -0.45009  -0.44904
 Alpha  occ. eigenvalues --   -0.44861  -0.44734  -0.44662  -0.44324  -0.44159
 Alpha  occ. eigenvalues --   -0.43774  -0.43574  -0.43227  -0.43202  -0.43180
 Alpha  occ. eigenvalues --   -0.42911  -0.42888  -0.42547  -0.42347  -0.42268
 Alpha  occ. eigenvalues --   -0.42224  -0.42091  -0.41784  -0.41762  -0.40970
 Alpha  occ. eigenvalues --   -0.40744  -0.40318  -0.40256  -0.39879  -0.39690
 Alpha  occ. eigenvalues --   -0.39567  -0.39097  -0.38649  -0.38468  -0.38168
 Alpha  occ. eigenvalues --   -0.37844  -0.37713  -0.37253  -0.36194  -0.35558
 Alpha  occ. eigenvalues --   -0.35383  -0.35037  -0.34759  -0.33977  -0.33646
 Alpha  occ. eigenvalues --   -0.33623  -0.33281  -0.33249  -0.32762  -0.32414
 Alpha  occ. eigenvalues --   -0.32322  -0.31794  -0.31639  -0.26175  -0.25465
 Alpha  occ. eigenvalues --   -0.23465  -0.23205
 Alpha virt. eigenvalues --   -0.07425  -0.07382   0.00088   0.01573   0.02295
 Alpha virt. eigenvalues --    0.03040   0.04409   0.04711   0.05392   0.05483
 Alpha virt. eigenvalues --    0.06295   0.06738   0.07451   0.07728   0.08410

 Mulliken charges:
               1
     1  Mg   0.980440
     2  C   -0.124002
     3  C   -0.080766
     4  C   -0.101566
     5  C   -0.096292
     6  N   -0.314470
     7  C   -0.025072
     8  C   -0.047781
     9  C   -0.085498
    10  C    0.061064
    11  C    0.030211
    12  C   -0.009433
    13  C   -0.101025
    14  H    0.049854
    15  N   -0.481157
    16  C    0.127755
    17  C   -0.142715
    18  C   -0.097750
    19  C    0.230119
    20  C    0.077017
    21  C    0.025861
    22  O   -0.277608
    23  C    0.020143
    24  N   -0.346960
    25  C    0.019168
    26  C   -0.090728
    27  C   -0.108930
    28  C    0.094208
    29  C    0.033638
    30  C    0.010029
    31  C   -0.047608
    32  N   -0.436921
    33  C    0.106419
    34  C   -0.206249
    35  C   -0.066908
    36  C    0.193037
    37  C    0.118136
    38  C    0.144190
    39  O   -0.188603
    40  C   -0.050714
    41  C    0.292279
    42  O   -0.254288
    43  O   -0.371307
    44  C    0.136680
    45  H   -0.000103
    46  H   -0.036445
    47  H    0.003054
    48  H    0.018515
    49  H    0.029462
    50  H    0.037323
    51  H    0.045299
    52  H    0.037012
    53  H    0.031116
    54  H    0.053757
    55  H    0.047924
    56  H    0.042349
    57  H    0.047707
    58  H    0.033373
    59  H    0.069501
    60  H    0.083984
    61  H    0.065226
    62  H    0.043371
    63  H    0.038464
    64  H    0.032761
    65  H    0.040758
    66  H    0.041184
    67  H    0.031912
    68  H    0.033535
    69  H    0.025586
    70  H    0.046676
    71  H    0.035682
    72  H    0.033341
    73  H    0.080904
    74  H    0.046746
    75  H    0.030028
    76  H    0.059272
    77  H    0.065636
    78  H    0.052905
    79  H    0.056287
    80  Mg   0.973627
    81  C   -0.021100
    82  C   -0.054212
    83  C   -0.053688
    84  C   -0.110080
    85  N   -0.301938
    86  C   -0.006942
    87  C   -0.073377
    88  C   -0.132729
    89  C    0.070210
    90  C    0.036877
    91  C    0.034162
    92  C   -0.096303
    93  H    0.049810
    94  N   -0.460589
    95  C    0.091602
    96  C   -0.147638
    97  C   -0.078524
    98  C    0.134354
    99  C    0.063436
   100  C    0.051856
   101  O   -0.201397
   102  C   -0.020547
   103  N   -0.271101
   104  C    0.014698
   105  C   -0.095370
   106  C   -0.044741
   107  C    0.058234
   108  C    0.023269
   109  C   -0.029517
   110  C   -0.028128
   111  N   -0.485432
   112  C    0.125908
   113  C   -0.223654
   114  C   -0.055353
   115  C    0.152309
   116  C    0.077554
   117  C    0.163290
   118  O   -0.174761
   119  C   -0.083151
   120  C    0.267158
   121  O   -0.273082
   122  O   -0.389988
   123  C    0.157555
   124  H   -0.025749
   125  H    0.021027
   126  H   -0.000208
   127  H    0.020678
   128  H    0.034998
   129  H    0.042031
   130  H    0.027930
   131  H    0.045283
   132  H    0.024942
   133  H    0.073793
   134  H    0.043952
   135  H    0.037095
   136  H    0.048370
   137  H    0.053701
   138  H    0.042001
   139  H    0.049745
   140  H    0.042916
   141  H    0.056091
   142  H    0.045853
   143  H    0.031669
   144  H    0.049305
   145  H    0.037547
   146  H    0.031995
   147  H    0.020882
   148  H    0.014706
   149  H    0.040126
   150  H    0.034910
   151  H    0.038250
   152  H    0.028668
   153  H    0.052736
   154  H    0.061934
   155  H    0.080279
   156  H    0.043693
   157  H    0.073768
   158  H    0.042513
 Sum of Mulliken charges =  -0.00000

 Dipole moment (field-independent basis, Debye):
    X=              5.5007    Y=              2.6235    Z=              2.1264  Tot=              6.4546
 Quadrupole moment (field-independent basis, Debye-Ang):
   XX=           -571.6040   YY=           -551.0734   ZZ=           -496.3631
   XY=            -77.9893   XZ=             26.3892   YZ=             -4.0900

 Normal termination of Gaussian 16 at Sun Sep 19 03:36:04 2021.
