 Gaussian 16, Revision A.03,
 Gaussian 16:  ES64L-G16RevA.03 25-Dec-2016

 --------------------------------
 #p wB97XD/Def2SVP td=(nstates=5)
 --------------------------------

 --------------------------------
 TDDFT excited states in gaussian
 --------------------------------
 Symbolic Z-matrix:
 Charge =  0 Multiplicity = 1

                         Standard orientation:
 ---------------------------------------------------------------------
 Center     Atomic      Atomic             Coordinates (Angstroms)
 Number     Number       Type             X           Y           Z
 ---------------------------------------------------------------------
      1         12           0       22.366523   -0.619559    0.449651
      2          6           0       22.074786    2.173927   -1.537542
      3          6           0       22.933740    1.503592    3.175285
      4          6           0       22.760335   -3.307196    2.453623
      5          6           0       22.183821   -2.614301   -2.289852
      6          7           0       22.749090    1.615328    0.700400
      7          6           0       22.325468    2.555881   -0.246789
      8          6           0       22.182272    3.965391    0.360653
      9          6           0       22.583413    3.679560    1.854653
     10          6           0       22.730241    2.178423    1.981200
     11          6           0       23.840933    4.422139    2.288430
     12          6           0       20.811195    4.721544    0.249106
     13          6           0       20.773664    6.052891   -0.680298
     14          1           0       20.358484    7.284236    0.130820
     15          7           0       22.879857   -0.882272    2.458732
     16          6           0       22.940014    0.122563    3.437829
     17          6           0       22.985384   -0.449215    4.787642
     18          6           0       23.018322   -1.938729    4.630457
     19          6           0       22.818692   -2.134720    3.139090
     20          6           0       23.038090    0.394498    6.042207
     21          6           0       23.146414   -3.009460    5.608323
     22          8           0       23.248488   -4.184004    5.224523
     23          6           0       23.232131   -2.760102    7.103912
     24          7           0       22.534169   -2.585482    0.090311
     25          6           0       22.561943   -3.575532    1.089922
     26          6           0       22.406811   -5.060080    0.565423
     27          6           0       22.252444   -4.755755   -1.013211
     28          6           0       22.310385   -3.212333   -1.067449
     29          6           0       23.644727   -6.024945    0.914485
     30          6           0       20.920309   -5.346755   -1.590272
     31          6           0       20.950929   -5.932744   -2.967095
     32          7           0       22.269608   -0.263676   -1.563382
     33          6           0       22.143346   -1.206318   -2.587791
     34          6           0       21.864929   -0.572333   -3.830997
     35          6           0       21.730627    0.809251   -3.433276
     36          6           0       22.065292    0.905551   -2.076630
     37          6           0       21.622163   -1.126907   -5.171715
     38          6           0       21.554187    2.131418   -3.947120
     39          8           0       21.283871    2.610949   -5.053728
     40          6           0       21.924409    3.091883   -2.727522
     41          6           0       23.131361    3.881047   -3.090025
     42          8           0       24.243253    3.693602   -2.785615
     43          8           0       22.763476    5.027666   -3.790142
     44          6           0       23.698106    6.129814   -3.695939
     45          1           0       23.021169    2.172503    4.034021
     46          1           0       22.802594   -4.252555    2.998449
     47          1           0       21.974690   -3.254768   -3.149180
     48          1           0       22.947323    4.608498   -0.072997
     49          1           0       21.837172    4.059741    2.552836
     50          1           0       24.624775    3.692875    2.491291
     51          1           0       23.525607    4.901325    3.214493
     52          1           0       24.179135    5.214412    1.620914
     53          1           0       20.501080    4.998321    1.257049
     54          1           0       20.042034    4.083512   -0.186328
     55          1           0       19.962398    5.823367   -1.371371
     56          1           0       21.741357    6.212725   -1.155299
     57          1           0       24.043830    0.813563    6.092260
     58          1           0       22.866712   -0.261120    6.894575
     59          1           0       22.384583    1.266440    6.007397
     60          1           0       23.641856   -3.677266    7.527536
     61          1           0       22.278349   -2.496370    7.562101
     62          1           0       23.986157   -2.053879    7.450905
     63          1           0       21.450823   -5.468306    0.891745
     64          1           0       23.017242   -5.207533   -1.645352
     65          1           0       23.828419   -6.671035    0.055788
     66          1           0       23.485176   -6.762015    1.700546
     67          1           0       24.553056   -5.478318    1.168720
     68          1           0       20.076516   -4.658193   -1.548678
     69          1           0       20.571539   -6.213455   -1.029091
     70          1           0       20.338890   -5.257059   -3.564344
     71          1           0       20.432169   -6.866847   -3.182615
     72          1           0       21.976413   -5.949781   -3.337584
     73          1           0       21.218537   -2.133413   -5.058179
     74          1           0       22.616538   -1.191304   -5.613333
     75          1           0       21.064822   -0.394212   -5.755659
     76          1           0       21.102835    3.780617   -2.532239
     77          1           0       24.504182    5.845001   -4.371264
     78          1           0       24.049459    6.127324   -2.664246
     79          1           0       23.250250    7.065847   -4.030883
     80         12           0      -21.877368   -0.650024   -0.070894
     81          6           0      -23.789254    1.900371    1.452280
     82          6           0      -20.120469    1.609225   -1.709045
     83          6           0      -20.770118   -3.171152   -2.093452
     84          6           0      -24.565058   -2.958960    0.987565
     85          7           0      -22.022996    1.521448   -0.133253
     86          6           0      -22.681008    2.331692    0.721036
     87          6           0      -22.119263    3.761415    0.594910
     88          6           0      -20.973123    3.663090   -0.360096
     89          6           0      -21.035103    2.175126   -0.820291
     90          6           0      -20.989036    4.799340   -1.462804
     91          6           0      -21.775119    4.546639    1.904623
     92          6           0      -20.547085    5.550116    1.999353
     93          1           0      -20.763209    6.909326    2.680717
     94          7           0      -20.428473   -0.770892   -1.515590
     95          6           0      -19.796255    0.320024   -2.068094
     96          6           0      -18.823711   -0.168254   -3.003956
     97          6           0      -18.991549   -1.594933   -3.196048
     98          6           0      -20.126947   -1.891218   -2.294824
     99          6           0      -17.976555    0.817181   -3.701802
    100          6           0      -18.179756   -2.604520   -4.044673
    101          8           0      -18.512917   -3.742260   -4.099900
    102          6           0      -16.842777   -2.226499   -4.593984
    103          7           0      -22.636974   -2.758129   -0.513156
    104          6           0      -21.864003   -3.548243   -1.291647
    105          6           0      -22.405495   -5.011852   -1.363180
    106          6           0      -23.594740   -4.977571   -0.355199
    107          6           0      -23.646256   -3.491169    0.076959
    108          6           0      -22.829059   -5.484033   -2.728637
    109          6           0      -23.531798   -5.921682    0.896075
    110          6           0      -22.667666   -5.543334    2.051154
    111          7           0      -23.787630   -0.670836    0.995651
    112          6           0      -24.664661   -1.651759    1.360462
    113          6           0      -25.670712   -1.093095    2.230414
    114          6           0      -25.403582    0.298574    2.317585
    115          6           0      -24.269883    0.507576    1.506250
    116          6           0      -26.877987   -1.767794    2.779453
    117          6           0      -25.838505    1.558840    2.848597
    118          8           0      -26.749168    1.886436    3.600690
    119          6           0      -24.785854    2.649841    2.354630
    120          6           0      -25.443702    3.874655    1.741780
    121          8           0      -26.085887    3.853093    0.723609
    122          8           0      -25.143062    4.986824    2.511952
    123          6           0      -25.764972    6.216264    2.018940
    124          1           0      -19.362759    2.271226   -2.134321
    125          1           0      -20.326457   -3.934490   -2.735634
    126          1           0      -25.301828   -3.657430    1.389528
    127          1           0      -23.007875    4.240150    0.183445
    128          1           0      -20.061852    3.869293    0.201975
    129          1           0      -21.768130    5.523274   -1.224550
    130          1           0      -21.038587    4.311726   -2.436355
    131          1           0      -20.092502    5.417030   -1.406854
    132          1           0      -21.606464    3.797640    2.678742
    133          1           0      -22.628593    5.117052    2.272046
    134          1           0      -20.241933    5.698289    0.963289
    135          1           0      -19.720775    5.050727    2.505384
    136          1           0      -17.846516    0.426485   -4.710782
    137          1           0      -17.003167    0.802517   -3.212925
    138          1           0      -18.259857    1.866533   -3.785341
    139          1           0      -17.099405   -1.848586   -5.582780
    140          1           0      -16.176664   -3.087608   -4.532197
    141          1           0      -16.363268   -1.379615   -4.102614
    142          1           0      -21.708433   -5.724579   -0.922011
    143          1           0      -24.613545   -5.106163   -0.719365
    144          1           0      -22.508278   -4.791178   -3.507637
    145          1           0      -23.913255   -5.546506   -2.825683
    146          1           0      -22.352623   -6.455046   -2.861404
    147          1           0      -23.215346   -6.917930    0.586939
    148          1           0      -24.557281   -6.129782    1.202166
    149          1           0      -21.884371   -4.862678    1.717045
    150          1           0      -22.084703   -6.291972    2.588084
    151          1           0      -23.355202   -5.131897    2.790833
    152          1           0      -27.560672   -2.166739    2.029751
    153          1           0      -27.511829   -0.962048    3.150589
    154          1           0      -26.619230   -2.511598    3.533552
    155          1           0      -24.216063    2.929789    3.240899
    156          1           0      -24.785016    6.606034    1.745248
    157          1           0      -26.181723    6.663393    2.921124
    158          1           0      -26.468523    6.045518    1.203815
 ---------------------------------------------------------------------

 SCF Done:  E(RwB97XD) =  -4070.58169824     A.U. after   20 cycles

 Excitation energies and oscillator strengths:

 Excited State   1:      Singlet-A      1.6222 eV  764.29 nm  f=0.3998  <S**2>=0.000
     309 -> 315        0.16232
     311 -> 313        0.68600
     309 <- 315        0.10567
 This state for optimization and/or second-order correction.
 Total Energy, E(TD-HF/TD-DFT) =  -4070.52208284
 Copying the excited state density for this state as the 1-particle RhoCI density.

 Excited State   2:      Singlet-A      1.6417 eV  755.21 nm  f=0.3920  <S**2>=0.000
     310 -> 316        0.19302
     312 -> 314        0.68152
     310 <- 316        0.12001

 Excited State   3:      Singlet-A      2.1319 eV  581.55 nm  f=0.0991  <S**2>=0.000
     310 -> 314        0.64000
     312 -> 316       -0.28516

 Excited State   4:      Singlet-A      2.1351 eV  580.70 nm  f=0.1293  <S**2>=0.000
     309 -> 313        0.64247
     311 -> 315       -0.25987

 Excited State   5:      Singlet-A      3.2508 eV  381.39 nm  f=0.0040  <S**2>=0.000
     304 -> 313        0.47431
     306 -> 313        0.38293
     308 -> 313       -0.30331
     311 -> 315        0.12189

 The electronic state is 1-A.
 Alpha  occ. eigenvalues --  -46.96341 -46.94351 -19.29988 -19.27416 -19.24960
 Alpha  occ. eigenvalues --  -19.24607 -19.24482 -19.23988 -19.23686 -19.23004
 Alpha  occ. eigenvalues --  -14.47230 -14.46802 -14.46654 -14.46386 -14.44991
 Alpha  occ. eigenvalues --  -14.44114 -14.43395 -14.43183 -10.42970 -10.41932
 Alpha  occ. eigenvalues --  -10.39696 -10.39387 -10.38820 -10.38227 -10.35968
 Alpha  occ. eigenvalues --  -10.35685 -10.35398 -10.35213 -10.35202 -10.35151
 Alpha  occ. eigenvalues --  -10.34999 -10.34975 -10.34790 -10.34781 -10.34752
 Alpha  occ. eigenvalues --  -10.34375 -10.34358 -10.34264 -10.33616 -10.33563
 Alpha  occ. eigenvalues --  -10.33490 -10.33364 -10.33288 -10.33036 -10.32836
 Alpha  occ. eigenvalues --  -10.32791 -10.32563 -10.32353 -10.32349 -10.32326
 Alpha  occ. eigenvalues --  -10.32089 -10.32076 -10.31896 -10.31885 -10.31848
 Alpha  occ. eigenvalues --  -10.31704 -10.31693 -10.31678 -10.31656 -10.31470
 Alpha  occ. eigenvalues --  -10.31415 -10.31409 -10.31324 -10.31215 -10.30973
 Alpha  occ. eigenvalues --  -10.30766 -10.30760 -10.30631 -10.30542 -10.30454
 Alpha  occ. eigenvalues --  -10.30440 -10.30425 -10.30406 -10.30404 -10.30264
 Alpha  occ. eigenvalues --  -10.30147 -10.30057 -10.29919 -10.29845 -10.29784
 Alpha  occ. eigenvalues --  -10.29272 -10.29181 -10.28953 -10.28920 -10.28782
 Alpha  occ. eigenvalues --  -10.28522  -3.22134  -3.20519  -1.95687  -1.95257
 Alpha  occ. eigenvalues --   -1.95084  -1.94082  -1.93656  -1.93513  -1.18919
 Alpha  occ. eigenvalues --   -1.18461  -1.15133  -1.11864  -1.11448  -1.10748
 Alpha  occ. eigenvalues --   -1.10340  -1.09940  -1.06665  -1.06223  -1.05489
 Alpha  occ. eigenvalues --   -1.05141  -1.04522  -1.04108  -1.03879  -1.02749
 Alpha  occ. eigenvalues --   -0.94578  -0.93580  -0.91167  -0.91151  -0.90745
 Alpha  occ. eigenvalues --   -0.90538  -0.90430  -0.90196  -0.89320  -0.89312
 Alpha  occ. eigenvalues --   -0.89174  -0.89121  -0.88701  -0.88040  -0.86190
 Alpha  occ. eigenvalues --   -0.85886  -0.85600  -0.85396  -0.84458  -0.84381
 Alpha  occ. eigenvalues --   -0.83910  -0.83879  -0.82834  -0.82788  -0.82371
 Alpha  occ. eigenvalues --   -0.82226  -0.80812  -0.80270  -0.79366  -0.79066
 Alpha  occ. eigenvalues --   -0.79018  -0.78642  -0.77811  -0.77252  -0.77194
 Alpha  occ. eigenvalues --   -0.76605  -0.75100  -0.74325  -0.73717  -0.73437
 Alpha  occ. eigenvalues --   -0.71733  -0.71391  -0.71197  -0.70640  -0.70215
 Alpha  occ. eigenvalues --   -0.69932  -0.69588  -0.68940  -0.67636  -0.67285
 Alpha  occ. eigenvalues --   -0.67046  -0.66935  -0.66236  -0.66094  -0.66010
 Alpha  occ. eigenvalues --   -0.65937  -0.63692  -0.62878  -0.62260  -0.62050
 Alpha  occ. eigenvalues --   -0.61514  -0.61384  -0.61042  -0.60808  -0.60471
 Alpha  occ. eigenvalues --   -0.60323  -0.60290  -0.59983  -0.59693  -0.59393
 Alpha  occ. eigenvalues --   -0.58553  -0.58053  -0.57852  -0.57535  -0.57337
 Alpha  occ. eigenvalues --   -0.57288  -0.56997  -0.56534  -0.56003  -0.55892
 Alpha  occ. eigenvalues --   -0.55679  -0.55612  -0.55301  -0.55289  -0.54967
 Alpha  occ. eigenvalues --   -0.54716  -0.54632  -0.54299  -0.54291  -0.54122
 Alpha  occ. eigenvalues --   -0.53681  -0.53551  -0.53308  -0.53146  -0.53131
 Alpha  occ. eigenvalues --   -0.52882  -0.52766  -0.52710  -0.52538  -0.52524
 Alpha  occ. eigenvalues --   -0.52239  -0.52172  -0.51997  -0.51959  -0.51724
 Alpha  occ. eigenvalues --   -0.51614  -0.51435  -0.51113  -0.50971  -0.50941
 Alpha  occ. eigenvalues --   -0.50672  -0.50604  -0.50527  -0.50500  -0.50299
 Alpha  occ. eigenvalues --   -0.50041  -0.49975  -0.49652  -0.49263  -0.49182
 Alpha  occ. eigenvalues --   -0.49077  -0.48992  -0.48804  -0.48732  -0.48439
 Alpha  occ. eigenvalues --   -0.48099  -0.47972  -0.47952  -0.47759  -0.47468
 Alpha  occ. eigenvalues --   -0.47376  -0.47370  -0.47250  -0.46925  -0.46660
 Alpha  occ. eigenvalues --   -0.46562  -0.46516  -0.46254  -0.46120  -0.46012
 Alpha  occ. eigenvalues --   -0.45657  -0.45651  -0.45576  -0.45512  -0.45322
 Alpha  occ. eigenvalues --   -0.45226  -0.45039  -0.44984  -0.44912  -0.44897
 Alpha  occ. eigenvalues --   -0.44583  -0.44525  -0.44338  -0.44016  -0.43970
 Alpha  occ. eigenvalues --   -0.43775  -0.43660  -0.43424  -0.43351  -0.43108
 Alpha  occ. eigenvalues --   -0.42950  -0.42813  -0.42624  -0.42488  -0.42089
 Alpha  occ. eigenvalues --   -0.42028  -0.41866  -0.41107  -0.41052  -0.40851
 Alpha  occ. eigenvalues --   -0.40661  -0.40047  -0.39852  -0.39833  -0.39651
 Alpha  occ. eigenvalues --   -0.39341  -0.39283  -0.39005  -0.38066  -0.37923
 Alpha  occ. eigenvalues --   -0.37673  -0.36908  -0.36603  -0.36477  -0.36092
 Alpha  occ. eigenvalues --   -0.35568  -0.35435  -0.35379  -0.33760  -0.33710
 Alpha  occ. eigenvalues --   -0.33549  -0.33039  -0.32637  -0.32243  -0.32022
 Alpha  occ. eigenvalues --   -0.31876  -0.31513  -0.31415  -0.26350  -0.25744
 Alpha  occ. eigenvalues --   -0.23313  -0.22857
 Alpha virt. eigenvalues --   -0.07681  -0.07007  -0.00274   0.00286   0.01750
 Alpha virt. eigenvalues --    0.02463   0.04240   0.04268   0.04630   0.05206
 Alpha virt. eigenvalues --    0.07002   0.07507   0.07790   0.07865   0.08493

 Mulliken charges:
               1
     1  Mg   0.967419
     2  C    0.011790
     3  C   -0.103250
     4  C   -0.069807
     5  C   -0.098405
     6  N   -0.364193
     7  C   -0.034177
     8  C   -0.002665
     9  C   -0.138132
    10  C    0.093051
    11  C    0.019365
    12  C   -0.009136
    13  C   -0.148481
    14  H    0.036377
    15  N   -0.481775
    16  C    0.200792
    17  C   -0.180164
    18  C   -0.027755
    19  C    0.193799
    20  C    0.079898
    21  C    0.021580
    22  O   -0.252839
    23  C   -0.034121
    24  N   -0.410949
    25  C    0.038698
    26  C   -0.045301
    27  C   -0.088417
    28  C    0.134098
    29  C   -0.000908
    30  C   -0.040854
    31  C   -0.058078
    32  N   -0.418854
    33  C    0.119485
    34  C   -0.179184
    35  C   -0.042508
    36  C    0.138791
    37  C    0.103216
    38  C    0.092998
    39  O   -0.217697
    40  C   -0.114393
    41  C    0.257078
    42  O   -0.187449
    43  O   -0.389628
    44  C    0.148320
    45  H   -0.010804
    46  H    0.025961
    47  H   -0.021875
    48  H    0.032322
    49  H    0.032459
    50  H    0.050141
    51  H    0.027202
    52  H    0.046218
    53  H    0.042835
    54  H    0.040602
    55  H    0.074215
    56  H    0.060422
    57  H    0.058530
    58  H    0.036777
    59  H    0.054059
    60  H    0.050790
    61  H    0.073219
    62  H    0.053537
    63  H    0.051996
    64  H    0.039640
    65  H    0.033997
    66  H    0.046067
    67  H    0.057365
    68  H    0.033654
    69  H    0.029686
    70  H    0.026184
    71  H    0.038826
    72  H    0.035141
    73  H    0.041449
    74  H    0.054405
    75  H    0.067127
    76  H    0.052195
    77  H    0.050859
    78  H    0.037017
    79  H    0.060152
    80  Mg   0.948256
    81  C   -0.025549
    82  C   -0.065404
    83  C   -0.063908
    84  C   -0.102365
    85  N   -0.370857
    86  C   -0.015887
    87  C   -0.028355
    88  C   -0.134726
    89  C    0.098661
    90  C    0.020684
    91  C   -0.029934
    92  C   -0.123619
    93  H    0.053516
    94  N   -0.508257
    95  C    0.144420
    96  C   -0.142083
    97  C   -0.082430
    98  C    0.112975
    99  C    0.032989
   100  C    0.056465
   101  O   -0.199118
   102  C   -0.017847
   103  N   -0.306826
   104  C    0.065493
   105  C   -0.068750
   106  C   -0.048071
   107  C    0.007529
   108  C    0.036418
   109  C   -0.047558
   110  C   -0.031046
   111  N   -0.393328
   112  C    0.166115
   113  C   -0.184943
   114  C   -0.031420
   115  C    0.106134
   116  C    0.061938
   117  C    0.130875
   118  O   -0.210228
   119  C   -0.060791
   120  C    0.252815
   121  O   -0.228653
   122  O   -0.379436
   123  C    0.117901
   124  H   -0.017312
   125  H    0.026223
   126  H   -0.005174
   127  H    0.048810
   128  H    0.042245
   129  H    0.042698
   130  H    0.050128
   131  H    0.032124
   132  H    0.030153
   133  H    0.046344
   134  H    0.034896
   135  H    0.055806
   136  H    0.037207
   137  H    0.055380
   138  H    0.058289
   139  H    0.064553
   140  H    0.073651
   141  H    0.037340
   142  H    0.039918
   143  H    0.035234
   144  H    0.044185
   145  H    0.034867
   146  H    0.041317
   147  H    0.023715
   148  H    0.022422
   149  H    0.035748
   150  H    0.033322
   151  H    0.037184
   152  H    0.045463
   153  H    0.051368
   154  H    0.052627
   155  H    0.070899
   156  H    0.051490
   157  H    0.068782
   158  H    0.086301
 Sum of Mulliken charges =  -0.00000

 Dipole moment (field-independent basis, Debye):
    X=              3.7253    Y=             -0.1023    Z=              4.6537  Tot=              5.9620
 Quadrupole moment (field-independent basis, Debye-Ang):
   XX=           -832.8192   YY=           -462.6489   ZZ=           -520.5823
   XY=              6.1205   XZ=            139.9597   YZ=             21.7744

 Normal termination of Gaussian 16 at Mon Sep 20 13:05:20 2021.
