 Gaussian 16, Revision A.03,
 Gaussian 16:  ES64L-G16RevA.03 25-Dec-2016

 --------------------------------
 #p wB97XD/Def2SVP td=(nstates=5)
 --------------------------------

 --------------------------------
 TDDFT excited states in gaussian
 --------------------------------
 Symbolic Z-matrix:
 Charge =  0 Multiplicity = 1

                         Standard orientation:
 ---------------------------------------------------------------------
 Center     Atomic      Atomic             Coordinates (Angstroms)
 Number     Number       Type             X           Y           Z
 ---------------------------------------------------------------------
      1         12           0      -13.578300   -0.518139    0.305727
      2          6           0      -13.176508    2.677072   -1.112780
      3          6           0      -12.160783    0.745118    3.218702
      4          6           0      -13.677175   -3.620743    1.485406
      5          6           0      -14.191996   -1.835428   -2.977353
      6          7           0      -12.751679    1.446538    0.958095
      7          6           0      -12.820384    2.637330    0.221367
      8          6           0      -12.657018    3.815329    1.163920
      9          6           0      -12.063094    3.208955    2.467099
     10          6           0      -12.346887    1.699333    2.203767
     11          6           0      -10.585980    3.589138    2.799263
     12          6           0      -13.957241    4.664234    1.382032
     13          6           0      -13.688136    6.207947    1.663560
     14          1           0      -12.232917    6.676729    1.744742
     15          7           0      -13.131559   -1.267454    2.088073
     16          6           0      -12.633519   -0.584764    3.184449
     17          6           0      -12.565160   -1.444791    4.330489
     18          6           0      -12.876106   -2.751169    3.834227
     19          6           0      -13.276237   -2.568447    2.450421
     20          6           0      -12.058347   -0.981203    5.730285
     21          6           0      -12.823054   -4.061215    4.549989
     22          8           0      -12.973460   -5.147348    3.941163
     23          6           0      -12.509855   -4.351017    6.047474
     24          7           0      -13.618675   -2.491667   -0.635322
     25          6           0      -13.756685   -3.612335    0.098123
     26          6           0      -14.219703   -4.791056   -0.794567
     27          6           0      -14.363836   -4.239996   -2.217706
     28          6           0      -14.077000   -2.704493   -1.909398
     29          6           0      -13.370238   -6.009264   -0.596223
     30          6           0      -15.708175   -4.486345   -2.935622
     31          6           0      -16.955894   -3.912568   -2.219970
     32          7           0      -13.620042    0.203251   -1.706581
     33          6           0      -14.028803   -0.409294   -2.842135
     34          6           0      -14.209057    0.641053   -3.843125
     35          6           0      -13.921932    1.901722   -3.248801
     36          6           0      -13.510379    1.583310   -1.931741
     37          6           0      -14.758072    0.442210   -5.253424
     38          6           0      -13.854675    3.312064   -3.462926
     39          8           0      -14.182219    4.050535   -4.387989
     40          6           0      -13.274081    3.907245   -2.020671
     41          6           0      -12.037957    4.744897   -2.288954
     42          8           0      -10.932682    4.273356   -2.471229
     43          8           0      -12.325787    6.087548   -2.194550
     44          6           0      -11.399584    7.051119   -2.780410
     45          1           0      -11.827314    1.274986    4.113198
     46          1           0      -13.784110   -4.600991    1.953986
     47          1           0      -14.515063   -2.291612   -3.915108
     48          1           0      -11.932166    4.513228    0.745094
     49          1           0      -12.698280    3.540479    3.288014
     50          1           0      -10.109510    2.613251    2.886412
     51          1           0      -10.519483    4.047899    3.786515
     52          1           0      -10.008412    4.184722    2.092340
     53          1           0      -14.497867    4.342876    2.271746
     54          1           0      -14.614913    4.516749    0.526364
     55          1           0      -14.051219    6.420992    2.669107
     56          1           0      -14.222298    6.772533    0.899739
     57          1           0      -11.469492   -1.796717    6.151924
     58          1           0      -12.872664   -0.786181    6.427292
     59          1           0      -11.463470   -0.075416    5.846674
     60          1           0      -13.185926   -3.793541    6.696357
     61          1           0      -11.467518   -4.157931    6.301010
     62          1           0      -12.844378   -5.327858    6.394713
     63          1           0      -15.153052   -5.137662   -0.352779
     64          1           0      -13.459587   -4.567047   -2.732212
     65          1           0      -13.847881   -6.760475    0.033052
     66          1           0      -12.396128   -5.722005   -0.200049
     67          1           0      -13.099560   -6.520725   -1.520605
     68          1           0      -15.790742   -5.573404   -2.937570
     69          1           0      -15.659535   -4.119049   -3.961150
     70          1           0      -17.393749   -3.211359   -2.930098
     71          1           0      -16.598852   -3.413391   -1.319125
     72          1           0      -17.652462   -4.667940   -1.855898
     73          1           0      -15.478847    1.209450   -5.534704
     74          1           0      -15.351017   -0.469075   -5.325914
     75          1           0      -13.912019    0.340840   -5.933698
     76          1           0      -14.057370    4.584310   -1.678917
     77          1           0      -10.395507    6.686480   -2.562094
     78          1           0      -11.475181    8.061614   -2.378658
     79          1           0      -11.663474    7.101246   -3.836825
     80         12           0       12.765287   -0.796992   -0.148940
     81          6           0       14.946320    1.875284    0.496898
     82          6           0       10.258746    0.788790    1.375545
     83          6           0       10.929650   -3.390174   -0.764947
     84          6           0       15.748273   -2.735168   -0.807688
     85          7           0       12.701754    1.080531    0.906122
     86          6           0       13.596200    2.076819    0.919791
     87          6           0       13.111541    3.258801    1.719076
     88          6           0       11.761420    2.717744    2.339715
     89          6           0       11.538963    1.475997    1.498184
     90          6           0       11.710462    2.428294    3.875025
     91          6           0       12.804774    4.510593    0.748335
     92          6           0       13.420794    5.855985    1.254486
     93          1           0       13.359786    7.007815    0.111703
     94          7           0       10.856680   -1.125713    0.019429
     95          6           0        9.920180   -0.328229    0.654840
     96          6           0        8.609649   -0.829035    0.343771
     97          6           0        8.722448   -2.103662   -0.348492
     98          6           0       10.221017   -2.234004   -0.511748
     99          6           0        7.366653   -0.085918    0.912168
    100          6           0        7.748180   -3.144289   -0.888688
    101          8           0        8.041023   -4.157517   -1.548896
    102          6           0        6.327297   -2.775131   -0.647575
    103          7           0       13.352330   -2.779043   -0.547733
    104          6           0       12.308316   -3.646754   -0.753534
    105          6           0       12.816965   -5.071386   -0.976856
    106          6           0       14.311150   -4.813153   -1.304160
    107          6           0       14.525658   -3.381726   -0.808472
    108          6           0       12.457995   -5.974960    0.268872
    109          6           0       14.733415   -4.990816   -2.824257
    110          6           0       16.212207   -5.307289   -3.099250
    111          7           0       14.922579   -0.526150   -0.203561
    112          6           0       15.936275   -1.391655   -0.483422
    113          6           0       17.210110   -0.709086   -0.525191
    114          6           0       16.823680    0.606081   -0.208285
    115          6           0       15.444863    0.661062    0.040814
    116          6           0       18.643141   -1.205081   -0.826187
    117          6           0       17.344578    1.934911   -0.047508
    118          8           0       18.405978    2.443311   -0.297601
    119          6           0       16.128801    2.785294    0.593104
    120          6           0       16.223430    4.023468   -0.184744
    121          8           0       15.766406    4.277216   -1.327893
    122          8           0       16.935643    4.863171    0.586298
    123          6           0       17.240180    6.195324    0.062199
    124          1           0        9.411290    1.338076    1.791300
    125          1           0       10.308661   -4.243620   -1.045758
    126          1           0       16.603074   -3.344569   -1.108350
    127          1           0       13.809216    3.628393    2.471089
    128          1           0       10.873166    3.321966    2.154301
    129          1           0       11.647772    1.348011    4.005904
    130          1           0       10.790813    2.900372    4.220253
    131          1           0       12.545145    2.751644    4.496009
    132          1           0       11.754715    4.679840    0.507027
    133          1           0       13.169582    4.223493   -0.237927
    134          1           0       14.462896    5.715619    1.540834
    135          1           0       12.894898    6.323280    2.086706
    136          1           0        7.062123    0.662537    0.181907
    137          1           0        7.598980    0.588518    1.737256
    138          1           0        6.586621   -0.697861    1.364530
    139          1           0        6.013616   -1.844030   -1.118218
    140          1           0        6.281652   -2.757557    0.442011
    141          1           0        5.616827   -3.543490   -0.953771
    142          1           0       12.261585   -5.440280   -1.839263
    143          1           0       14.925841   -5.530186   -0.760067
    144          1           0       13.354842   -6.188709    0.850180
    145          1           0       12.015616   -6.955373    0.094170
    146          1           0       11.824994   -5.525636    1.034349
    147          1           0       14.601104   -3.985842   -3.225952
    148          1           0       14.166169   -5.700886   -3.426417
    149          1           0       16.714505   -4.496129   -3.627931
    150          1           0       16.468076   -6.205145   -3.662194
    151          1           0       16.690185   -5.311846   -2.120654
    152          1           0       18.642571   -2.268531   -0.587068
    153          1           0       19.378705   -0.669479   -0.224580
    154          1           0       18.794812   -1.067021   -1.896666
    155          1           0       16.355876    3.020448    1.633081
    156          1           0       16.669799    6.928581    0.632108
    157          1           0       17.126673    6.249042   -1.020020
    158          1           0       18.278327    6.424653    0.302212
 ---------------------------------------------------------------------

 SCF Done:  E(RwB97XD) =  -4070.60848030     A.U. after   18 cycles

 Excitation energies and oscillator strengths:

 Excited State   1:      Singlet-A      1.6018 eV  774.05 nm  f=0.4010  <S**2>=0.000
     309 -> 316        0.17290
     311 -> 313        0.68558
     309 <- 316        0.11420
 This state for optimization and/or second-order correction.
 Total Energy, E(TD-HF/TD-DFT) =  -4070.54961659
 Copying the excited state density for this state as the 1-particle RhoCI density.

 Excited State   2:      Singlet-A      1.6710 eV  741.97 nm  f=0.3802  <S**2>=0.000
     310 -> 315       -0.20301
     312 -> 314        0.67872
     310 <- 315       -0.12000

 Excited State   3:      Singlet-A      2.1363 eV  580.38 nm  f=0.1471  <S**2>=0.000
     309 -> 313        0.65486
     311 -> 316       -0.24833

 Excited State   4:      Singlet-A      2.1933 eV  565.28 nm  f=0.0615  <S**2>=0.000
     310 -> 314        0.61584
     312 -> 315        0.33621

 Excited State   5:      Singlet-A      3.5980 eV  344.59 nm  f=0.0000  <S**2>=0.000
     312 -> 313        0.70707

 The electronic state is 1-A.
 Alpha  occ. eigenvalues --  -46.95315 -46.93882 -19.30052 -19.29543 -19.24681
 Alpha  occ. eigenvalues --  -19.24457 -19.24244 -19.24033 -19.23482 -19.23370
 Alpha  occ. eigenvalues --  -14.47235 -14.47146 -14.46276 -14.46041 -14.44959
 Alpha  occ. eigenvalues --  -14.44055 -14.44012 -14.42957 -10.43018 -10.42391
 Alpha  occ. eigenvalues --  -10.39937 -10.39662 -10.39548 -10.38626 -10.35724
 Alpha  occ. eigenvalues --  -10.35699 -10.35186 -10.35160 -10.35017 -10.34859
 Alpha  occ. eigenvalues --  -10.34822 -10.34787 -10.34713 -10.34631 -10.34608
 Alpha  occ. eigenvalues --  -10.34398 -10.34215 -10.34209 -10.34114 -10.33892
 Alpha  occ. eigenvalues --  -10.33790 -10.33429 -10.33309 -10.33183 -10.33077
 Alpha  occ. eigenvalues --  -10.32759 -10.32650 -10.32384 -10.32383 -10.32363
 Alpha  occ. eigenvalues --  -10.32266 -10.32164 -10.32097 -10.31953 -10.31886
 Alpha  occ. eigenvalues --  -10.31846 -10.31755 -10.31737 -10.31718 -10.31684
 Alpha  occ. eigenvalues --  -10.31643 -10.31634 -10.31604 -10.31523 -10.31482
 Alpha  occ. eigenvalues --  -10.31301 -10.30944 -10.30731 -10.30692 -10.30636
 Alpha  occ. eigenvalues --  -10.30486 -10.30329 -10.30316 -10.30268 -10.30224
 Alpha  occ. eigenvalues --  -10.30195 -10.30184 -10.29869 -10.29829 -10.29692
 Alpha  occ. eigenvalues --  -10.29485 -10.29463 -10.29373 -10.29151 -10.28791
 Alpha  occ. eigenvalues --  -10.28441  -3.21327  -3.20125  -1.94887  -1.94450
 Alpha  occ. eigenvalues --   -1.94307  -1.93708  -1.93270  -1.93115  -1.18085
 Alpha  occ. eigenvalues --   -1.17671  -1.12968  -1.11733  -1.11577  -1.10697
 Alpha  occ. eigenvalues --   -1.09702  -1.07687  -1.07162  -1.06414  -1.06274
 Alpha  occ. eigenvalues --   -1.05574  -1.05537  -1.05289  -1.04430  -1.04185
 Alpha  occ. eigenvalues --   -0.94656  -0.94205  -0.91092  -0.91019  -0.90474
 Alpha  occ. eigenvalues --   -0.90169  -0.90091  -0.89858  -0.89338  -0.89335
 Alpha  occ. eigenvalues --   -0.88887  -0.88841  -0.88175  -0.87303  -0.86416
 Alpha  occ. eigenvalues --   -0.85759  -0.85695  -0.85278  -0.84343  -0.84145
 Alpha  occ. eigenvalues --   -0.84129  -0.83196  -0.83050  -0.82633  -0.82205
 Alpha  occ. eigenvalues --   -0.82023  -0.80731  -0.80142  -0.79198  -0.78907
 Alpha  occ. eigenvalues --   -0.78793  -0.78736  -0.77821  -0.77817  -0.77284
 Alpha  occ. eigenvalues --   -0.76993  -0.74736  -0.74565  -0.74078  -0.73097
 Alpha  occ. eigenvalues --   -0.71875  -0.71183  -0.71175  -0.70679  -0.70382
 Alpha  occ. eigenvalues --   -0.69815  -0.69579  -0.69158  -0.67954  -0.67425
 Alpha  occ. eigenvalues --   -0.67267  -0.66917  -0.66842  -0.66400  -0.66201
 Alpha  occ. eigenvalues --   -0.66108  -0.63722  -0.63689  -0.62993  -0.62219
 Alpha  occ. eigenvalues --   -0.61758  -0.61508  -0.61107  -0.60852  -0.60582
 Alpha  occ. eigenvalues --   -0.60101  -0.59948  -0.59449  -0.59074  -0.58973
 Alpha  occ. eigenvalues --   -0.58283  -0.57952  -0.57811  -0.57724  -0.57402
 Alpha  occ. eigenvalues --   -0.56841  -0.56794  -0.56251  -0.55909  -0.55805
 Alpha  occ. eigenvalues --   -0.55459  -0.55336  -0.55133  -0.55045  -0.54733
 Alpha  occ. eigenvalues --   -0.54720  -0.54547  -0.54447  -0.54334  -0.54110
 Alpha  occ. eigenvalues --   -0.53972  -0.53485  -0.53330  -0.53299  -0.53009
 Alpha  occ. eigenvalues --   -0.52942  -0.52660  -0.52632  -0.52274  -0.52075
 Alpha  occ. eigenvalues --   -0.52054  -0.51906  -0.51550  -0.51324  -0.51215
 Alpha  occ. eigenvalues --   -0.51170  -0.50986  -0.50977  -0.50807  -0.50725
 Alpha  occ. eigenvalues --   -0.50611  -0.50365  -0.50193  -0.50044  -0.49896
 Alpha  occ. eigenvalues --   -0.49884  -0.49732  -0.49409  -0.49278  -0.49149
 Alpha  occ. eigenvalues --   -0.48775  -0.48665  -0.48374  -0.48372  -0.48314
 Alpha  occ. eigenvalues --   -0.48224  -0.47837  -0.47798  -0.47611  -0.47443
 Alpha  occ. eigenvalues --   -0.47420  -0.47194  -0.47028  -0.46816  -0.46729
 Alpha  occ. eigenvalues --   -0.46463  -0.46203  -0.46039  -0.45951  -0.45924
 Alpha  occ. eigenvalues --   -0.45651  -0.45464  -0.45441  -0.45373  -0.45173
 Alpha  occ. eigenvalues --   -0.45022  -0.44974  -0.44768  -0.44742  -0.44571
 Alpha  occ. eigenvalues --   -0.44557  -0.44353  -0.44126  -0.43981  -0.43918
 Alpha  occ. eigenvalues --   -0.43850  -0.43836  -0.43623  -0.43558  -0.43220
 Alpha  occ. eigenvalues --   -0.43120  -0.42703  -0.42670  -0.42582  -0.42425
 Alpha  occ. eigenvalues --   -0.42166  -0.42046  -0.41563  -0.41465  -0.41210
 Alpha  occ. eigenvalues --   -0.40687  -0.40614  -0.39811  -0.39729  -0.39644
 Alpha  occ. eigenvalues --   -0.39424  -0.38956  -0.38910  -0.38320  -0.38032
 Alpha  occ. eigenvalues --   -0.37482  -0.37187  -0.36116  -0.36090  -0.35935
 Alpha  occ. eigenvalues --   -0.35757  -0.35308  -0.34924  -0.33736  -0.33671
 Alpha  occ. eigenvalues --   -0.33459  -0.33022  -0.32819  -0.32581  -0.32426
 Alpha  occ. eigenvalues --   -0.32302  -0.31735  -0.31700  -0.26092  -0.26080
 Alpha  occ. eigenvalues --   -0.23244  -0.22893
 Alpha virt. eigenvalues --   -0.07662  -0.06747  -0.00357   0.00463   0.01796
 Alpha virt. eigenvalues --    0.01951   0.04027   0.04600   0.04623   0.06259
 Alpha virt. eigenvalues --    0.07314   0.07404   0.07636   0.07710   0.08275

 Mulliken charges:
               1
     1  Mg   0.972091
     2  C    0.006857
     3  C   -0.061794
     4  C   -0.062888
     5  C   -0.062852
     6  N   -0.337652
     7  C   -0.003226
     8  C   -0.035446
     9  C   -0.097830
    10  C    0.010275
    11  C    0.027446
    12  C   -0.006677
    13  C   -0.129078
    14  H    0.033920
    15  N   -0.494964
    16  C    0.189782
    17  C   -0.136938
    18  C   -0.054498
    19  C    0.137681
    20  C    0.058978
    21  C    0.036219
    22  O   -0.271605
    23  C   -0.007014
    24  N   -0.340868
    25  C    0.077465
    26  C   -0.129506
    27  C   -0.020213
    28  C    0.012737
    29  C    0.021344
    30  C   -0.019516
    31  C   -0.045950
    32  N   -0.429054
    33  C    0.150535
    34  C   -0.205154
    35  C    0.004364
    36  C    0.123025
    37  C    0.072249
    38  C    0.116817
    39  O   -0.207496
    40  C   -0.128465
    41  C    0.274760
    42  O   -0.237640
    43  O   -0.379769
    44  C    0.133618
    45  H   -0.003111
    46  H    0.023117
    47  H   -0.004260
    48  H    0.030700
    49  H    0.033150
    50  H    0.030486
    51  H    0.034784
    52  H    0.058326
    53  H    0.029843
    54  H    0.037296
    55  H    0.054536
    56  H    0.069239
    57  H    0.037061
    58  H    0.051191
    59  H    0.045472
    60  H    0.031007
    61  H    0.073363
    62  H    0.048665
    63  H    0.037261
    64  H    0.038811
    65  H    0.043534
    66  H    0.041770
    67  H    0.022380
    68  H    0.033367
    69  H    0.039455
    70  H    0.046975
    71  H    0.038492
    72  H    0.043091
    73  H    0.057713
    74  H    0.018614
    75  H    0.059480
    76  H    0.065612
    77  H    0.060099
    78  H    0.053727
    79  H    0.064681
    80  Mg   0.994237
    81  C    0.048721
    82  C   -0.082893
    83  C   -0.068794
    84  C   -0.108826
    85  N   -0.341423
    86  C    0.045861
    87  C   -0.121789
    88  C   -0.075763
    89  C    0.029389
    90  C    0.026887
    91  C    0.023941
    92  C   -0.140378
    93  H    0.018711
    94  N   -0.559137
    95  C    0.189767
    96  C   -0.126466
    97  C   -0.130500
    98  C    0.181314
    99  C    0.043994
   100  C    0.089292
   101  O   -0.240600
   102  C   -0.020921
   103  N   -0.364168
   104  C    0.073058
   105  C   -0.083648
   106  C   -0.059605
   107  C    0.063368
   108  C    0.017239
   109  C   -0.011463
   110  C   -0.064770
   111  N   -0.360426
   112  C    0.130653
   113  C   -0.202758
   114  C   -0.018015
   115  C    0.092212
   116  C    0.097839
   117  C    0.101686
   118  O   -0.185198
   119  C   -0.133319
   120  C    0.263411
   121  O   -0.284973
   122  O   -0.350114
   123  C    0.138337
   124  H   -0.014456
   125  H    0.026675
   126  H   -0.019400
   127  H    0.037090
   128  H    0.028918
   129  H    0.042185
   130  H    0.037514
   131  H    0.042901
   132  H    0.031604
   133  H    0.058242
   134  H    0.053245
   135  H    0.056507
   136  H    0.054263
   137  H    0.028001
   138  H    0.054171
   139  H    0.074803
   140  H    0.050131
   141  H    0.047771
   142  H    0.043361
   143  H    0.027271
   144  H    0.021112
   145  H    0.044015
   146  H    0.041004
   147  H    0.036452
   148  H    0.043341
   149  H    0.035194
   150  H    0.044612
   151  H    0.027491
   152  H    0.034161
   153  H    0.066189
   154  H    0.064428
   155  H    0.073380
   156  H    0.048498
   157  H    0.075985
   158  H    0.049367
 Sum of Mulliken charges =  -0.00000

 Dipole moment (field-independent basis, Debye):
    X=             -5.1548    Y=              0.2709    Z=              8.5101  Tot=              9.9533
 Quadrupole moment (field-independent basis, Debye-Ang):
   XX=           -539.0959   YY=           -492.4419   ZZ=           -494.9411
   XY=            -26.0659   XZ=            -15.2323   YZ=             41.7952

 Normal termination of Gaussian 16 at Sun Sep 19 04:53:35 2021.
