 Gaussian 16, Revision A.03,
 Gaussian 16:  ES64L-G16RevA.03 25-Dec-2016

 --------------------------------
 #p wB97XD/Def2SVP td=(nstates=5)
 --------------------------------

 --------------------------------
 TDDFT excited states in gaussian
 --------------------------------
 Symbolic Z-matrix:
 Charge =  0 Multiplicity = 1

                         Standard orientation:
 ---------------------------------------------------------------------
 Center     Atomic      Atomic             Coordinates (Angstroms)
 Number     Number       Type             X           Y           Z
 ---------------------------------------------------------------------
      1         12           0       18.643546   -0.223748   -0.048084
      2          6           0       15.233358   -0.699705   -0.028816
      3          6           0       18.277603    1.783246   -2.787127
      4          6           0       21.547749    1.137743    0.742272
      5          6           0       18.829907   -2.278742    2.792647
      6          7           0       16.846911    0.795790   -0.941228
      7          6           0       15.597126    0.264727   -0.936595
      8          6           0       14.699276    0.884623   -1.966163
      9          6           0       15.763130    1.297979   -3.034056
     10          6           0       17.059547    1.221379   -2.241259
     11          6           0       15.713686    0.418318   -4.316149
     12          6           0       13.909418    2.166138   -1.393637
     13          6           0       12.427816    2.368157   -1.959798
     14          1           0       12.375388    3.705217   -2.656619
     15          7           0       19.835157    1.120316   -1.031346
     16          6           0       19.530177    1.919170   -2.077470
     17          6           0       20.647872    2.798149   -2.397381
     18          6           0       21.619293    2.594941   -1.395744
     19          6           0       21.004209    1.578136   -0.497047
     20          6           0       20.584714    3.769192   -3.601274
     21          6           0       22.839614    3.461405   -1.254521
     22          8           0       23.055217    4.319430   -2.070335
     23          6           0       23.845409    3.374907   -0.090696
     24          7           0       20.111115   -0.596789    1.485490
     25          6           0       21.162694    0.087318    1.585458
     26          6           0       21.938686   -0.197610    2.817918
     27          6           0       21.078423   -1.328646    3.506870
     28          6           0       19.949329   -1.424254    2.575338
     29          6           0       23.433182   -0.538356    2.496682
     30          6           0       20.623841   -0.921874    4.984559
     31          6           0       20.166512   -2.076620    5.945149
     32          7           0       17.371752   -1.352830    1.121143
     33          6           0       17.615270   -2.214870    2.174944
     34          6           0       16.422124   -2.933978    2.526011
     35          6           0       15.435634   -2.395364    1.627642
     36          6           0       16.036493   -1.390349    0.894486
     37          6           0       16.260679   -3.987561    3.573984
     38          6           0       14.075156   -2.508711    1.229004
     39          8           0       13.111806   -3.197957    1.588098
     40          6           0       13.837603   -1.287895    0.279690
     41          6           0       13.057428   -1.799380   -0.885167
     42          8           0       11.822607   -1.763018   -0.980590
     43          8           0       13.905435   -2.362415   -1.798505
     44          6           0       13.104591   -2.909612   -2.929474
     45          1           0       18.297028    2.326566   -3.734563
     46          1           0       22.475410    1.647266    1.009052
     47          1           0       18.863458   -2.806483    3.748856
     48          1           0       14.094898    0.051055   -2.321687
     49          1           0       15.542778    2.307334   -3.381937
     50          1           0       15.432706    1.038356   -5.166955
     51          1           0       14.900108   -0.295422   -4.182591
     52          1           0       16.675049   -0.087001   -4.403073
     53          1           0       14.435502    3.119305   -1.444446
     54          1           0       13.791937    2.085001   -0.313507
     55          1           0       11.810572    2.438389   -1.064030
     56          1           0       11.963959    1.582378   -2.556137
     57          1           0       20.704099    4.822680   -3.348541
     58          1           0       19.688666    3.660835   -4.213393
     59          1           0       21.376111    3.468531   -4.287047
     60          1           0       24.380313    2.426470   -0.053599
     61          1           0       23.405556    3.581823    0.885239
     62          1           0       24.484146    4.249392   -0.218448
     63          1           0       21.852981    0.729435    3.384634
     64          1           0       21.477880   -2.342236    3.531240
     65          1           0       24.043272    0.192783    3.026633
     66          1           0       23.634862   -0.516057    1.425583
     67          1           0       23.796941   -1.446268    2.977551
     68          1           0       19.800095   -0.209216    4.938634
     69          1           0       21.482040   -0.407188    5.414156
     70          1           0       20.685104   -2.266246    6.884539
     71          1           0       20.249188   -3.041945    5.447609
     72          1           0       19.119966   -1.944751    6.219884
     73          1           0       17.173884   -4.360876    4.037029
     74          1           0       15.744430   -4.742108    2.981849
     75          1           0       15.540049   -3.491925    4.224602
     76          1           0       13.318043   -0.450594    0.746838
     77          1           0       12.542153   -3.777350   -2.586282
     78          1           0       13.723367   -3.366317   -3.701928
     79          1           0       12.493805   -2.096889   -3.323120
     80         12           0      -18.290596    0.336723    0.431042
     81          6           0      -15.460462   -1.124136   -1.075323
     82          6           0      -19.948656   -2.603708    0.063069
     83          6           0      -21.014942    1.823345    1.775600
     84          6           0      -16.667564    3.405630    0.352854
     85          7           0      -17.813265   -1.576962   -0.482354
     86          6           0      -16.557321   -1.990788   -0.934591
     87          6           0      -16.590166   -3.463195   -1.214791
     88          6           0      -18.107515   -3.751017   -1.307434
     89          6           0      -18.675181   -2.548371   -0.510324
     90          6           0      -18.749383   -3.787160   -2.730279
     91          6           0      -15.852436   -4.379176   -0.167085
     92          6           0      -14.950301   -5.407893   -0.770990
     93          1           0      -15.041357   -6.830357   -0.187644
     94          7           0      -20.126787   -0.334047    0.936238
     95          6           0      -20.624922   -1.639577    0.791321
     96          6           0      -21.923281   -1.723559    1.330918
     97          6           0      -22.290759   -0.402308    1.870900
     98          6           0      -21.148007    0.407795    1.558815
     99          6           0      -22.837282   -2.910256    1.237767
    100          6           0      -23.619993    0.153832    2.543755
    101          8           0      -23.685974    1.294347    2.936909
    102          6           0      -24.808199   -0.760877    2.804610
    103          7           0      -18.805302    2.360712    0.882712
    104          6           0      -20.009541    2.695510    1.413955
    105          6           0      -20.095145    4.281395    1.633052
    106          6           0      -18.583340    4.745727    1.457110
    107          6           0      -17.953489    3.420992    0.848861
    108          6           0      -21.052222    5.057007    0.686191
    109          6           0      -17.885142    5.189838    2.791626
    110          6           0      -17.283495    6.525985    2.663471
    111          7           0      -16.470899    1.037559   -0.261862
    112          6           0      -15.900017    2.301935   -0.124650
    113          6           0      -14.558556    2.290601   -0.641380
    114          6           0      -14.360031    0.986129   -1.045501
    115          6           0      -15.484945    0.268549   -0.786239
    116          6           0      -13.633474    3.534363   -0.588126
    117          6           0      -13.416029    0.075460   -1.666844
    118          8           0      -12.342970    0.338086   -2.163681
    119          6           0      -14.122937   -1.368244   -1.733640
    120          6           0      -14.204960   -1.795659   -3.142345
    121          8           0      -14.786760   -1.147577   -4.051520
    122          8           0      -13.518212   -2.966600   -3.276858
    123          6           0      -13.185799   -3.323837   -4.681458
    124          1           0      -20.430579   -3.564983   -0.126875
    125          1           0      -21.852519    2.384257    2.195079
    126          1           0      -16.199231    4.388099    0.269992
    127          1           0      -16.221886   -3.734874   -2.204805
    128          1           0      -18.398347   -4.701401   -0.859566
    129          1           0      -18.087155   -4.176887   -3.504475
    130          1           0      -19.064580   -2.769098   -2.960434
    131          1           0      -19.698418   -4.316929   -2.808553
    132          1           0      -16.650007   -4.820539    0.430257
    133          1           0      -15.290472   -3.788267    0.556777
    134          1           0      -13.975204   -4.948023   -0.609578
    135          1           0      -15.207191   -5.547451   -1.820971
    136          1           0      -22.983694   -3.467831    2.163109
    137          1           0      -22.391524   -3.651996    0.576254
    138          1           0      -23.847368   -2.757257    0.858691
    139          1           0      -25.508003   -0.169345    3.393647
    140          1           0      -24.495950   -1.713669    3.233148
    141          1           0      -25.185976   -1.151137    1.859126
    142          1           0      -20.521746    4.497458    2.612692
    143          1           0      -18.556716    5.550065    0.720460
    144          1           0      -21.532058    4.476119   -0.102166
    145          1           0      -20.563570    5.880739    0.165222
    146          1           0      -21.831334    5.487277    1.316002
    147          1           0      -17.065066    4.501342    2.998846
    148          1           0      -18.549601    5.251456    3.653239
    149          1           0      -17.957660    7.253872    3.115661
    150          1           0      -16.963780    6.872260    1.681266
    151          1           0      -16.321416    6.538222    3.175796
    152          1           0      -14.041640    4.247213    0.128752
    153          1           0      -13.427157    3.923075   -1.586391
    154          1           0      -12.708802    3.156651   -0.153350
    155          1           0      -13.575894   -2.110874   -1.152271
    156          1           0      -12.525845   -4.190869   -4.704742
    157          1           0      -12.568572   -2.500045   -5.040584
    158          1           0      -14.133172   -3.424541   -5.211766
 ---------------------------------------------------------------------

 SCF Done:  E(RwB97XD) =  -4070.61893727     A.U. after   19 cycles

 Excitation energies and oscillator strengths:

 Excited State   1:      Singlet-A      1.6576 eV  748.00 nm  f=0.3704  <S**2>=0.000
     309 -> 315       -0.16761
     312 -> 314        0.68556
     309 <- 315       -0.10879
 This state for optimization and/or second-order correction.
 Total Energy, E(TD-HF/TD-DFT) =  -4070.55802334
 Copying the excited state density for this state as the 1-particle RhoCI density.

 Excited State   2:      Singlet-A      1.6892 eV  733.97 nm  f=0.3864  <S**2>=0.000
     310 -> 316        0.18339
     311 -> 313        0.68246
     310 <- 316        0.11554

 Excited State   3:      Singlet-A      2.1431 eV  578.54 nm  f=0.1545  <S**2>=0.000
     310 -> 313        0.65150
     311 -> 316       -0.25247

 Excited State   4:      Singlet-A      2.1683 eV  571.80 nm  f=0.1041  <S**2>=0.000
     309 -> 314        0.63811
     312 -> 315        0.28219

 Excited State   5:      Singlet-A      3.2004 eV  387.40 nm  f=0.0020  <S**2>=0.000
     305 -> 313       -0.29834
     307 -> 313        0.62224

 The electronic state is 1-A.
 Alpha  occ. eigenvalues --  -46.95542 -46.93483 -19.30801 -19.30704 -19.24878
 Alpha  occ. eigenvalues --  -19.24578 -19.24405 -19.24000 -19.23946 -19.22855
 Alpha  occ. eigenvalues --  -14.46658 -14.46612 -14.46474 -14.46031 -14.44939
 Alpha  occ. eigenvalues --  -14.43907 -14.43109 -14.43086 -10.43209 -10.42460
 Alpha  occ. eigenvalues --  -10.40302 -10.39769 -10.38969 -10.37989 -10.36423
 Alpha  occ. eigenvalues --  -10.35853 -10.35836 -10.35408 -10.35133 -10.35009
 Alpha  occ. eigenvalues --  -10.34672 -10.34667 -10.34628 -10.34587 -10.34361
 Alpha  occ. eigenvalues --  -10.34143 -10.33944 -10.33899 -10.33624 -10.33089
 Alpha  occ. eigenvalues --  -10.33019 -10.32691 -10.32542 -10.32418 -10.32239
 Alpha  occ. eigenvalues --  -10.32225 -10.32152 -10.32118 -10.32085 -10.32083
 Alpha  occ. eigenvalues --  -10.31975 -10.31829 -10.31818 -10.31785 -10.31764
 Alpha  occ. eigenvalues --  -10.31753 -10.31712 -10.31661 -10.31641 -10.31614
 Alpha  occ. eigenvalues --  -10.31487 -10.31415 -10.31352 -10.31274 -10.31217
 Alpha  occ. eigenvalues --  -10.31140 -10.30966 -10.30869 -10.30641 -10.30632
 Alpha  occ. eigenvalues --  -10.30576 -10.30572 -10.30570 -10.30352 -10.30290
 Alpha  occ. eigenvalues --  -10.30084 -10.30060 -10.29988 -10.29904 -10.29894
 Alpha  occ. eigenvalues --  -10.29792 -10.29548 -10.29130 -10.28381 -10.28351
 Alpha  occ. eigenvalues --  -10.28275  -3.21554  -3.19617  -1.95130  -1.94692
 Alpha  occ. eigenvalues --   -1.94516  -1.93218  -1.92735  -1.92617  -1.18048
 Alpha  occ. eigenvalues --   -1.17861  -1.14220  -1.13902  -1.12476  -1.10233
 Alpha  occ. eigenvalues --   -1.09032  -1.08566  -1.08445  -1.06888  -1.06661
 Alpha  occ. eigenvalues --   -1.05948  -1.05287  -1.04783  -1.04509  -1.03447
 Alpha  occ. eigenvalues --   -0.94477  -0.94394  -0.91583  -0.91007  -0.90588
 Alpha  occ. eigenvalues --   -0.90493  -0.90103  -0.89878  -0.89216  -0.88911
 Alpha  occ. eigenvalues --   -0.88901  -0.88497  -0.88322  -0.87703  -0.86185
 Alpha  occ. eigenvalues --   -0.86151  -0.85650  -0.85642  -0.84748  -0.84151
 Alpha  occ. eigenvalues --   -0.83996  -0.83718  -0.83080  -0.82800  -0.82570
 Alpha  occ. eigenvalues --   -0.82252  -0.80323  -0.80171  -0.79795  -0.79177
 Alpha  occ. eigenvalues --   -0.78687  -0.78625  -0.77841  -0.77587  -0.77419
 Alpha  occ. eigenvalues --   -0.76768  -0.74802  -0.74617  -0.74191  -0.72854
 Alpha  occ. eigenvalues --   -0.72361  -0.71302  -0.70540  -0.70110  -0.69967
 Alpha  occ. eigenvalues --   -0.69644  -0.69455  -0.68723  -0.68464  -0.67397
 Alpha  occ. eigenvalues --   -0.67275  -0.67042  -0.66835  -0.66523  -0.66434
 Alpha  occ. eigenvalues --   -0.65988  -0.64353  -0.63867  -0.62551  -0.62279
 Alpha  occ. eigenvalues --   -0.62035  -0.61541  -0.61191  -0.61159  -0.60744
 Alpha  occ. eigenvalues --   -0.60087  -0.59966  -0.59627  -0.59527  -0.58943
 Alpha  occ. eigenvalues --   -0.58554  -0.58128  -0.58080  -0.57620  -0.57580
 Alpha  occ. eigenvalues --   -0.57353  -0.56902  -0.56822  -0.56042  -0.55660
 Alpha  occ. eigenvalues --   -0.55517  -0.55477  -0.55324  -0.54904  -0.54635
 Alpha  occ. eigenvalues --   -0.54507  -0.54438  -0.54304  -0.53913  -0.53768
 Alpha  occ. eigenvalues --   -0.53684  -0.53587  -0.53457  -0.53092  -0.53087
 Alpha  occ. eigenvalues --   -0.52908  -0.52746  -0.52503  -0.52389  -0.52389
 Alpha  occ. eigenvalues --   -0.52141  -0.51996  -0.51817  -0.51686  -0.51633
 Alpha  occ. eigenvalues --   -0.51295  -0.51291  -0.51054  -0.51033  -0.50816
 Alpha  occ. eigenvalues --   -0.50580  -0.50575  -0.50217  -0.49828  -0.49677
 Alpha  occ. eigenvalues --   -0.49539  -0.49523  -0.49329  -0.49108  -0.48860
 Alpha  occ. eigenvalues --   -0.48713  -0.48697  -0.48510  -0.48324  -0.48177
 Alpha  occ. eigenvalues --   -0.48136  -0.48005  -0.47785  -0.47718  -0.47652
 Alpha  occ. eigenvalues --   -0.47613  -0.47300  -0.47259  -0.47057  -0.46927
 Alpha  occ. eigenvalues --   -0.46628  -0.46532  -0.46524  -0.46344  -0.46321
 Alpha  occ. eigenvalues --   -0.46225  -0.46224  -0.46104  -0.45908  -0.45292
 Alpha  occ. eigenvalues --   -0.45257  -0.45201  -0.45083  -0.44850  -0.44801
 Alpha  occ. eigenvalues --   -0.44722  -0.44514  -0.44493  -0.44246  -0.44049
 Alpha  occ. eigenvalues --   -0.43810  -0.43808  -0.43785  -0.43729  -0.43316
 Alpha  occ. eigenvalues --   -0.43079  -0.43077  -0.42820  -0.42639  -0.42292
 Alpha  occ. eigenvalues --   -0.41945  -0.41906  -0.41485  -0.40986  -0.40672
 Alpha  occ. eigenvalues --   -0.40544  -0.40216  -0.40198  -0.39836  -0.39697
 Alpha  occ. eigenvalues --   -0.39584  -0.38858  -0.38731  -0.38700  -0.38374
 Alpha  occ. eigenvalues --   -0.38341  -0.37859  -0.36944  -0.36176  -0.36038
 Alpha  occ. eigenvalues --   -0.35777  -0.35316  -0.35297  -0.33947  -0.33690
 Alpha  occ. eigenvalues --   -0.33561  -0.33423  -0.32765  -0.32763  -0.32101
 Alpha  occ. eigenvalues --   -0.31978  -0.31690  -0.31000  -0.26116  -0.25824
 Alpha  occ. eigenvalues --   -0.23281  -0.22956
 Alpha virt. eigenvalues --   -0.07312  -0.07087   0.00165   0.00699   0.02324
 Alpha virt. eigenvalues --    0.02842   0.04179   0.04932   0.05167   0.06536
 Alpha virt. eigenvalues --    0.06761   0.06998   0.08115   0.08162   0.08719

 Mulliken charges:
               1
     1  Mg   0.966652
     2  C    0.015928
     3  C   -0.089416
     4  C   -0.073321
     5  C   -0.081806
     6  N   -0.340869
     7  C   -0.050183
     8  C   -0.024360
     9  C   -0.146583
    10  C    0.111182
    11  C    0.045249
    12  C    0.022886
    13  C   -0.129982
    14  H    0.028956
    15  N   -0.460344
    16  C    0.119126
    17  C   -0.139316
    18  C   -0.060629
    19  C    0.168269
    20  C    0.086838
    21  C    0.018658
    22  O   -0.211076
    23  C   -0.019686
    24  N   -0.295201
    25  C    0.031300
    26  C   -0.087960
    27  C   -0.051428
    28  C    0.005457
    29  C    0.018816
    30  C   -0.018512
    31  C   -0.065312
    32  N   -0.451009
    33  C    0.151394
    34  C   -0.200817
    35  C   -0.007513
    36  C    0.105922
    37  C    0.098585
    38  C    0.085803
    39  O   -0.226176
    40  C   -0.061097
    41  C    0.241327
    42  O   -0.257992
    43  O   -0.370146
    44  C    0.138457
    45  H    0.002891
    46  H   -0.045545
    47  H   -0.027227
    48  H    0.026089
    49  H    0.042492
    50  H    0.041647
    51  H    0.029850
    52  H    0.040770
    53  H    0.040678
    54  H    0.032335
    55  H    0.057610
    56  H    0.062963
    57  H    0.069785
    58  H    0.019267
    59  H    0.052799
    60  H    0.067206
    61  H    0.060707
    62  H    0.051508
    63  H    0.046684
    64  H    0.041931
    65  H    0.030556
    66  H    0.057212
    67  H    0.038689
    68  H    0.041091
    69  H    0.036528
    70  H    0.040065
    71  H    0.033002
    72  H    0.044204
    73  H    0.043210
    74  H    0.064993
    75  H    0.064740
    76  H    0.078505
    77  H    0.064890
    78  H    0.047257
    79  H    0.060546
    80  Mg   0.978657
    81  C   -0.032759
    82  C   -0.099767
    83  C   -0.063522
    84  C   -0.089488
    85  N   -0.322102
    86  C    0.015200
    87  C   -0.082495
    88  C   -0.128357
    89  C    0.030533
    90  C    0.020694
    91  C    0.044937
    92  C   -0.121225
    93  H    0.030844
    94  N   -0.522986
    95  C    0.241891
    96  C   -0.149329
    97  C   -0.081389
    98  C    0.154446
    99  C    0.041991
   100  C    0.076227
   101  O   -0.213802
   102  C   -0.007783
   103  N   -0.359234
   104  C    0.071633
   105  C   -0.108273
   106  C   -0.079783
   107  C    0.063607
   108  C    0.008335
   109  C    0.027453
   110  C   -0.074069
   111  N   -0.443989
   112  C    0.130285
   113  C   -0.214778
   114  C    0.008022
   115  C    0.121521
   116  C    0.094290
   117  C    0.108478
   118  O   -0.190644
   119  C   -0.041968
   120  C    0.275585
   121  O   -0.282003
   122  O   -0.371988
   123  C    0.141501
   124  H   -0.011169
   125  H    0.021602
   126  H   -0.003584
   127  H    0.026713
   128  H    0.025647
   129  H    0.045043
   130  H    0.043209
   131  H    0.033076
   132  H    0.030074
   133  H    0.030164
   134  H    0.065398
   135  H    0.054067
   136  H    0.051035
   137  H    0.023030
   138  H    0.045239
   139  H    0.070790
   140  H    0.046687
   141  H    0.048650
   142  H    0.037808
   143  H    0.037745
   144  H    0.044129
   145  H    0.029696
   146  H    0.036955
   147  H    0.035431
   148  H    0.037515
   149  H    0.038836
   150  H    0.028191
   151  H    0.026735
   152  H    0.030813
   153  H    0.066471
   154  H    0.049552
   155  H    0.057728
   156  H    0.060534
   157  H    0.064231
   158  H    0.067563
 Sum of Mulliken charges =  -0.00000

 Dipole moment (field-independent basis, Debye):
    X=              3.3987    Y=             -2.9003    Z=              1.5067  Tot=              4.7152
 Quadrupole moment (field-independent basis, Debye-Ang):
   XX=           -229.8790   YY=           -486.4077   ZZ=           -490.3450
   XY=             40.4335   XZ=             15.5194   YZ=             20.7004

 Normal termination of Gaussian 16 at Mon Sep 20 05:10:22 2021.
