 Gaussian 16, Revision A.03,
 Gaussian 16:  ES64L-G16RevA.03 25-Dec-2016

 --------------------------------
 #p wB97XD/Def2SVP td=(nstates=5)
 --------------------------------

 --------------------------------
 TDDFT excited states in gaussian
 --------------------------------
 Symbolic Z-matrix:
 Charge =  0 Multiplicity = 1

                         Standard orientation:
 ---------------------------------------------------------------------
 Center     Atomic      Atomic             Coordinates (Angstroms)
 Number     Number       Type             X           Y           Z
 ---------------------------------------------------------------------
      1         12           0       24.659490   -0.485040    0.131668
      2          6           0       23.639356    2.822206    0.678379
      3          6           0       24.462439    0.140649   -3.347653
      4          6           0       25.306344   -3.770226   -0.432795
      5          6           0       24.094416   -1.139817    3.474270
      6          7           0       24.277811    1.310074   -1.110830
      7          6           0       24.055947    2.596129   -0.609995
      8          6           0       24.304344    3.643856   -1.754212
      9          6           0       24.462649    2.753516   -2.992182
     10          6           0       24.347680    1.281132   -2.463675
     11          6           0       23.361758    3.078886   -4.037366
     12          6           0       25.508482    4.498556   -1.377995
     13          6           0       25.575609    5.916782   -1.920506
     14          1           0       24.608624    6.310571   -3.059919
     15          7           0       24.878600   -1.690406   -1.615480
     16          6           0       24.729614   -1.249596   -2.944224
     17          6           0       24.904795   -2.353723   -3.871379
     18          6           0       25.226547   -3.530228   -3.086560
     19          6           0       25.126021   -3.026104   -1.649977
     20          6           0       24.941266   -2.203957   -5.397643
     21          6           0       25.579581   -4.942373   -3.512531
     22          8           0       25.839316   -5.794034   -2.672939
     23          6           0       25.811558   -5.212727   -4.949491
     24          7           0       24.754223   -2.195313    1.401369
     25          6           0       25.131669   -3.417293    0.932639
     26          6           0       25.339360   -4.392250    2.121063
     27          6           0       25.013057   -3.535759    3.405548
     28          6           0       24.696738   -2.156109    2.772334
     29          6           0       24.445880   -5.634766    1.956857
     30          6           0       26.184848   -3.396031    4.413266
     31          6           0       25.956577   -4.348983    5.582493
     32          7           0       23.900242    0.526002    1.798696
     33          6           0       23.648519    0.153681    3.076974
     34          6           0       22.911135    1.265749    3.724536
     35          6           0       22.975072    2.343518    2.890702
     36          6           0       23.551973    1.818071    1.706350
     37          6           0       22.415575    1.161395    5.157109
     38          6           0       22.690658    3.773644    2.712399
     39          8           0       22.147711    4.556677    3.482405
     40          6           0       23.195079    4.112842    1.323054
     41          6           0       22.082332    4.811618    0.660762
     42          8           0       21.047327    4.363960    0.148803
     43          8           0       22.331264    6.165636    0.754155
     44          6           0       21.318680    7.051505    0.222142
     45          1           0       24.470184    0.393703   -4.409683
     46          1           0       25.616886   -4.782612   -0.699554
     47          1           0       23.857166   -1.450592    4.493945
     48          1           0       23.355991    4.182185   -1.734396
     49          1           0       25.383508    3.079475   -3.475683
     50          1           0       22.617464    2.295254   -4.179972
     51          1           0       23.848850    3.031136   -5.010895
     52          1           0       22.820615    3.993294   -3.794988
     53          1           0       26.366347    3.889372   -1.664331
     54          1           0       25.590680    4.529986   -0.292192
     55          1           0       26.601535    6.124693   -2.221376
     56          1           0       25.377714    6.495327   -1.017478
     57          1           0       24.664894   -1.210530   -5.751454
     58          1           0       24.253922   -2.916072   -5.856266
     59          1           0       25.922373   -2.516988   -5.752818
     60          1           0       26.691712   -4.654383   -5.269340
     61          1           0       24.891485   -5.101920   -5.523279
     62          1           0       26.107105   -6.247306   -5.124117
     63          1           0       26.369591   -4.744959    2.078684
     64          1           0       24.097033   -3.969567    3.808689
     65          1           0       23.752642   -5.848455    2.769889
     66          1           0       25.219189   -6.402582    1.966663
     67          1           0       23.784274   -5.607254    1.091505
     68          1           0       26.120056   -2.441759    4.936319
     69          1           0       27.166149   -3.578076    3.974668
     70          1           0       26.922513   -4.838612    5.705365
     71          1           0       25.297664   -5.186768    5.355634
     72          1           0       25.642223   -3.879887    6.515235
     73          1           0       22.430278    0.158148    5.583785
     74          1           0       21.406621    1.552808    5.281239
     75          1           0       23.137056    1.663549    5.802593
     76          1           0       24.070881    4.750896    1.436649
     77          1           0       20.362051    6.752467    0.651321
     78          1           0       21.237269    7.017492   -0.864503
     79          1           0       21.462963    7.986440    0.762537
     80         12           0      -23.794465   -0.782480    0.055124
     81          6           0      -25.129766    2.398284    0.466955
     82          6           0      -21.861023    0.579193   -2.482064
     83          6           0      -22.850813   -3.958893   -0.710488
     84          6           0      -25.936240   -1.964976    2.498564
     85          7           0      -23.572904    1.249726   -0.929898
     86          6           0      -24.197261    2.435798   -0.574897
     87          6           0      -23.832923    3.653520   -1.512065
     88          6           0      -23.021743    2.895546   -2.633287
     89          6           0      -22.822654    1.462640   -2.015232
     90          6           0      -23.578944    2.753654   -4.052758
     91          6           0      -23.069044    4.738452   -0.731012
     92          6           0      -23.812357    6.010305   -0.417907
     93          1           0      -23.003273    7.318273   -0.474206
     94          7           0      -22.400581   -1.600855   -1.243329
     95          6           0      -21.688722   -0.840394   -2.117762
     96          6           0      -20.842516   -1.790554   -2.865776
     97          6           0      -21.165429   -3.096122   -2.464019
     98          6           0      -22.137719   -2.963361   -1.449688
     99          6           0      -19.775753   -1.311205   -3.764457
    100          6           0      -20.663846   -4.416398   -2.971194
    101          8           0      -20.959082   -5.523187   -2.440662
    102          6           0      -19.830149   -4.563805   -4.122578
    103          7           0      -24.242052   -2.634483    0.819717
    104          6           0      -23.712214   -3.803565    0.366877
    105          6           0      -24.218779   -4.997351    1.076046
    106          6           0      -25.171477   -4.375457    2.159300
    107          6           0      -25.157448   -2.946143    1.766005
    108          6           0      -24.901884   -6.194676    0.351952
    109          6           0      -24.792453   -4.709965    3.686023
    110          6           0      -23.746871   -3.892541    4.501322
    111          7           0      -25.269941   -0.028060    1.235847
    112          6           0      -26.029984   -0.610744    2.208756
    113          6           0      -26.740742    0.364582    2.913578
    114          6           0      -26.459381    1.573079    2.167155
    115          6           0      -25.540216    1.271333    1.182130
    116          6           0      -27.593484    0.184549    4.168111
    117          6           0      -26.690499    2.988583    2.204860
    118          8           0      -27.265132    3.738901    2.967202
    119          6           0      -25.990583    3.549968    0.917774
    120          6           0      -27.008395    3.927903   -0.082667
    121          8           0      -27.209203    3.372528   -1.185158
    122          8           0      -27.793582    4.965157    0.281544
    123          6           0      -28.703130    5.600960   -0.731755
    124          1           0      -21.303308    0.999901   -3.320599
    125          1           0      -22.616542   -5.002544   -0.931254
    126          1           0      -26.510342   -2.228255    3.389936
    127          1           0      -24.684459    3.981044   -2.109402
    128          1           0      -22.052250    3.391921   -2.674515
    129          1           0      -23.849750    1.715822   -4.248294
    130          1           0      -22.734606    2.905160   -4.723630
    131          1           0      -24.418863    3.405311   -4.296015
    132          1           0      -22.246023    5.028951   -1.385017
    133          1           0      -22.630856    4.274500    0.152638
    134          1           0      -24.209343    5.914605    0.593052
    135          1           0      -24.701604    6.196361   -1.020335
    136          1           0      -18.852714   -1.684047   -3.322389
    137          1           0      -19.667451   -0.242196   -3.952231
    138          1           0      -19.893945   -1.769137   -4.746478
    139          1           0      -20.267160   -3.909485   -4.876433
    140          1           0      -19.661537   -5.616312   -4.346710
    141          1           0      -18.853574   -4.107171   -3.961478
    142          1           0      -23.284958   -5.341166    1.519913
    143          1           0      -26.189773   -4.719586    1.982204
    144          1           0      -24.310322   -7.107480    0.422831
    145          1           0      -25.011675   -5.999002   -0.715244
    146          1           0      -25.917491   -6.387614    0.697333
    147          1           0      -24.375252   -5.713379    3.598519
    148          1           0      -25.786367   -4.741878    4.132614
    149          1           0      -23.396805   -2.976195    4.026770
    150          1           0      -22.919525   -4.461632    4.926226
    151          1           0      -24.289925   -3.621801    5.405850
    152          1           0      -28.614449    0.538337    4.020928
    153          1           0      -27.168383    0.818873    4.945774
    154          1           0      -27.586703   -0.824876    4.580190
    155          1           0      -25.546373    4.509221    1.184058
    156          1           0      -28.910816    6.509451   -0.166240
    157          1           0      -29.598801    5.029141   -0.972209
    158          1           0      -28.154012    5.780780   -1.656523
 ---------------------------------------------------------------------

 SCF Done:  E(RwB97XD) =  -4070.60843811     A.U. after   19 cycles

 Excitation energies and oscillator strengths:

 Excited State   1:      Singlet-A      1.6257 eV  762.63 nm  f=0.3869  <S**2>=0.000
     309 -> 315       -0.17886
     312 -> 313        0.68465
     309 <- 315       -0.11342
 This state for optimization and/or second-order correction.
 Total Energy, E(TD-HF/TD-DFT) =  -4070.54869313
 Copying the excited state density for this state as the 1-particle RhoCI density.

 Excited State   2:      Singlet-A      1.6445 eV  753.93 nm  f=0.3913  <S**2>=0.000
     310 -> 316       -0.18304
     311 -> 314        0.68257
     310 <- 316       -0.11718

 Excited State   3:      Singlet-A      2.1420 eV  578.83 nm  f=0.1157  <S**2>=0.000
     309 -> 313        0.64308
     312 -> 315        0.27658

 Excited State   4:      Singlet-A      2.1515 eV  576.26 nm  f=0.1397  <S**2>=0.000
     310 -> 314        0.64864
     311 -> 316        0.26446

 Excited State   5:      Singlet-A      3.3481 eV  370.31 nm  f=0.0040  <S**2>=0.000
     306 -> 314       -0.19103
     308 -> 314        0.65678

 The electronic state is 1-A.
 Alpha  occ. eigenvalues --  -46.95465 -46.93861 -19.29686 -19.29246 -19.24741
 Alpha  occ. eigenvalues --  -19.24325 -19.24294 -19.23254 -19.23178 -19.22981
 Alpha  occ. eigenvalues --  -14.46801 -14.46593 -14.46430 -14.46344 -14.44771
 Alpha  occ. eigenvalues --  -14.44133 -14.43759 -14.42934 -10.43216 -10.42341
 Alpha  occ. eigenvalues --  -10.39495 -10.39394 -10.38451 -10.38167 -10.36092
 Alpha  occ. eigenvalues --  -10.35735 -10.35324 -10.35285 -10.35125 -10.34984
 Alpha  occ. eigenvalues --  -10.34777 -10.34696 -10.34673 -10.34651 -10.34469
 Alpha  occ. eigenvalues --  -10.34115 -10.34065 -10.34053 -10.33792 -10.33305
 Alpha  occ. eigenvalues --  -10.33017 -10.32859 -10.32548 -10.32519 -10.32493
 Alpha  occ. eigenvalues --  -10.32429 -10.32302 -10.32257 -10.32252 -10.32201
 Alpha  occ. eigenvalues --  -10.31865 -10.31846 -10.31839 -10.31822 -10.31772
 Alpha  occ. eigenvalues --  -10.31691 -10.31652 -10.31621 -10.31608 -10.31453
 Alpha  occ. eigenvalues --  -10.31402 -10.31335 -10.31309 -10.31105 -10.31071
 Alpha  occ. eigenvalues --  -10.30817 -10.30796 -10.30780 -10.30757 -10.30728
 Alpha  occ. eigenvalues --  -10.30535 -10.30409 -10.30343 -10.30217 -10.30177
 Alpha  occ. eigenvalues --  -10.29939 -10.29833 -10.29764 -10.29515 -10.29495
 Alpha  occ. eigenvalues --  -10.29413 -10.29335 -10.29136 -10.28814 -10.28765
 Alpha  occ. eigenvalues --  -10.28637  -3.21316  -3.19988  -1.94916  -1.94395
 Alpha  occ. eigenvalues --   -1.94316  -1.93594  -1.93122  -1.92967  -1.17959
 Alpha  occ. eigenvalues --   -1.17270  -1.12730  -1.12220  -1.11742  -1.10130
 Alpha  occ. eigenvalues --   -1.09055  -1.07240  -1.06863  -1.06310  -1.06098
 Alpha  occ. eigenvalues --   -1.05232  -1.04806  -1.04653  -1.04264  -1.03711
 Alpha  occ. eigenvalues --   -0.95336  -0.95051  -0.91129  -0.90867  -0.90640
 Alpha  occ. eigenvalues --   -0.90315  -0.90185  -0.89919  -0.89518  -0.89050
 Alpha  occ. eigenvalues --   -0.88911  -0.88812  -0.88027  -0.87527  -0.86264
 Alpha  occ. eigenvalues --   -0.86261  -0.85763  -0.85544  -0.84712  -0.84633
 Alpha  occ. eigenvalues --   -0.84348  -0.84324  -0.82907  -0.82848  -0.82477
 Alpha  occ. eigenvalues --   -0.82003  -0.80504  -0.80110  -0.79404  -0.79199
 Alpha  occ. eigenvalues --   -0.78756  -0.78719  -0.78113  -0.77865  -0.77213
 Alpha  occ. eigenvalues --   -0.76497  -0.75071  -0.74522  -0.73296  -0.72999
 Alpha  occ. eigenvalues --   -0.72004  -0.71050  -0.70704  -0.70411  -0.69947
 Alpha  occ. eigenvalues --   -0.69882  -0.69094  -0.69085  -0.67336  -0.67115
 Alpha  occ. eigenvalues --   -0.67000  -0.66842  -0.66660  -0.66605  -0.66349
 Alpha  occ. eigenvalues --   -0.65897  -0.64118  -0.63456  -0.62166  -0.61937
 Alpha  occ. eigenvalues --   -0.61612  -0.61588  -0.61125  -0.61068  -0.60760
 Alpha  occ. eigenvalues --   -0.60569  -0.60349  -0.59705  -0.59657  -0.59271
 Alpha  occ. eigenvalues --   -0.58132  -0.57862  -0.57726  -0.57538  -0.57031
 Alpha  occ. eigenvalues --   -0.56854  -0.56731  -0.56325  -0.55752  -0.55575
 Alpha  occ. eigenvalues --   -0.55502  -0.55329  -0.55252  -0.55170  -0.54866
 Alpha  occ. eigenvalues --   -0.54821  -0.54766  -0.54433  -0.54359  -0.53943
 Alpha  occ. eigenvalues --   -0.53822  -0.53789  -0.53673  -0.53327  -0.52985
 Alpha  occ. eigenvalues --   -0.52775  -0.52707  -0.52335  -0.52274  -0.52072
 Alpha  occ. eigenvalues --   -0.51844  -0.51696  -0.51566  -0.51549  -0.51348
 Alpha  occ. eigenvalues --   -0.51232  -0.51205  -0.50968  -0.50890  -0.50697
 Alpha  occ. eigenvalues --   -0.50573  -0.50340  -0.50084  -0.50074  -0.49814
 Alpha  occ. eigenvalues --   -0.49801  -0.49686  -0.49357  -0.49154  -0.49119
 Alpha  occ. eigenvalues --   -0.48676  -0.48654  -0.48441  -0.48316  -0.48142
 Alpha  occ. eigenvalues --   -0.47968  -0.47901  -0.47836  -0.47590  -0.47286
 Alpha  occ. eigenvalues --   -0.47176  -0.47164  -0.47069  -0.46912  -0.46710
 Alpha  occ. eigenvalues --   -0.46682  -0.46393  -0.46324  -0.46156  -0.46143
 Alpha  occ. eigenvalues --   -0.45879  -0.45801  -0.45680  -0.45538  -0.45368
 Alpha  occ. eigenvalues --   -0.45331  -0.45152  -0.44986  -0.44819  -0.44812
 Alpha  occ. eigenvalues --   -0.44671  -0.44629  -0.44376  -0.44261  -0.43761
 Alpha  occ. eigenvalues --   -0.43502  -0.43440  -0.43392  -0.43204  -0.43014
 Alpha  occ. eigenvalues --   -0.43009  -0.42670  -0.42321  -0.42216  -0.41990
 Alpha  occ. eigenvalues --   -0.41879  -0.41573  -0.40832  -0.40808  -0.40357
 Alpha  occ. eigenvalues --   -0.40115  -0.39922  -0.39897  -0.39790  -0.39686
 Alpha  occ. eigenvalues --   -0.38829  -0.38623  -0.38521  -0.38370  -0.38317
 Alpha  occ. eigenvalues --   -0.37775  -0.37590  -0.36313  -0.36286  -0.36064
 Alpha  occ. eigenvalues --   -0.35430  -0.34886  -0.34740  -0.33568  -0.33521
 Alpha  occ. eigenvalues --   -0.33399  -0.33196  -0.32528  -0.32470  -0.32184
 Alpha  occ. eigenvalues --   -0.32139  -0.31909  -0.31469  -0.25739  -0.25535
 Alpha  occ. eigenvalues --   -0.22898  -0.22751
 Alpha virt. eigenvalues --   -0.07029  -0.07027   0.00449   0.00629   0.02220
 Alpha virt. eigenvalues --    0.02770   0.03977   0.04479   0.05519   0.06651
 Alpha virt. eigenvalues --    0.07374   0.07510   0.07774   0.08105   0.08202

 Mulliken charges:
               1
     1  Mg   0.955568
     2  C   -0.016290
     3  C   -0.071933
     4  C   -0.061446
     5  C   -0.075415
     6  N   -0.370245
     7  C   -0.076449
     8  C   -0.019277
     9  C   -0.128265
    10  C    0.112532
    11  C    0.004225
    12  C    0.005710
    13  C   -0.087417
    14  H    0.044118
    15  N   -0.442653
    16  C    0.155527
    17  C   -0.170687
    18  C   -0.084853
    19  C    0.094750
    20  C    0.080177
    21  C    0.059037
    22  O   -0.231343
    23  C   -0.015786
    24  N   -0.372741
    25  C    0.091359
    26  C   -0.107466
    27  C   -0.062940
    28  C    0.055623
    29  C    0.009030
    30  C    0.009695
    31  C   -0.064276
    32  N   -0.405458
    33  C    0.114566
    34  C   -0.207794
    35  C   -0.016145
    36  C    0.137523
    37  C    0.069673
    38  C    0.119894
    39  O   -0.196963
    40  C   -0.032940
    41  C    0.261365
    42  O   -0.260827
    43  O   -0.368891
    44  C    0.150863
    45  H   -0.002621
    46  H    0.022738
    47  H   -0.005025
    48  H    0.035157
    49  H    0.041306
    50  H    0.033177
    51  H    0.028442
    52  H    0.050181
    53  H    0.018850
    54  H    0.026423
    55  H    0.050774
    56  H    0.056870
    57  H    0.044913
    58  H    0.041644
    59  H    0.050603
    60  H    0.068937
    61  H    0.058676
    62  H    0.044890
    63  H    0.042188
    64  H    0.041177
    65  H    0.028408
    66  H    0.042404
    67  H    0.055131
    68  H    0.035736
    69  H    0.040904
    70  H    0.024686
    71  H    0.026465
    72  H    0.047225
    73  H    0.017831
    74  H    0.060216
    75  H    0.049690
    76  H    0.082130
    77  H    0.044807
    78  H    0.059114
    79  H    0.053215
    80  Mg   0.984102
    81  C   -0.026326
    82  C   -0.064996
    83  C   -0.072318
    84  C   -0.099263
    85  N   -0.335623
    86  C   -0.019348
    87  C   -0.045927
    88  C   -0.130722
    89  C    0.025566
    90  C    0.037445
    91  C    0.055279
    92  C   -0.144166
    93  H    0.038428
    94  N   -0.481618
    95  C    0.183449
    96  C   -0.191549
    97  C   -0.022564
    98  C    0.131528
    99  C    0.056726
   100  C    0.038482
   101  O   -0.281134
   102  C    0.024557
   103  N   -0.375325
   104  C    0.076475
   105  C   -0.094229
   106  C   -0.055053
   107  C    0.063523
   108  C    0.027622
   109  C   -0.032321
   110  C   -0.043691
   111  N   -0.452832
   112  C    0.130680
   113  C   -0.169508
   114  C   -0.056357
   115  C    0.215884
   116  C    0.092232
   117  C    0.091569
   118  O   -0.190094
   119  C   -0.123799
   120  C    0.263124
   121  O   -0.290788
   122  O   -0.356953
   123  C    0.146691
   124  H   -0.009008
   125  H    0.021554
   126  H   -0.013531
   127  H    0.038400
   128  H    0.026788
   129  H    0.047586
   130  H    0.032131
   131  H    0.052266
   132  H    0.035808
   133  H    0.047038
   134  H    0.065150
   135  H    0.052646
   136  H    0.057334
   137  H    0.043344
   138  H    0.035691
   139  H    0.042639
   140  H    0.066625
   141  H    0.043767
   142  H    0.047314
   143  H    0.036175
   144  H    0.044662
   145  H    0.039199
   146  H    0.036218
   147  H    0.035238
   148  H    0.040149
   149  H    0.056367
   150  H    0.040433
   151  H    0.028970
   152  H    0.060698
   153  H    0.053784
   154  H    0.024488
   155  H    0.056524
   156  H    0.066031
   157  H    0.067001
   158  H    0.053664
 Sum of Mulliken charges =  -0.00000

 Dipole moment (field-independent basis, Debye):
    X=              6.2097    Y=             -0.7737    Z=             -4.9539  Tot=              7.9812
 Quadrupole moment (field-independent basis, Debye-Ang):
   XX=           -431.9087   YY=           -513.0170   ZZ=           -470.1036
   XY=              7.9740   XZ=            -34.8753   YZ=            -47.7883

 Normal termination of Gaussian 16 at Sun Sep 19 22:13:30 2021.
