 Gaussian 16, Revision A.03,
 Gaussian 16:  ES64L-G16RevA.03 25-Dec-2016

 --------------------------------
 #p wB97XD/Def2SVP td=(nstates=5)
 --------------------------------

 --------------------------------
 TDDFT excited states in gaussian
 --------------------------------
 Symbolic Z-matrix:
 Charge =  0 Multiplicity = 1

                         Standard orientation:
 ---------------------------------------------------------------------
 Center     Atomic      Atomic             Coordinates (Angstroms)
 Number     Number       Type             X           Y           Z
 ---------------------------------------------------------------------
      1         12           0      -14.108955    0.631211    0.152660
      2          6           0      -12.784737   -2.115323   -1.584599
      3          6           0      -16.309122   -1.328564    1.714729
      4          6           0      -15.249575    3.293033    1.597413
      5          6           0      -12.429849    2.674267   -2.316186
      6          7           0      -14.530287   -1.472733   -0.042747
      7          6           0      -13.810132   -2.430361   -0.640356
      8          6           0      -14.425967   -3.793941   -0.460830
      9          6           0      -15.791710   -3.456699    0.261511
     10          6           0      -15.541848   -2.022893    0.687378
     11          6           0      -17.121727   -3.628914   -0.541577
     12          6           0      -13.508130   -4.706750    0.502386
     13          6           0      -13.249220   -6.141976   -0.062274
     14          1           0      -12.083972   -6.909124    0.768429
     15          7           0      -15.364240    0.898254    1.612843
     16          6           0      -16.188898   -0.049252    2.195022
     17          6           0      -16.775934    0.521971    3.375765
     18          6           0      -16.471197    1.943220    3.437504
     19          6           0      -15.555750    2.114087    2.244981
     20          6           0      -17.727125   -0.353632    4.241151
     21          6           0      -16.823382    3.097332    4.369119
     22          8           0      -16.382295    4.259054    4.305051
     23          6           0      -17.700505    2.675241    5.494204
     24          7           0      -13.954373    2.642629   -0.449406
     25          6           0      -14.570441    3.533650    0.394266
     26          6           0      -14.462881    4.960783   -0.144155
     27          6           0      -13.323146    4.808054   -1.185346
     28          6           0      -13.253527    3.294024   -1.394081
     29          6           0      -15.878740    5.460849   -0.636522
     30          6           0      -11.917367    5.422126   -0.776360
     31          6           0      -10.968629    5.803687   -1.923926
     32          7           0      -12.823589    0.385993   -1.584564
     33          6           0      -12.258695    1.294472   -2.427513
     34          6           0      -11.364169    0.652673   -3.364644
     35          6           0      -11.506995   -0.697278   -2.994976
     36          6           0      -12.444498   -0.821309   -1.959643
     37          6           0      -10.463440    1.213556   -4.489050
     38          6           0      -11.026949   -2.015552   -3.302679
     39          8           0      -10.123691   -2.429651   -3.981086
     40          6           0      -11.994979   -3.014880   -2.480542
     41          6           0      -11.016511   -3.971493   -1.956551
     42          8           0      -10.286513   -3.879323   -0.937406
     43          8           0      -11.041418   -5.000720   -2.820800
     44          6           0      -10.129117   -6.121635   -2.589911
     45          1           0      -16.969836   -1.974569    2.296864
     46          1           0      -15.571529    4.191922    2.127691
     47          1           0      -11.872157    3.344088   -2.974041
     48          1           0      -14.558588   -4.368034   -1.378272
     49          1           0      -15.979030   -3.979364    1.199696
     50          1           0      -17.525243   -2.634089   -0.730176
     51          1           0      -17.784101   -4.180386    0.125457
     52          1           0      -17.085932   -4.120603   -1.513088
     53          1           0      -13.845225   -4.796947    1.535695
     54          1           0      -12.588606   -4.144108    0.664049
     55          1           0      -12.945515   -6.092562   -1.107739
     56          1           0      -14.088850   -6.831714    0.020219
     57          1           0      -17.124136   -0.855455    4.996654
     58          1           0      -18.097266   -1.240139    3.724709
     59          1           0      -18.664669    0.100034    4.561703
     60          1           0      -17.266031    1.922834    6.151446
     61          1           0      -18.594988    2.339792    4.967930
     62          1           0      -18.030022    3.500281    6.126365
     63          1           0      -14.164026    5.566353    0.711558
     64          1           0      -13.600153    5.333964   -2.098967
     65          1           0      -15.908706    5.494313   -1.725523
     66          1           0      -16.219569    6.449936   -0.331608
     67          1           0      -16.727586    4.807927   -0.432338
     68          1           0      -11.421306    4.578727   -0.295281
     69          1           0      -11.917211    6.277846   -0.100853
     70          1           0      -10.072422    5.182121   -1.939930
     71          1           0      -10.597459    6.826671   -1.989157
     72          1           0      -11.494242    5.521331   -2.835046
     73          1           0      -10.915810    2.160562   -4.783407
     74          1           0      -10.414155    0.524666   -5.333357
     75          1           0       -9.488431    1.394481   -4.036708
     76          1           0      -12.647846   -3.544161   -3.174832
     77          1           0      -10.717499   -6.988935   -2.290928
     78          1           0       -9.309799   -5.856352   -1.922595
     79          1           0       -9.699924   -6.412192   -3.548721
     80         12           0       14.064914    0.613947   -0.038951
     81          6           0       11.849864   -2.045325    0.627412
     82          6           0       16.623784   -1.702952    0.130717
     83          6           0       16.338430    3.107221   -0.557895
     84          6           0       11.526382    2.801373    0.161782
     85          7           0       14.213600   -1.654804    0.306761
     86          6           0       13.175627   -2.571512    0.422776
     87          6           0       13.703703   -3.986894    0.301963
     88          6           0       15.252998   -3.821316    0.510331
     89          6           0       15.362101   -2.329459    0.288535
     90          6           0       15.820713   -4.353707    1.884200
     91          6           0       13.428055   -4.621005   -1.069561
     92          6           0       13.102781   -6.118378   -1.048587
     93          1           0       14.235567   -7.117865   -0.684044
     94          7           0       16.163647    0.691079   -0.281875
     95          6           0       16.972967   -0.381830   -0.125794
     96          6           0       18.328510    0.054830   -0.213710
     97          6           0       18.342377    1.449342   -0.563254
     98          6           0       16.940745    1.803182   -0.424326
     99          6           0       19.485990   -0.884463   -0.017359
    100          6           0       19.489989    2.419603   -0.843967
    101          8           0       19.285056    3.566911   -1.298099
    102          6           0       20.942320    2.089385   -0.518763
    103          7           0       13.934696    2.625105   -0.265451
    104          6           0       15.007893    3.500242   -0.403241
    105          6           0       14.494378    4.903497   -0.402424
    106          6           0       12.931430    4.886882   -0.243748
    107          6           0       12.736915    3.364825   -0.150493
    108          6           0       15.252490    5.873922    0.552589
    109          6           0       12.136085    5.505897   -1.413534
    110          6           0       11.728073    6.972050   -1.171920
    111          7           0       12.130681    0.487522    0.353105
    112          6           0       11.128688    1.456915    0.350712
    113          6           0        9.753942    0.872912    0.571610
    114          6           0       10.062828   -0.489893    0.711213
    115          6           0       11.468800   -0.684555    0.522032
    116          6           0        8.439193    1.629797    0.620137
    117          6           0        9.426321   -1.776081    0.951937
    118          8           0        8.250296   -2.066570    1.174719
    119          6           0       10.587798   -2.844261    0.777676
    120          6           0       10.524830   -3.720373    2.044265
    121          8           0       10.322312   -3.336524    3.177767
    122          8           0       10.571138   -5.059094    1.659928
    123          6           0       10.510794   -5.981281    2.794113
    124          1           0       17.398781   -2.471769    0.111403
    125          1           0       16.973451    3.978061   -0.732213
    126          1           0       10.784164    3.583294    0.333463
    127          1           0       13.340107   -4.673963    1.065658
    128          1           0       15.869056   -4.350292   -0.216876
    129          1           0       15.106125   -4.883705    2.514593
    130          1           0       16.219458   -3.606265    2.569665
    131          1           0       16.604289   -5.092651    1.716568
    132          1           0       14.269881   -4.481248   -1.747329
    133          1           0       12.549689   -4.170980   -1.532649
    134          1           0       12.642469   -6.447701   -1.980021
    135          1           0       12.298463   -6.337935   -0.346778
    136          1           0       19.209512   -1.384127    0.911199
    137          1           0       20.470177   -0.448483    0.153493
    138          1           0       19.595981   -1.643347   -0.791682
    139          1           0       21.037671    1.722573    0.503358
    140          1           0       21.430681    3.051585   -0.672267
    141          1           0       21.323566    1.306522   -1.174401
    142          1           0       14.815881    5.350929   -1.343416
    143          1           0       12.555785    5.306175    0.690516
    144          1           0       15.995052    5.289588    1.096400
    145          1           0       14.543152    6.284803    1.270504
    146          1           0       15.715205    6.596043   -0.120951
    147          1           0       11.317937    4.823982   -1.644261
    148          1           0       12.762903    5.602536   -2.300291
    149          1           0       12.404482    7.428661   -0.449103
    150          1           0       10.750885    7.138888   -0.718362
    151          1           0       11.847822    7.512000   -2.111651
    152          1           0        8.207758    1.936902   -0.399929
    153          1           0        8.440694    2.539355    1.220479
    154          1           0        7.702909    0.914956    0.987201
    155          1           0       10.510860   -3.486564   -0.099407
    156          1           0       11.479054   -6.250137    3.217431
    157          1           0        9.988672   -6.849568    2.392400
    158          1           0        9.974771   -5.682241    3.694850
 ---------------------------------------------------------------------

 SCF Done:  E(RwB97XD) =  -4070.63046119     A.U. after   17 cycles

 Excitation energies and oscillator strengths:

 Excited State   1:      Singlet-A      1.6471 eV  752.72 nm  f=0.4219  <S**2>=0.000
     310 -> 316       -0.19116
     312 -> 313        0.67914
     310 <- 316       -0.11822
 This state for optimization and/or second-order correction.
 Total Energy, E(TD-HF/TD-DFT) =  -4070.56992973
 Copying the excited state density for this state as the 1-particle RhoCI density.

 Excited State   2:      Singlet-A      1.6708 eV  742.05 nm  f=0.3352  <S**2>=0.000
     309 -> 315        0.20239
     311 -> 314        0.67647
     309 <- 315        0.11962

 Excited State   3:      Singlet-A      2.1798 eV  568.78 nm  f=0.0929  <S**2>=0.000
     310 -> 313        0.63398
     312 -> 316        0.30020

 Excited State   4:      Singlet-A      2.1930 eV  565.37 nm  f=0.0636  <S**2>=0.000
     309 -> 314        0.61574
     311 -> 315       -0.33603

 Excited State   5:      Singlet-A      3.4182 eV  362.72 nm  f=0.3811  <S**2>=0.000
     306 -> 314        0.12986
     308 -> 314        0.34187
     309 -> 314        0.25430
     311 -> 315        0.52509

 The electronic state is 1-A.
 Alpha  occ. eigenvalues --  -46.93917 -46.93855 -19.30894 -19.30000 -19.25249
 Alpha  occ. eigenvalues --  -19.24670 -19.24200 -19.24045 -19.23994 -19.23319
 Alpha  occ. eigenvalues --  -14.47210 -14.47117 -14.46249 -14.45804 -14.44411
 Alpha  occ. eigenvalues --  -14.44026 -14.44025 -14.42926 -10.43450 -10.42341
 Alpha  occ. eigenvalues --  -10.39927 -10.39793 -10.39007 -10.38587 -10.35690
 Alpha  occ. eigenvalues --  -10.35377 -10.35136 -10.35131 -10.34823 -10.34757
 Alpha  occ. eigenvalues --  -10.34755 -10.34718 -10.34655 -10.34602 -10.34242
 Alpha  occ. eigenvalues --  -10.34206 -10.34190 -10.34184 -10.34083 -10.33576
 Alpha  occ. eigenvalues --  -10.33386 -10.33157 -10.33115 -10.33004 -10.32844
 Alpha  occ. eigenvalues --  -10.32809 -10.32758 -10.32724 -10.32625 -10.32623
 Alpha  occ. eigenvalues --  -10.32502 -10.32360 -10.32350 -10.31923 -10.31825
 Alpha  occ. eigenvalues --  -10.31815 -10.31726 -10.31712 -10.31693 -10.31615
 Alpha  occ. eigenvalues --  -10.31613 -10.31590 -10.31261 -10.31227 -10.31155
 Alpha  occ. eigenvalues --  -10.31089 -10.30954 -10.30692 -10.30448 -10.30407
 Alpha  occ. eigenvalues --  -10.30295 -10.30288 -10.30256 -10.30196 -10.30185
 Alpha  occ. eigenvalues --  -10.30154 -10.29960 -10.29899 -10.29875 -10.29801
 Alpha  occ. eigenvalues --  -10.29671 -10.29639 -10.29459 -10.29301 -10.29121
 Alpha  occ. eigenvalues --  -10.28410  -3.20110  -3.20097  -1.93704  -1.93680
 Alpha  occ. eigenvalues --   -1.93242  -1.93215  -1.93127  -1.93087  -1.18372
 Alpha  occ. eigenvalues --   -1.18034  -1.12929  -1.11567  -1.11357  -1.11098
 Alpha  occ. eigenvalues --   -1.10289  -1.07636  -1.07131  -1.06648  -1.06245
 Alpha  occ. eigenvalues --   -1.05668  -1.05546  -1.04998  -1.04402  -1.03373
 Alpha  occ. eigenvalues --   -0.94621  -0.94460  -0.91219  -0.90991  -0.90843
 Alpha  occ. eigenvalues --   -0.90138  -0.90056  -0.89831  -0.89325  -0.89308
 Alpha  occ. eigenvalues --   -0.88915  -0.88866  -0.88145  -0.88004  -0.86383
 Alpha  occ. eigenvalues --   -0.86249  -0.85663  -0.85361  -0.84327  -0.84139
 Alpha  occ. eigenvalues --   -0.84099  -0.83601  -0.83161  -0.82839  -0.82175
 Alpha  occ. eigenvalues --   -0.81968  -0.80357  -0.80120  -0.79309  -0.79170
 Alpha  occ. eigenvalues --   -0.79120  -0.78758  -0.78009  -0.77778  -0.77255
 Alpha  occ. eigenvalues --   -0.76928  -0.74706  -0.74595  -0.74047  -0.73558
 Alpha  occ. eigenvalues --   -0.71277  -0.71157  -0.70663  -0.70649  -0.70083
 Alpha  occ. eigenvalues --   -0.69779  -0.69254  -0.69131  -0.67920  -0.67645
 Alpha  occ. eigenvalues --   -0.67398  -0.67371  -0.66812  -0.66413  -0.66368
 Alpha  occ. eigenvalues --   -0.66083  -0.64472  -0.63678  -0.62287  -0.62197
 Alpha  occ. eigenvalues --   -0.62077  -0.61725  -0.61077  -0.60861  -0.60550
 Alpha  occ. eigenvalues --   -0.60401  -0.59921  -0.59619  -0.59420  -0.59033
 Alpha  occ. eigenvalues --   -0.58255  -0.57962  -0.57774  -0.57385  -0.57374
 Alpha  occ. eigenvalues --   -0.57005  -0.56452  -0.56213  -0.55774  -0.55679
 Alpha  occ. eigenvalues --   -0.55352  -0.55312  -0.55110  -0.55015  -0.54748
 Alpha  occ. eigenvalues --   -0.54685  -0.54436  -0.54423  -0.54080  -0.54045
 Alpha  occ. eigenvalues --   -0.53702  -0.53623  -0.53458  -0.53271  -0.53084
 Alpha  occ. eigenvalues --   -0.52906  -0.52616  -0.52313  -0.52240  -0.52130
 Alpha  occ. eigenvalues --   -0.52059  -0.51923  -0.51883  -0.51651  -0.51286
 Alpha  occ. eigenvalues --   -0.51191  -0.50949  -0.50938  -0.50773  -0.50765
 Alpha  occ. eigenvalues --   -0.50328  -0.50327  -0.50117  -0.50018  -0.49930
 Alpha  occ. eigenvalues --   -0.49864  -0.49508  -0.49252  -0.49250  -0.49120
 Alpha  occ. eigenvalues --   -0.48742  -0.48701  -0.48517  -0.48370  -0.48347
 Alpha  occ. eigenvalues --   -0.48191  -0.48134  -0.47776  -0.47756  -0.47582
 Alpha  occ. eigenvalues --   -0.47386  -0.47373  -0.46998  -0.46779  -0.46762
 Alpha  occ. eigenvalues --   -0.46512  -0.46387  -0.46223  -0.46184  -0.45894
 Alpha  occ. eigenvalues --   -0.45620  -0.45442  -0.45432  -0.45349  -0.45299
 Alpha  occ. eigenvalues --   -0.45059  -0.44944  -0.44883  -0.44745  -0.44712
 Alpha  occ. eigenvalues --   -0.44557  -0.44523  -0.44221  -0.44090  -0.43959
 Alpha  occ. eigenvalues --   -0.43805  -0.43786  -0.43661  -0.43449  -0.43190
 Alpha  occ. eigenvalues --   -0.43072  -0.43039  -0.42902  -0.42641  -0.42397
 Alpha  occ. eigenvalues --   -0.42328  -0.42135  -0.42087  -0.41530  -0.41434
 Alpha  occ. eigenvalues --   -0.40658  -0.40530  -0.40163  -0.39787  -0.39701
 Alpha  occ. eigenvalues --   -0.39395  -0.39215  -0.38879  -0.38770  -0.38643
 Alpha  occ. eigenvalues --   -0.37431  -0.37147  -0.37078  -0.36873  -0.36084
 Alpha  occ. eigenvalues --   -0.35904  -0.35021  -0.34878  -0.33657  -0.33438
 Alpha  occ. eigenvalues --   -0.33436  -0.33083  -0.32854  -0.32602  -0.32548
 Alpha  occ. eigenvalues --   -0.32391  -0.32132  -0.31703  -0.26050  -0.25799
 Alpha  occ. eigenvalues --   -0.22864  -0.22813
 Alpha virt. eigenvalues --   -0.06843  -0.06719  -0.00328   0.00211   0.01818
 Alpha virt. eigenvalues --    0.02118   0.03925   0.04631   0.06293   0.06854
 Alpha virt. eigenvalues --    0.07195   0.07446   0.07495   0.07669   0.08323

 Mulliken charges:
               1
     1  Mg   0.994460
     2  C    0.048647
     3  C   -0.082941
     4  C   -0.068904
     5  C   -0.108853
     6  N   -0.341575
     7  C    0.046135
     8  C   -0.121783
     9  C   -0.075709
    10  C    0.029346
    11  C    0.026893
    12  C    0.023861
    13  C   -0.140427
    14  H    0.018909
    15  N   -0.559140
    16  C    0.189761
    17  C   -0.126464
    18  C   -0.130637
    19  C    0.181299
    20  C    0.043797
    21  C    0.089222
    22  O   -0.240752
    23  C   -0.020815
    24  N   -0.364241
    25  C    0.073235
    26  C   -0.083677
    27  C   -0.059609
    28  C    0.063382
    29  C    0.017271
    30  C   -0.011458
    31  C   -0.064740
    32  N   -0.360479
    33  C    0.130649
    34  C   -0.202686
    35  C   -0.017896
    36  C    0.092324
    37  C    0.097865
    38  C    0.101780
    39  O   -0.184921
    40  C   -0.133333
    41  C    0.263491
    42  O   -0.284803
    43  O   -0.350185
    44  C    0.138251
    45  H   -0.014526
    46  H    0.026542
    47  H   -0.019336
    48  H    0.037134
    49  H    0.028885
    50  H    0.042141
    51  H    0.037510
    52  H    0.042927
    53  H    0.031571
    54  H    0.058320
    55  H    0.053274
    56  H    0.056485
    57  H    0.054109
    58  H    0.028093
    59  H    0.054034
    60  H    0.074613
    61  H    0.050151
    62  H    0.047400
    63  H    0.043271
    64  H    0.027244
    65  H    0.021104
    66  H    0.043894
    67  H    0.040973
    68  H    0.036552
    69  H    0.043268
    70  H    0.035350
    71  H    0.044560
    72  H    0.027432
    73  H    0.034102
    74  H    0.066234
    75  H    0.064650
    76  H    0.073385
    77  H    0.048440
    78  H    0.076238
    79  H    0.049424
    80  Mg   1.001729
    81  C   -0.064755
    82  C   -0.110764
    83  C   -0.083484
    84  C   -0.100651
    85  N   -0.307768
    86  C    0.022496
    87  C   -0.031773
    88  C   -0.097701
    89  C    0.019068
    90  C    0.007974
    91  C    0.023164
    92  C   -0.123353
    93  H    0.016844
    94  N   -0.427970
    95  C    0.223963
    96  C   -0.180514
    97  C   -0.042783
    98  C    0.127341
    99  C    0.061747
   100  C    0.049165
   101  O   -0.257650
   102  C   -0.023818
   103  N   -0.456805
   104  C    0.108872
   105  C   -0.100341
   106  C   -0.055403
   107  C    0.059395
   108  C    0.015957
   109  C    0.000261
   110  C   -0.055597
   111  N   -0.483472
   112  C    0.140197
   113  C   -0.167110
   114  C   -0.071660
   115  C    0.182706
   116  C    0.080942
   117  C    0.161436
   118  O   -0.208116
   119  C   -0.105854
   120  C    0.266261
   121  O   -0.223742
   122  O   -0.369620
   123  C    0.126327
   124  H   -0.009151
   125  H    0.016250
   126  H   -0.010399
   127  H    0.030658
   128  H    0.039859
   129  H    0.034295
   130  H    0.041805
   131  H    0.034182
   132  H    0.040630
   133  H    0.037010
   134  H    0.048595
   135  H    0.050406
   136  H    0.046126
   137  H    0.026753
   138  H    0.058645
   139  H    0.061358
   140  H    0.063641
   141  H    0.063604
   142  H    0.042709
   143  H    0.042922
   144  H    0.043635
   145  H    0.034071
   146  H    0.043494
   147  H    0.037136
   148  H    0.027986
   149  H    0.024492
   150  H    0.041232
   151  H    0.040853
   152  H    0.050683
   153  H    0.047758
   154  H    0.066436
   155  H    0.072997
   156  H    0.043076
   157  H    0.055783
   158  H    0.065328
 Sum of Mulliken charges =  -0.00000

 Dipole moment (field-independent basis, Debye):
    X=             -0.9140    Y=             -2.1441    Z=             -0.1816  Tot=              2.3379
 Quadrupole moment (field-independent basis, Debye-Ang):
   XX=           -285.3061   YY=           -464.6403   ZZ=           -517.1469
   XY=            -15.5387   XZ=             -7.1014   YZ=            -14.9935

 Normal termination of Gaussian 16 at Sun Sep 19 15:00:32 2021.
