 Gaussian 16, Revision A.03,
 Gaussian 16:  ES64L-G16RevA.03 25-Dec-2016

 --------------------------------
 #p wB97XD/Def2SVP td=(nstates=5)
 --------------------------------

 --------------------------------
 TDDFT excited states in gaussian
 --------------------------------
 Symbolic Z-matrix:
 Charge =  0 Multiplicity = 1

                         Standard orientation:
 ---------------------------------------------------------------------
 Center     Atomic      Atomic             Coordinates (Angstroms)
 Number     Number       Type             X           Y           Z
 ---------------------------------------------------------------------
      1         12           0       -0.765674   -0.071719    0.363932
      2          6           0        2.704964    0.330817   -0.190180
      3          6           0       -0.306657   -3.301450    0.001540
      4          6           0       -4.026710   -0.224523   -0.159824
      5          6           0       -0.981285    3.456700    0.000417
      6          7           0        1.123635   -1.296984    0.117533
      7          6           0        2.362764   -0.983492    0.005403
      8          6           0        3.260123   -2.231152    0.138002
      9          6           0        2.271893   -3.433699   -0.284861
     10          6           0        0.914004   -2.631535   -0.124082
     11          6           0        2.468481   -4.034391   -1.732863
     12          6           0        3.733873   -2.436315    1.670436
     13          6           0        5.130089   -3.061195    1.991743
     14          1           0        5.700571   -4.070912    0.928787
     15          7           0       -2.031709   -1.580607    0.181329
     16          6           0       -1.612281   -2.900515    0.110114
     17          6           0       -2.831141   -3.776789   -0.002916
     18          6           0       -3.944294   -2.836227   -0.012891
     19          6           0       -3.440650   -1.460094   -0.006150
     20          6           0       -2.708004   -5.283675   -0.127598
     21          6           0       -5.419183   -3.172662   -0.029073
     22          8           0       -6.331586   -2.336181   -0.080265
     23          6           0       -5.823240   -4.588501    0.058235
     24          7           0       -2.356522    1.468906    0.067578
     25          6           0       -3.597183    1.082686   -0.169029
     26          6           0       -4.590101    2.321147   -0.031988
     27          6           0       -3.517419    3.540054   -0.005396
     28          6           0       -2.197864    2.775958    0.062431
     29          6           0       -5.673034    2.393065   -1.158786
     30          6           0       -3.632209    4.594796    1.143687
     31          6           0       -4.060899    5.986398    0.754969
     32          7           0        0.577066    1.642960    0.195219
     33          6           0        0.291400    2.987113    0.060920
     34          6           0        1.471165    3.708243   -0.178450
     35          6           0        2.436967    2.694608   -0.325281
     36          6           0        1.883127    1.451347   -0.131193
     37          6           0        1.633548    5.136247   -0.332196
     38          6           0        3.826776    2.541287   -0.517887
     39          8           0        4.818173    3.314934   -0.611609
     40          6           0        4.013570    0.969356   -0.710672
     41          6           0        5.236436    0.505753   -0.007811
     42          8           0        5.470209    0.533036    1.198726
     43          8           0        6.080108   -0.102551   -0.990038
     44          6           0        7.368824   -0.634282   -0.528677
     45          1           0       -0.086942   -4.371442    0.013790
     46          1           0       -5.110231   -0.293724   -0.270990
     47          1           0       -1.049958    4.546688   -0.031137
     48          1           0        3.971205   -2.199998   -0.687115
     49          1           0        2.478129   -4.285732    0.362002
     50          1           0        3.109276   -3.406002   -2.351042
     51          1           0        1.526053   -4.085717   -2.277829
     52          1           0        2.925179   -5.013137   -1.586366
     53          1           0        2.984869   -2.989131    2.237651
     54          1           0        3.689968   -1.466538    2.166519
     55          1           0        5.161604   -3.601828    2.938239
     56          1           0        5.859618   -2.256526    1.892036
     57          1           0       -3.414642   -5.808539    0.516277
     58          1           0       -1.705879   -5.652048    0.091937
     59          1           0       -2.769691   -5.563291   -1.179027
     60          1           0       -5.397905   -5.170235   -0.760040
     61          1           0       -6.910397   -4.664288    0.035082
     62          1           0       -5.553260   -5.099882    0.982197
     63          1           0       -5.095243    2.349838    0.933401
     64          1           0       -3.422418    4.024524   -0.978297
     65          1           0       -5.491125    1.623892   -1.909590
     66          1           0       -5.587033    3.439327   -1.452808
     67          1           0       -6.641958    2.326201   -0.665693
     68          1           0       -2.645016    4.686536    1.597144
     69          1           0       -4.300693    4.216081    1.917126
     70          1           0       -4.358918    5.872659   -0.286469
     71          1           0       -3.177774    6.625605    0.785783
     72          1           0       -4.919653    6.349002    1.318554
     73          1           0        1.154734    5.599867    0.529885
     74          1           0        1.038921    5.603204   -1.117406
     75          1           0        2.694830    5.385307   -0.341956
     76          1           0        4.097237    0.767624   -1.779047
     77          1           0        7.962603   -0.991403   -1.370506
     78          1           0        7.182957   -1.552463    0.028856
     79          1           0        7.931448    0.162818   -0.043834
 ---------------------------------------------------------------------

 SCF Done:  E(RwB97XD) =  -2035.27142541     A.U. after   20 cycles

 Excitation energies and oscillator strengths:

 Excited State   1:      Singlet-A      1.7434 eV  711.15 nm  f=0.3634  <S**2>=0.000
     155 ->158         0.21788
     156 ->157         0.67304
     155 <-158         0.11927
 This state for optimization and/or second-order correction.
 Total Energy, E(TD-HF/TD-DFT) =  -2035.20735533
 Copying the excited state density for this state as the 1-particle RhoCI density.

 Excited State   2:      Singlet-A      2.1695 eV  571.48 nm  f=0.0785  <S**2>=0.000
     155 ->157         0.62748
     156 ->158        -0.30974

 Excited State   3:      Singlet-A      3.3075 eV  374.86 nm  f=0.0360  <S**2>=0.000
     153 ->157        -0.13296
     154 ->157         0.60478
     156 ->158         0.28127

 Excited State   4:      Singlet-A      3.3944 eV  365.26 nm  f=0.0720  <S**2>=0.000
     152 ->157        -0.21559
     152 ->159        -0.10147
     152 ->160         0.10399
     153 ->157         0.44195
     153 ->159         0.24112
     153 ->160        -0.20716
     154 ->157         0.23715
     155 ->157        -0.10254
     156 ->158        -0.18048

 Excited State   5:      Singlet-A      3.5090 eV  353.33 nm  f=0.4126  <S**2>=0.000
     152 ->157         0.22491
     152 ->159        -0.10842
     153 ->157         0.33458
     154 ->157        -0.16374
     155 ->157         0.23116
     156 ->158         0.48132

 The electronic state is 1-A.
 Alpha  occ. eigenvalues --  -46.95740 -19.29193 -19.25161 -19.24042 -19.23543
 Alpha  occ. eigenvalues --  -14.46729 -14.46303 -14.44623 -14.43192 -10.43172
 Alpha  occ. eigenvalues --  -10.39099 -10.38537 -10.35593 -10.35037 -10.34844
 Alpha  occ. eigenvalues --  -10.34815 -10.34712 -10.34645 -10.34450 -10.34294
 Alpha  occ. eigenvalues --  -10.33326 -10.32768 -10.32734 -10.32570 -10.32524
 Alpha  occ. eigenvalues --  -10.32395 -10.32373 -10.31977 -10.31894 -10.31668
 Alpha  occ. eigenvalues --  -10.31667 -10.31589 -10.31477 -10.31020 -10.30417
 Alpha  occ. eigenvalues --  -10.30250 -10.30179 -10.30078 -10.29808 -10.29699
 Alpha  occ. eigenvalues --  -10.29680 -10.29229 -10.28683  -3.21652  -1.95243
 Alpha  occ. eigenvalues --   -1.94784  -1.94599  -1.16122  -1.11644  -1.09521
 Alpha  occ. eigenvalues --   -1.08945  -1.07805  -1.07227  -1.05565  -1.03524
 Alpha  occ. eigenvalues --   -0.94966  -0.91437  -0.90531  -0.89813  -0.89496
 Alpha  occ. eigenvalues --   -0.89280  -0.88868  -0.86229  -0.85883  -0.84659
 Alpha  occ. eigenvalues --   -0.83966  -0.83461  -0.82644  -0.80952  -0.79664
 Alpha  occ. eigenvalues --   -0.78904  -0.77841  -0.77183  -0.75236  -0.74260
 Alpha  occ. eigenvalues --   -0.70954  -0.70518  -0.69905  -0.69219  -0.67902
 Alpha  occ. eigenvalues --   -0.67593  -0.67568  -0.66609  -0.63272  -0.62559
 Alpha  occ. eigenvalues --   -0.62136  -0.61311  -0.60365  -0.59736  -0.59309
 Alpha  occ. eigenvalues --   -0.58978  -0.57769  -0.57422  -0.56322  -0.55753
 Alpha  occ. eigenvalues --   -0.55485  -0.55128  -0.54897  -0.54568  -0.54414
 Alpha  occ. eigenvalues --   -0.54198  -0.53471  -0.53096  -0.52857  -0.52520
 Alpha  occ. eigenvalues --   -0.52278  -0.51847  -0.51509  -0.51121  -0.50752
 Alpha  occ. eigenvalues --   -0.50630  -0.50323  -0.49969  -0.49741  -0.49576
 Alpha  occ. eigenvalues --   -0.49258  -0.49017  -0.48739  -0.48259  -0.48067
 Alpha  occ. eigenvalues --   -0.47536  -0.47306  -0.46883  -0.46202  -0.45913
 Alpha  occ. eigenvalues --   -0.45864  -0.45510  -0.45253  -0.44931  -0.44566
 Alpha  occ. eigenvalues --   -0.43902  -0.43630  -0.43588  -0.43126  -0.42961
 Alpha  occ. eigenvalues --   -0.42670  -0.42546  -0.42249  -0.41989  -0.40966
 Alpha  occ. eigenvalues --   -0.40434  -0.39921  -0.39421  -0.38409  -0.38109
 Alpha  occ. eigenvalues --   -0.37624  -0.36595  -0.35907  -0.35649  -0.34028
 Alpha  occ. eigenvalues --   -0.33239  -0.32631  -0.32322  -0.31479  -0.26104
 Alpha  occ. eigenvalues --   -0.23505
 Alpha virt. eigenvalues --   -0.06978  -0.00747   0.01805   0.04344   0.05420
 Alpha virt. eigenvalues --    0.06730   0.07849   0.08114   0.09008   0.10365
 Alpha virt. eigenvalues --    0.11119   0.12098   0.12476   0.13370   0.13764

 Mulliken charges:
               1
     1  Mg   0.950833
     2  C   -0.001542
     3  C   -0.092567
     4  C   -0.057206
     5  C   -0.097686
     6  N   -0.289448
     7  C   -0.079748
     8  C   -0.022004
     9  C   -0.152185
    10  C    0.044792
    11  C    0.020224
    12  C    0.019125
    13  C   -0.121896
    14  H   -0.003166
    15  N   -0.573532
    16  C    0.230523
    17  C   -0.157312
    18  C   -0.064158
    19  C    0.176503
    20  C    0.067646
    21  C    0.057154
    22  O   -0.243274
    23  C   -0.029556
    24  N   -0.281809
    25  C    0.040520
    26  C   -0.118728
    27  C   -0.082459
    28  C    0.022919
    29  C    0.039331
    30  C   -0.018079
    31  C   -0.035004
    32  N   -0.421009
    33  C    0.154804
    34  C   -0.152061
    35  C   -0.029624
    36  C    0.146205
    37  C    0.092502
    38  C    0.133314
    39  O   -0.250655
    40  C   -0.095493
    41  C    0.288985
    42  O   -0.246513
    43  O   -0.409301
    44  C    0.146585
    45  H   -0.006516
    46  H    0.019248
    47  H   -0.015425
    48  H    0.024951
    49  H    0.044110
    50  H    0.036951
    51  H    0.039611
    52  H    0.044102
    53  H    0.028294
    54  H    0.057694
    55  H    0.065768
    56  H    0.078845
    57  H    0.055764
    58  H    0.031529
    59  H    0.060661
    60  H    0.053907
    61  H    0.050870
    62  H    0.060071
    63  H    0.047719
    64  H    0.033921
    65  H    0.061746
    66  H    0.028994
    67  H    0.039262
    68  H    0.034198
    69  H    0.025064
    70  H    0.022691
    71  H    0.040433
    72  H    0.046568
    73  H    0.029885
    74  H    0.045566
    75  H    0.071960
    76  H    0.082479
    77  H    0.044126
    78  H    0.042308
    79  H    0.066698
 Sum of Mulliken charges =  -0.00000

 Dipole moment (field-independent basis, Debye):
    X=             -2.5207    Y=             -3.9309    Z=             -0.0315  Tot=              4.6698
 Quadrupole moment (field-independent basis, Debye-Ang):
   XX=           -280.9110   YY=           -224.3567   ZZ=           -255.9329
   XY=            -28.5430   XZ=             -7.2070   YZ=              0.9676

 Normal termination of Gaussian 16 at Sun Sep 19 00:55:31 2021.
