 Gaussian 16, Revision A.03,
 Gaussian 16:  ES64L-G16RevA.03 25-Dec-2016

 --------------------------------
 #p wB97XD/Def2SVP td=(nstates=5)
 --------------------------------

 --------------------------------
 TDDFT excited states in gaussian
 --------------------------------
 Symbolic Z-matrix:
 Charge =  0 Multiplicity = 1

                         Standard orientation:
 ---------------------------------------------------------------------
 Center     Atomic      Atomic             Coordinates (Angstroms)
 Number     Number       Type             X           Y           Z
 ---------------------------------------------------------------------
      1         12           0       20.034169   -0.674445    0.220237
      2          6           0       19.662487    2.398916   -1.358896
      3          6           0       21.759088    0.824840    2.695375
      4          6           0       21.047119   -3.710073    1.314781
      5          6           0       18.970295   -2.250297   -2.769515
      6          7           0       20.509136    1.369326    0.576348
      7          6           0       20.159588    2.533409   -0.072694
      8          6           0       20.745749    3.766610    0.668333
      9          6           0       21.816858    3.091956    1.579783
     10          6           0       21.270440    1.678716    1.719517
     11          6           0       23.266907    3.065522    0.980403
     12          6           0       19.568876    4.564010    1.259705
     13          6           0       19.691262    6.032547    1.108800
     14          1           0       18.436280    6.771758    1.230062
     15          7           0       21.039730   -1.314926    1.902150
     16          6           0       21.622736   -0.519526    2.835922
     17          6           0       21.922126   -1.322360    3.994930
     18          6           0       21.703602   -2.685689    3.580545
     19          6           0       21.318389   -2.615752    2.167962
     20          6           0       22.476286   -0.770911    5.259536
     21          6           0       21.965823   -4.040879    4.314867
     22          8           0       21.710201   -5.135740    3.809473
     23          6           0       22.415768   -4.076186    5.748698
     24          7           0       20.307694   -2.653040   -0.791600
     25          6           0       20.637525   -3.792832   -0.008610
     26          6           0       20.430370   -5.086031   -0.725217
     27          6           0       19.568212   -4.551488   -1.914707
     28          6           0       19.553606   -3.030532   -1.786597
     29          6           0       21.755448   -5.812680   -1.136793
     30          6           0       18.095128   -5.101549   -1.915983
     31          6           0       17.317164   -4.942055   -0.584926
     32          7           0       19.333807   -0.094603   -1.646462
     33          6           0       18.889287   -0.844729   -2.746202
     34          6           0       18.496187    0.086227   -3.736665
     35          6           0       18.759250    1.346084   -3.213414
     36          6           0       19.268870    1.174374   -1.968694
     37          6           0       17.871617   -0.257069   -5.051471
     38          6           0       18.758073    2.696790   -3.530735
     39          8           0       18.409694    3.261604   -4.583571
     40          6           0       19.334531    3.531015   -2.347272
     41          6           0       18.151212    4.471016   -1.957759
     42          8           0       17.085132    4.108349   -1.429326
     43          8           0       18.500683    5.770181   -2.309926
     44          6           0       17.439500    6.826185   -2.273882
     45          1           0       22.377751    1.407878    3.380890
     46          1           0       21.172058   -4.768266    1.556648
     47          1           0       18.441126   -2.671971   -3.626685
     48          1           0       21.184483    4.463205   -0.045276
     49          1           0       21.790661    3.557387    2.564625
     50          1           0       23.404519    3.584526    0.031396
     51          1           0       23.554065    2.047744    0.719374
     52          1           0       23.941626    3.560457    1.678596
     53          1           0       19.613911    4.394421    2.334581
     54          1           0       18.652358    4.182979    0.808434
     55          1           0       20.043440    6.193477    0.089758
     56          1           0       20.470530    6.385246    1.784120
     57          1           0       22.304885    0.302686    5.335356
     58          1           0       23.493193   -1.146928    5.376768
     59          1           0       21.921473   -1.182445    6.102771
     60          1           0       22.923898   -5.035649    5.847965
     61          1           0       21.559930   -4.079661    6.424094
     62          1           0       23.129040   -3.282770    5.974084
     63          1           0       19.830524   -5.808271   -0.169681
     64          1           0       20.056736   -4.825502   -2.850335
     65          1           0       22.567005   -5.084694   -1.152297
     66          1           0       21.765464   -6.300547   -2.111593
     67          1           0       22.086916   -6.612472   -0.473926
     68          1           0       18.165707   -6.134185   -2.258142
     69          1           0       17.628944   -4.564003   -2.741637
     70          1           0       16.408808   -4.349902   -0.697812
     71          1           0       18.003133   -4.475575    0.122688
     72          1           0       17.004722   -5.897131   -0.163717
     73          1           0       18.508748    0.200397   -5.808312
     74          1           0       16.851666    0.127272   -5.043762
     75          1           0       17.854759   -1.318398   -5.299565
     76          1           0       20.155886    4.137258   -2.728376
     77          1           0       16.669706    6.503138   -2.974342
     78          1           0       17.726080    7.842550   -2.543844
     79          1           0       17.172428    6.705353   -1.224000
     80         12           0      -20.489030   -0.536554   -0.057842
     81          6           0      -18.120875    1.995556    0.099111
     82          6           0      -22.847425    1.575482    1.104654
     83          6           0      -22.637528   -3.103284   -0.084896
     84          6           0      -17.936430   -2.692441   -1.105867
     85          7           0      -20.413615    1.579061    0.493487
     86          6           0      -19.416998    2.426665    0.400903
     87          6           0      -19.963249    3.861808    0.842993
     88          6           0      -21.056868    3.394060    1.779832
     89          6           0      -21.528951    2.087439    1.066245
     90          6           0      -20.501293    3.227534    3.210676
     91          6           0      -20.284313    4.756274   -0.430627
     92          6           0      -20.349978    6.261231   -0.152841
     93          1           0      -20.348944    6.740293    1.288576
     94          7           0      -22.480246   -0.694421    0.264162
     95          6           0      -23.309219    0.346402    0.676023
     96          6           0      -24.719390   -0.135921    0.576321
     97          6           0      -24.674067   -1.564958    0.282521
     98          6           0      -23.209047   -1.814098    0.227070
     99          6           0      -25.909965    0.759335    0.825876
    100          6           0      -25.839438   -2.627286    0.022444
    101          8           0      -25.636295   -3.804489   -0.293488
    102          6           0      -27.259108   -2.118886    0.162708
    103          7           0      -20.299970   -2.567440   -0.406575
    104          6           0      -21.312068   -3.428726   -0.346704
    105          6           0      -20.862214   -4.906495   -0.563822
    106          6           0      -19.447378   -4.677553   -1.114604
    107          6           0      -19.199486   -3.213333   -0.930498
    108          6           0      -20.921955   -5.797080    0.708570
    109          6           0      -19.083222   -5.279780   -2.544129
    110          6           0      -19.029948   -4.332108   -3.697089
    111          7           0      -18.407678   -0.482952   -0.242796
    112          6           0      -17.524491   -1.386571   -0.729996
    113          6           0      -16.190684   -0.902133   -0.764854
    114          6           0      -16.366422    0.479816   -0.440143
    115          6           0      -17.705785    0.621433   -0.157350
    116          6           0      -14.853123   -1.532229   -1.054899
    117          6           0      -15.747313    1.761032   -0.274027
    118          8           0      -14.597022    2.126626   -0.385642
    119          6           0      -16.853536    2.844964   -0.070982
    120          6           0      -16.525123    3.669107    1.096090
    121          8           0      -16.430758    3.203084    2.221387
    122          8           0      -16.152790    4.999032    0.772909
    123          6           0      -15.700005    5.833865    1.896676
    124          1           0      -23.564317    2.270384    1.544430
    125          1           0      -23.353027   -3.926169   -0.041897
    126          1           0      -17.158834   -3.405357   -1.386691
    127          1           0      -19.174761    4.414919    1.351561
    128          1           0      -21.938394    4.034438    1.797225
    129          1           0      -21.022828    4.018372    3.750874
    130          1           0      -19.421757    3.372878    3.268229
    131          1           0      -20.885443    2.273045    3.569832
    132          1           0      -21.245285    4.468235   -0.857786
    133          1           0      -19.435770    4.605080   -1.098280
    134          1           0      -21.247188    6.628872   -0.649842
    135          1           0      -19.505717    6.712880   -0.673165
    136          1           0      -25.713162    1.782859    0.504827
    137          1           0      -26.293356    0.803928    1.844734
    138          1           0      -26.729045    0.424724    0.189464
    139          1           0      -27.261650   -1.645326    1.144174
    140          1           0      -28.019852   -2.898351    0.193765
    141          1           0      -27.498371   -1.457270   -0.669991
    142          1           0      -21.487348   -5.407517   -1.302773
    143          1           0      -18.776145   -5.081826   -0.357784
    144          1           0      -19.999422   -6.377816    0.689347
    145          1           0      -21.783208   -6.455450    0.811005
    146          1           0      -20.995034   -5.136247    1.572361
    147          1           0      -19.739008   -6.129246   -2.735398
    148          1           0      -18.059874   -5.653475   -2.517793
    149          1           0      -17.988377   -4.261845   -4.011498
    150          1           0      -19.217249   -3.282576   -3.466821
    151          1           0      -19.595278   -4.651516   -4.572647
    152          1           0      -14.924250   -2.610666   -1.200703
    153          1           0      -14.144005   -1.226169   -0.285209
    154          1           0      -14.387612   -1.269768   -2.005151
    155          1           0      -16.944597    3.497906   -0.938607
    156          1           0      -15.584954    6.892919    1.667193
    157          1           0      -14.738169    5.391751    2.157917
    158          1           0      -16.399582    5.629351    2.706296
 ---------------------------------------------------------------------

 SCF Done:  E(RwB97XD) =  -4070.62439645     A.U. after   19 cycles

 Excitation energies and oscillator strengths:

 Excited State   1:      Singlet-A      1.6039 eV  773.02 nm  f=0.3790  <S**2>=0.000
     309 -> 315        0.16816
     312 -> 313        0.68666
     309 <- 315        0.11352
 This state for optimization and/or second-order correction.
 Total Energy, E(TD-HF/TD-DFT) =  -4070.56545426
 Copying the excited state density for this state as the 1-particle RhoCI density.

 Excited State   2:      Singlet-A      1.6905 eV  733.42 nm  f=0.3909  <S**2>=0.000
     310 -> 316       -0.18170
     311 -> 314        0.68420
     310 <- 316       -0.11474

 Excited State   3:      Singlet-A      2.1619 eV  573.49 nm  f=0.1079  <S**2>=0.000
     309 -> 313        0.64025
     312 -> 315       -0.27504

 Excited State   4:      Singlet-A      2.1645 eV  572.81 nm  f=0.1620  <S**2>=0.000
     310 -> 314        0.65091
     311 -> 316        0.25988

 Excited State   5:      Singlet-A      3.2510 eV  381.37 nm  f=0.0002  <S**2>=0.000
     305 -> 313        0.18586
     305 -> 318       -0.11032
     305 -> 319       -0.12762
     306 -> 313        0.55433
     308 -> 313       -0.31345

 The electronic state is 1-A.
 Alpha  occ. eigenvalues --  -46.94628 -46.94105 -19.29945 -19.29128 -19.25563
 Alpha  occ. eigenvalues --  -19.24939 -19.24387 -19.23699 -19.22899 -19.22713
 Alpha  occ. eigenvalues --  -14.46598 -14.46517 -14.46030 -14.46017 -14.44739
 Alpha  occ. eigenvalues --  -14.43879 -14.43184 -14.43075 -10.43898 -10.42704
 Alpha  occ. eigenvalues --  -10.41282 -10.39198 -10.38063 -10.37629 -10.35684
 Alpha  occ. eigenvalues --  -10.35399 -10.35241 -10.35125 -10.34973 -10.34772
 Alpha  occ. eigenvalues --  -10.34634 -10.34564 -10.34516 -10.34439 -10.34296
 Alpha  occ. eigenvalues --  -10.34192 -10.34175 -10.33784 -10.33330 -10.33222
 Alpha  occ. eigenvalues --  -10.33121 -10.32739 -10.32602 -10.32363 -10.32302
 Alpha  occ. eigenvalues --  -10.32298 -10.32257 -10.32169 -10.32033 -10.32019
 Alpha  occ. eigenvalues --  -10.32007 -10.31934 -10.31777 -10.31761 -10.31631
 Alpha  occ. eigenvalues --  -10.31580 -10.31580 -10.31564 -10.31550 -10.31330
 Alpha  occ. eigenvalues --  -10.31260 -10.31208 -10.31073 -10.31015 -10.30969
 Alpha  occ. eigenvalues --  -10.30874 -10.30768 -10.30747 -10.30487 -10.30287
 Alpha  occ. eigenvalues --  -10.30221 -10.30208 -10.29924 -10.29840 -10.29745
 Alpha  occ. eigenvalues --  -10.29651 -10.29628 -10.29625 -10.29595 -10.29587
 Alpha  occ. eigenvalues --  -10.29571 -10.29517 -10.29354 -10.28283 -10.28158
 Alpha  occ. eigenvalues --  -10.27777  -3.20657  -3.20271  -1.94226  -1.93881
 Alpha  occ. eigenvalues --   -1.93786  -1.93630  -1.93366  -1.93295  -1.16616
 Alpha  occ. eigenvalues --   -1.16555  -1.12756  -1.11761  -1.11622  -1.10150
 Alpha  occ. eigenvalues --   -1.08921  -1.08823  -1.07571  -1.06820  -1.06728
 Alpha  occ. eigenvalues --   -1.06163  -1.05882  -1.05481  -1.05222  -1.04193
 Alpha  occ. eigenvalues --   -0.94506  -0.94076  -0.91082  -0.90975  -0.90875
 Alpha  occ. eigenvalues --   -0.90434  -0.90413  -0.90202  -0.89665  -0.89260
 Alpha  occ. eigenvalues --   -0.89035  -0.89029  -0.88431  -0.88157  -0.86449
 Alpha  occ. eigenvalues --   -0.86200  -0.85504  -0.85402  -0.84688  -0.84507
 Alpha  occ. eigenvalues --   -0.84014  -0.83478  -0.82895  -0.82874  -0.82306
 Alpha  occ. eigenvalues --   -0.82025  -0.80577  -0.80110  -0.79134  -0.78944
 Alpha  occ. eigenvalues --   -0.78816  -0.78558  -0.77917  -0.77749  -0.77351
 Alpha  occ. eigenvalues --   -0.76987  -0.75200  -0.74792  -0.73959  -0.73145
 Alpha  occ. eigenvalues --   -0.71663  -0.71116  -0.70721  -0.70707  -0.69880
 Alpha  occ. eigenvalues --   -0.69477  -0.68654  -0.68445  -0.67285  -0.67011
 Alpha  occ. eigenvalues --   -0.66569  -0.66547  -0.66410  -0.66171  -0.65998
 Alpha  occ. eigenvalues --   -0.65950  -0.63552  -0.63234  -0.62680  -0.61832
 Alpha  occ. eigenvalues --   -0.61715  -0.61534  -0.61108  -0.61092  -0.60392
 Alpha  occ. eigenvalues --   -0.59997  -0.59940  -0.59558  -0.59518  -0.58918
 Alpha  occ. eigenvalues --   -0.57903  -0.57826  -0.57642  -0.57521  -0.57344
 Alpha  occ. eigenvalues --   -0.57225  -0.56926  -0.56680  -0.56667  -0.55872
 Alpha  occ. eigenvalues --   -0.55557  -0.55397  -0.55322  -0.54936  -0.54923
 Alpha  occ. eigenvalues --   -0.54852  -0.54725  -0.54573  -0.54338  -0.54228
 Alpha  occ. eigenvalues --   -0.54071  -0.53813  -0.53720  -0.53590  -0.53352
 Alpha  occ. eigenvalues --   -0.53120  -0.52707  -0.52685  -0.52377  -0.52232
 Alpha  occ. eigenvalues --   -0.52213  -0.51804  -0.51512  -0.51403  -0.51295
 Alpha  occ. eigenvalues --   -0.51094  -0.51052  -0.50974  -0.50777  -0.50776
 Alpha  occ. eigenvalues --   -0.50644  -0.50470  -0.50408  -0.50398  -0.49985
 Alpha  occ. eigenvalues --   -0.49862  -0.49738  -0.49595  -0.49297  -0.49280
 Alpha  occ. eigenvalues --   -0.48959  -0.48781  -0.48475  -0.48338  -0.48162
 Alpha  occ. eigenvalues --   -0.48160  -0.47925  -0.47846  -0.47690  -0.47601
 Alpha  occ. eigenvalues --   -0.47433  -0.47350  -0.46839  -0.46567  -0.46501
 Alpha  occ. eigenvalues --   -0.46361  -0.46247  -0.46032  -0.45921  -0.45870
 Alpha  occ. eigenvalues --   -0.45641  -0.45425  -0.45337  -0.45334  -0.45255
 Alpha  occ. eigenvalues --   -0.45143  -0.45075  -0.44959  -0.44918  -0.44555
 Alpha  occ. eigenvalues --   -0.44417  -0.44258  -0.44011  -0.43815  -0.43728
 Alpha  occ. eigenvalues --   -0.43712  -0.43466  -0.43291  -0.43013  -0.42942
 Alpha  occ. eigenvalues --   -0.42847  -0.42764  -0.42562  -0.42410  -0.42111
 Alpha  occ. eigenvalues --   -0.42078  -0.41865  -0.41821  -0.41091  -0.41011
 Alpha  occ. eigenvalues --   -0.40185  -0.40138  -0.39963  -0.39925  -0.39437
 Alpha  occ. eigenvalues --   -0.39245  -0.38845  -0.38627  -0.38496  -0.38114
 Alpha  occ. eigenvalues --   -0.38038  -0.37604  -0.36427  -0.36120  -0.36061
 Alpha  occ. eigenvalues --   -0.35875  -0.35426  -0.35425  -0.34191  -0.33494
 Alpha  occ. eigenvalues --   -0.33377  -0.32705  -0.32694  -0.32142  -0.32005
 Alpha  occ. eigenvalues --   -0.31872  -0.31681  -0.31495  -0.26115  -0.25810
 Alpha  occ. eigenvalues --   -0.23202  -0.22957
 Alpha virt. eigenvalues --   -0.07312  -0.07161   0.00475   0.00675   0.02014
 Alpha virt. eigenvalues --    0.02648   0.04508   0.04589   0.05446   0.06618
 Alpha virt. eigenvalues --    0.06992   0.07180   0.07470   0.08053   0.08729

 Mulliken charges:
               1
     1  Mg   0.955921
     2  C   -0.066764
     3  C   -0.119185
     4  C   -0.020821
     5  C   -0.102729
     6  N   -0.406813
     7  C    0.019932
     8  C   -0.101537
     9  C   -0.087769
    10  C    0.034012
    11  C    0.034867
    12  C    0.039816
    13  C   -0.123614
    14  H    0.052882
    15  N   -0.463888
    16  C    0.229810
    17  C   -0.175558
    18  C   -0.078364
    19  C    0.188134
    20  C    0.069074
    21  C    0.055831
    22  O   -0.248577
    23  C   -0.006286
    24  N   -0.316448
    25  C   -0.057291
    26  C   -0.058244
    27  C   -0.099745
    28  C    0.111837
    29  C    0.018222
    30  C   -0.021932
    31  C   -0.053830
    32  N   -0.435235
    33  C    0.116928
    34  C   -0.197883
    35  C    0.054001
    36  C    0.194457
    37  C    0.092970
    38  C    0.016732
    39  O   -0.242760
    40  C   -0.028884
    41  C    0.287630
    42  O   -0.268701
    43  O   -0.389810
    44  C    0.142314
    45  H   -0.000981
    46  H    0.018606
    47  H    0.002570
    48  H    0.020082
    49  H    0.019442
    50  H    0.035586
    51  H    0.053052
    52  H    0.043434
    53  H    0.021646
    54  H    0.065593
    55  H    0.039894
    56  H    0.040115
    57  H    0.041117
    58  H    0.067673
    59  H    0.043146
    60  H    0.054668
    61  H    0.075078
    62  H    0.027220
    63  H    0.045846
    64  H    0.030904
    65  H    0.039572
    66  H    0.032751
    67  H    0.042629
    68  H    0.031227
    69  H    0.022929
    70  H    0.046514
    71  H    0.045719
    72  H    0.042278
    73  H    0.058120
    74  H    0.068073
    75  H    0.019624
    76  H    0.066904
    77  H    0.068364
    78  H    0.069532
    79  H    0.058369
    80  Mg   0.985929
    81  C   -0.033825
    82  C   -0.089388
    83  C   -0.081442
    84  C   -0.113312
    85  N   -0.312387
    86  C   -0.022178
    87  C   -0.084735
    88  C   -0.106274
    89  C    0.035635
    90  C    0.056941
    91  C    0.017378
    92  C   -0.109412
    93  H    0.037433
    94  N   -0.477387
    95  C    0.190049
    96  C   -0.158447
    97  C   -0.108926
    98  C    0.127274
    99  C    0.049043
   100  C    0.101771
   101  O   -0.227660
   102  C   -0.029730
   103  N   -0.378824
   104  C    0.081099
   105  C   -0.097575
   106  C   -0.032603
   107  C    0.053270
   108  C    0.021172
   109  C   -0.006299
   110  C   -0.048461
   111  N   -0.374791
   112  C    0.116226
   113  C   -0.174722
   114  C   -0.023236
   115  C    0.101931
   116  C    0.084884
   117  C    0.096519
   118  O   -0.204521
   119  C   -0.019855
   120  C    0.245699
   121  O   -0.251775
   122  O   -0.402713
   123  C    0.147353
   124  H    0.004648
   125  H    0.017865
   126  H   -0.007200
   127  H    0.021255
   128  H    0.004249
   129  H    0.035500
   130  H    0.070912
   131  H    0.036996
   132  H    0.035388
   133  H    0.041321
   134  H    0.045559
   135  H    0.053123
   136  H    0.040752
   137  H    0.065809
   138  H    0.031026
   139  H    0.059280
   140  H    0.056230
   141  H    0.081388
   142  H    0.037164
   143  H    0.030705
   144  H    0.038434
   145  H    0.045360
   146  H    0.041230
   147  H    0.033868
   148  H    0.028054
   149  H    0.018072
   150  H    0.047791
   151  H    0.040843
   152  H    0.015385
   153  H    0.066044
   154  H    0.046140
   155  H    0.068329
   156  H    0.063922
   157  H    0.057346
   158  H    0.048086
 Sum of Mulliken charges =  -0.00000

 Dipole moment (field-independent basis, Debye):
    X=             -3.7141    Y=              1.1663    Z=              2.6480  Tot=              4.7082
 Quadrupole moment (field-independent basis, Debye-Ang):
   XX=           -203.9157   YY=           -472.9277   ZZ=           -506.0590
   XY=            -28.2316   XZ=             63.5028   YZ=             30.3372

 Normal termination of Gaussian 16 at Sun Sep 19 11:54:16 2021.
