 Gaussian 16, Revision A.03,
 Gaussian 16:  ES64L-G16RevA.03 25-Dec-2016

 --------------------------------
 #p wB97XD/Def2SVP td=(nstates=5)
 --------------------------------

 --------------------------------
 TDDFT excited states in gaussian
 --------------------------------
 Symbolic Z-matrix:
 Charge =  0 Multiplicity = 1

                         Standard orientation:
 ---------------------------------------------------------------------
 Center     Atomic      Atomic             Coordinates (Angstroms)
 Number     Number       Type             X           Y           Z
 ---------------------------------------------------------------------
      1         12           0       -0.790861    0.178080    0.371520
      2          6           0        2.741111    0.079272    0.228832
      3          6           0       -0.790797   -3.246633    0.350984
      4          6           0       -4.059577    0.275986   -0.151673
      5          6           0       -0.615039    3.641798   -0.100915
      6          7           0        0.800876   -1.402373    0.133418
      7          6           0        2.177743   -1.176161    0.209631
      8          6           0        2.919561   -2.514570    0.447561
      9          6           0        1.756835   -3.573001    0.462724
     10          6           0        0.463222   -2.719810    0.348196
     11          6           0        1.907486   -4.781228   -0.445019
     12          6           0        3.816318   -2.589970    1.693109
     13          6           0        5.282458   -3.004164    1.389860
     14          1           0        5.785202   -4.215534    2.143389
     15          7           0       -2.225092   -1.313339    0.220296
     16          6           0       -2.056985   -2.666720    0.197454
     17          6           0       -3.367038   -3.271833    0.234588
     18          6           0       -4.352832   -2.236942   -0.065175
     19          6           0       -3.519955   -1.044760   -0.024557
     20          6           0       -3.583005   -4.872409    0.279806
     21          6           0       -5.723104   -2.311879   -0.586679
     22          8           0       -6.472700   -1.402139   -0.800528
     23          6           0       -6.239539   -3.712298   -0.903129
     24          7           0       -2.116820    1.756473   -0.278129
     25          6           0       -3.443199    1.533458   -0.356750
     26          6           0       -4.209258    2.854614   -0.456848
     27          6           0       -3.142709    3.895108   -0.079258
     28          6           0       -1.872721    3.074363   -0.108810
     29          6           0       -4.786239    3.084441   -1.928549
     30          6           0       -3.439683    4.410461    1.419991
     31          6           0       -3.125288    3.398235    2.555237
     32          7           0        0.701177    1.672206    0.225100
     33          6           0        0.609596    3.000744    0.052462
     34          6           0        1.941738    3.542040    0.022064
     35          6           0        2.786954    2.454319    0.136528
     36          6           0        2.002225    1.299346    0.195082
     37          6           0        2.385982    4.984036   -0.133100
     38          6           0        4.216587    2.132693    0.134616
     39          8           0        5.263142    2.694226   -0.027767
     40          6           0        4.252255    0.587781    0.273791
     41          6           0        4.993749    0.098452   -0.914952
     42          8           0        4.655524    0.395266   -2.033191
     43          8           0        6.126832   -0.633112   -0.597367
     44          6           0        7.082679   -0.903487   -1.722978
     45          1           0       -0.773875   -4.319508    0.554333
     46          1           0       -5.145897    0.375247   -0.209042
     47          1           0       -0.464028    4.721170   -0.032600
     48          1           0        3.509756   -2.747516   -0.438971
     49          1           0        1.767895   -4.066862    1.434558
     50          1           0        2.671244   -4.611925   -1.202598
     51          1           0        0.978787   -5.086773   -0.927614
     52          1           0        2.299568   -5.578263    0.186227
     53          1           0        3.545150   -3.296971    2.477167
     54          1           0        3.837604   -1.631456    2.211169
     55          1           0        5.961574   -2.155175    1.467399
     56          1           0        5.325394   -3.310994    0.345594
     57          1           0       -4.316394   -5.086672    1.057115
     58          1           0       -2.712520   -5.469153    0.549668
     59          1           0       -3.876850   -5.387420   -0.634778
     60          1           0       -6.221327   -4.209806    0.066822
     61          1           0       -5.508666   -4.125614   -1.597460
     62          1           0       -7.269088   -3.748789   -1.260564
     63          1           0       -5.008964    2.951713    0.278185
     64          1           0       -2.953601    4.750766   -0.727858
     65          1           0       -5.685508    3.691823   -1.822731
     66          1           0       -5.084032    2.214282   -2.514542
     67          1           0       -4.009134    3.663149   -2.427612
     68          1           0       -4.463207    4.761184    1.550796
     69          1           0       -2.732554    5.198347    1.679787
     70          1           0       -3.483772    3.678560    3.545129
     71          1           0       -2.040892    3.308307    2.621221
     72          1           0       -3.539441    2.434161    2.258247
     73          1           0        2.068194    5.641856    0.675522
     74          1           0        1.896063    5.303517   -1.052519
     75          1           0        3.456089    5.077407   -0.318089
     76          1           0        4.856396    0.433696    1.167689
     77          1           0        7.288223   -1.953442   -1.514544
     78          1           0        8.004591   -0.327053   -1.648409
     79          1           0        6.767801   -0.765599   -2.757055
 ---------------------------------------------------------------------

 SCF Done:  E(RwB97XD) =  -2035.31520606     A.U. after   20 cycles

 Excitation energies and oscillator strengths:

 Excited State   1:      Singlet-A      1.6442 eV  754.06 nm  f=0.4011  <S**2>=0.000
     155 ->158         0.18153
     156 ->157         0.68503
     155 <-158         0.11696
 This state for optimization and/or second-order correction.
 Total Energy, E(TD-HF/TD-DFT) =  -2035.25478211
 Copying the excited state density for this state as the 1-particle RhoCI density.

 Excited State   2:      Singlet-A      2.1359 eV  580.49 nm  f=0.1349  <S**2>=0.000
     155 ->157         0.65464
     156 ->158        -0.25213

 Excited State   3:      Singlet-A      3.3972 eV  364.96 nm  f=0.0013  <S**2>=0.000
     152 ->157         0.13938
     153 ->157         0.57478
     154 ->157        -0.34625

 Excited State   4:      Singlet-A      3.4643 eV  357.89 nm  f=0.0191  <S**2>=0.000
     152 ->157         0.27936
     153 ->157         0.23446
     154 ->157         0.44036
     154 ->158         0.10956
     154 ->159         0.20844
     154 ->160        -0.14957
     156 ->158         0.25577

 Excited State   5:      Singlet-A      3.5200 eV  352.23 nm  f=0.0067  <S**2>=0.000
     152 ->157         0.53479
     153 ->157        -0.26501
     153 ->159        -0.11727
     154 ->157        -0.17836
     154 ->159        -0.11976
     154 ->160         0.11677
     156 ->158         0.20125

 The electronic state is 1-A.
 Alpha  occ. eigenvalues --  -46.95892 -19.30379 -19.24665 -19.24220 -19.23415
 Alpha  occ. eigenvalues --  -14.46730 -14.46527 -14.44368 -14.43829 -10.42647
 Alpha  occ. eigenvalues --  -10.39191 -10.38315 -10.35587 -10.35573 -10.34803
 Alpha  occ. eigenvalues --  -10.34779 -10.34769 -10.34268 -10.33986 -10.33821
 Alpha  occ. eigenvalues --  -10.33376 -10.33201 -10.32831 -10.32271 -10.32102
 Alpha  occ. eigenvalues --  -10.32064 -10.32035 -10.31948 -10.31920 -10.31551
 Alpha  occ. eigenvalues --  -10.31368 -10.31086 -10.31003 -10.30684 -10.30580
 Alpha  occ. eigenvalues --  -10.30481 -10.30363 -10.30084 -10.29831 -10.29814
 Alpha  occ. eigenvalues --  -10.29470 -10.29111 -10.28931  -3.21755  -1.95323
 Alpha  occ. eigenvalues --   -1.94890  -1.94715  -1.17854  -1.13932  -1.13282
 Alpha  occ. eigenvalues --   -1.09834  -1.07216  -1.06341  -1.05876  -1.04014
 Alpha  occ. eigenvalues --   -0.94354  -0.90781  -0.90682  -0.90161  -0.89682
 Alpha  occ. eigenvalues --   -0.88520  -0.88280  -0.86347  -0.85401  -0.84402
 Alpha  occ. eigenvalues --   -0.83156  -0.82828  -0.82121  -0.80332  -0.79362
 Alpha  occ. eigenvalues --   -0.78713  -0.78086  -0.77163  -0.75109  -0.73755
 Alpha  occ. eigenvalues --   -0.71294  -0.71212  -0.70068  -0.69246  -0.67429
 Alpha  occ. eigenvalues --   -0.67295  -0.67150  -0.66461  -0.64294  -0.62425
 Alpha  occ. eigenvalues --   -0.61701  -0.61294  -0.60739  -0.60108  -0.59547
 Alpha  occ. eigenvalues --   -0.57990  -0.57348  -0.57171  -0.56598  -0.56120
 Alpha  occ. eigenvalues --   -0.55370  -0.54937  -0.54611  -0.54340  -0.54073
 Alpha  occ. eigenvalues --   -0.53838  -0.53477  -0.53223  -0.52689  -0.52006
 Alpha  occ. eigenvalues --   -0.51750  -0.51444  -0.51304  -0.51242  -0.50982
 Alpha  occ. eigenvalues --   -0.50348  -0.50201  -0.49879  -0.49539  -0.49415
 Alpha  occ. eigenvalues --   -0.48966  -0.48375  -0.48073  -0.48052  -0.47828
 Alpha  occ. eigenvalues --   -0.47498  -0.47243  -0.47051  -0.46484  -0.46002
 Alpha  occ. eigenvalues --   -0.45604  -0.45365  -0.45293  -0.45000  -0.44849
 Alpha  occ. eigenvalues --   -0.44400  -0.44305  -0.44036  -0.43949  -0.43376
 Alpha  occ. eigenvalues --   -0.43306  -0.42803  -0.42236  -0.41651  -0.40990
 Alpha  occ. eigenvalues --   -0.40236  -0.40021  -0.39814  -0.39156  -0.38361
 Alpha  occ. eigenvalues --   -0.38221  -0.36409  -0.36046  -0.35654  -0.33836
 Alpha  occ. eigenvalues --   -0.33253  -0.32565  -0.32381  -0.32224  -0.26111
 Alpha  occ. eigenvalues --   -0.23401
 Alpha virt. eigenvalues --   -0.07541   0.00476   0.02588   0.04572   0.04793
 Alpha virt. eigenvalues --    0.07550   0.07906   0.09039   0.10351   0.11048
 Alpha virt. eigenvalues --    0.11587   0.12414   0.12936   0.13414   0.14081

 Mulliken charges:
               1
     1  Mg   0.945995
     2  C   -0.040813
     3  C   -0.093293
     4  C   -0.065169
     5  C   -0.068520
     6  N   -0.371851
     7  C    0.009004
     8  C   -0.037778
     9  C   -0.103017
    10  C    0.075263
    11  C    0.021434
    12  C    0.015438
    13  C   -0.142102
    14  H    0.025743
    15  N   -0.445303
    16  C    0.174550
    17  C   -0.128428
    18  C   -0.081825
    19  C    0.149888
    20  C    0.018098
    21  C    0.023436
    22  O   -0.210433
    23  C   -0.005976
    24  N   -0.331323
    25  C    0.048301
    26  C   -0.089093
    27  C   -0.066737
    28  C    0.056107
    29  C    0.021692
    30  C   -0.041443
    31  C   -0.066614
    32  N   -0.411870
    33  C    0.080582
    34  C   -0.175931
    35  C   -0.085197
    36  C    0.178278
    37  C    0.073473
    38  C    0.147728
    39  O   -0.174251
    40  C   -0.066589
    41  C    0.252300
    42  O   -0.231228
    43  O   -0.382082
    44  C    0.126243
    45  H   -0.009990
    46  H    0.025914
    47  H   -0.003887
    48  H    0.040930
    49  H    0.033967
    50  H    0.030243
    51  H    0.043342
    52  H    0.031386
    53  H    0.042752
    54  H    0.032989
    55  H    0.067863
    56  H    0.036389
    57  H    0.048979
    58  H    0.027009
    59  H    0.053810
    60  H    0.041764
    61  H    0.056542
    62  H    0.049665
    63  H    0.042152
    64  H    0.039942
    65  H    0.039823
    66  H    0.057658
    67  H    0.036731
    68  H    0.045249
    69  H    0.027654
    70  H    0.048350
    71  H    0.041066
    72  H    0.039450
    73  H    0.051875
    74  H    0.041790
    75  H    0.060842
    76  H    0.062951
    77  H    0.052996
    78  H    0.061585
    79  H    0.073535
 Sum of Mulliken charges =  -0.00000

 Dipole moment (field-independent basis, Debye):
    X=             -0.7212    Y=             -2.1082    Z=              2.4429  Tot=              3.3064
 Quadrupole moment (field-independent basis, Debye-Ang):
   XX=           -273.0407   YY=           -224.4973   ZZ=           -256.6743
   XY=            -18.8532   XZ=             -5.6455   YZ=              3.4554

 Normal termination of Gaussian 16 at Sun Sep 19 16:40:57 2021.
