 Gaussian 16, Revision A.03,
 Gaussian 16:  ES64L-G16RevA.03 25-Dec-2016

 --------------------------------
 #p wB97XD/Def2SVP td=(nstates=5)
 --------------------------------

 --------------------------------
 TDDFT excited states in gaussian
 --------------------------------
 Symbolic Z-matrix:
 Charge =  0 Multiplicity = 1

                         Standard orientation:
 ---------------------------------------------------------------------
 Center     Atomic      Atomic             Coordinates (Angstroms)
 Number     Number       Type             X           Y           Z
 ---------------------------------------------------------------------
      1         12           0       19.569647   -0.714827   -0.213695
      2          6           0       21.474526    2.264833   -0.118791
      3          6           0       17.163632    0.836932    1.713688
      4          6           0       17.907193   -3.664160   -0.074761
      5          6           0       22.136777   -2.312091   -1.987956
      6          7           0       19.487222    1.287173    0.728225
      7          6           0       20.256251    2.417068    0.459947
      8          6           0       19.651553    3.706050    1.152970
      9          6           0       18.448232    3.112336    1.932736
     10          6           0       18.363057    1.634136    1.491067
     11          6           0       18.453856    3.223484    3.503324
     12          6           0       19.385457    4.956870    0.218977
     13          6           0       20.128316    6.203378    0.594135
     14          1           0       19.350839    7.563319    0.387783
     15          7           0       17.827390   -1.267395    0.696362
     16          6           0       16.920999   -0.494897    1.393819
     17          6           0       15.820486   -1.331138    1.846887
     18          6           0       15.986833   -2.654856    1.350000
     19          6           0       17.286756   -2.579142    0.586991
     20          6           0       14.583177   -0.797612    2.596611
     21          6           0       15.083505   -3.876521    1.484278
     22          8           0       15.296171   -4.938094    0.935453
     23          6           0       13.705258   -3.883771    2.264257
     24          7           0       20.024382   -2.751625   -0.860381
     25          6           0       19.184404   -3.763624   -0.686662
     26          6           0       19.728891   -5.095846   -1.315017
     27          6           0       21.007201   -4.601752   -2.101163
     28          6           0       21.068939   -3.109948   -1.653956
     29          6           0       19.918776   -6.210119   -0.245537
     30          6           0       20.891852   -4.846877   -3.592652
     31          6           0       22.175808   -5.361645   -4.240877
     32          7           0       21.507695   -0.272247   -0.836118
     33          6           0       22.399391   -0.970801   -1.627354
     34          6           0       23.578402   -0.169787   -1.749080
     35          6           0       23.278204    1.113603   -1.228967
     36          6           0       21.978415    1.025747   -0.656950
     37          6           0       24.847463   -0.579692   -2.394714
     38          6           0       23.772498    2.494817   -1.092526
     39          8           0       24.860755    3.016828   -1.316354
     40          6           0       22.478344    3.330651   -0.340060
     41          6           0       22.934642    3.929945    0.875067
     42          8           0       22.687623    3.512060    1.985528
     43          8           0       23.579033    5.119681    0.621573
     44          6           0       24.120593    5.750521    1.850985
     45          1           0       16.323513    1.322148    2.215284
     46          1           0       17.439904   -4.649111   -0.020663
     47          1           0       22.844924   -2.858089   -2.615786
     48          1           0       20.357371    3.931722    1.951616
     49          1           0       17.516200    3.580214    1.615566
     50          1           0       17.432092    3.461264    3.800874
     51          1           0       19.158922    4.003095    3.790704
     52          1           0       18.749183    2.308880    4.017887
     53          1           0       18.305725    5.106637    0.225392
     54          1           0       19.726303    4.679859   -0.778761
     55          1           0       21.036078    6.284238   -0.005247
     56          1           0       20.384567    6.038850    1.640352
     57          1           0       13.756885   -0.920982    1.897424
     58          1           0       14.677994    0.282338    2.712290
     59          1           0       14.326389   -1.316283    3.521102
     60          1           0       13.073242   -3.106323    1.833680
     61          1           0       13.831663   -3.934689    3.346110
     62          1           0       13.327872   -4.897604    2.134156
     63          1           0       19.071387   -5.518603   -2.074402
     64          1           0       21.853218   -5.112467   -1.640820
     65          1           0       20.925284   -6.616287   -0.349834
     66          1           0       19.145551   -6.978091   -0.278441
     67          1           0       19.838885   -5.777412    0.750355
     68          1           0       20.564084   -3.958362   -4.131297
     69          1           0       20.100637   -5.544374   -3.871920
     70          1           0       23.020486   -5.302723   -3.554397
     71          1           0       22.378468   -4.697766   -5.081759
     72          1           0       22.050984   -6.348236   -4.687428
     73          1           0       24.900545   -1.590143   -2.799900
     74          1           0       25.645137   -0.243995   -1.730953
     75          1           0       24.811043   -0.050718   -3.347360
     76          1           0       22.115775    4.104081   -1.017749
     77          1           0       24.833496    5.077863    2.328363
     78          1           0       23.255073    6.018180    2.457011
     79          1           0       24.684879    6.659945    1.648227
     80         12           0      -20.099856   -0.548450    0.250274
     81          6           0      -19.753686    2.469950   -1.500211
     82          6           0      -19.442190    1.176969    3.156236
     83          6           0      -20.399780   -3.407232    1.871721
     84          6           0      -20.595030   -2.164526   -2.829628
     85          7           0      -19.742618    1.588570    0.711749
     86          6           0      -19.614705    2.684158   -0.142264
     87          6           0      -19.643967    4.070899    0.612557
     88          6           0      -19.395242    3.571557    2.022699
     89          6           0      -19.541200    1.994225    1.984440
     90          6           0      -17.898520    3.891119    2.479824
     91          6           0      -21.149127    4.566845    0.449613
     92          6           0      -21.373730    6.112440    0.141735
     93          1           0      -20.302165    6.926030    0.821355
     94          7           0      -19.801354   -1.043115    2.166559
     95          6           0      -19.538781   -0.244447    3.197234
     96          6           0      -19.477893   -0.954711    4.447231
     97          6           0      -19.927191   -2.256348    4.148813
     98          6           0      -20.011285   -2.308377    2.640645
     99          6           0      -19.106884   -0.378782    5.764563
    100          6           0      -20.351762   -3.384393    5.066376
    101          8           0      -20.962854   -4.381689    4.665916
    102          6           0      -19.930563   -3.370557    6.538447
    103          7           0      -20.405215   -2.535973   -0.426967
    104          6           0      -20.557983   -3.513422    0.527869
    105          6           0      -21.004047   -4.799228   -0.165023
    106          6           0      -21.193179   -4.381735   -1.704256
    107          6           0      -20.773034   -2.935565   -1.684007
    108          6           0      -19.994165   -5.956400    0.158576
    109          6           0      -22.559650   -4.632131   -2.322694
    110          6           0      -22.506958   -5.437456   -3.658677
    111          7           0      -20.139018    0.022045   -1.750445
    112          6           0      -20.336458   -0.767110   -2.926832
    113          6           0      -20.244383    0.044779   -4.087368
    114          6           0      -20.018373    1.324056   -3.552018
    115          6           0      -19.916448    1.226199   -2.148780
    116          6           0      -20.397134   -0.298884   -5.534089
    117          6           0      -19.833623    2.703245   -3.872440
    118          8           0      -19.772967    3.301914   -4.920610
    119          6           0      -19.767167    3.494673   -2.535653
    120          6           0      -18.607647    4.422189   -2.582390
    121          8           0      -17.414938    4.134255   -2.537992
    122          8           0      -19.105991    5.661604   -2.625956
    123          6           0      -18.154716    6.752630   -2.592857
    124          1           0      -19.384108    1.614809    4.154793
    125          1           0      -20.475710   -4.321371    2.465867
    126          1           0      -20.805048   -2.613902   -3.802531
    127          1           0      -18.959870    4.707963    0.052819
    128          1           0      -20.135556    3.987424    2.705321
    129          1           0      -17.320123    4.381559    1.696615
    130          1           0      -17.413962    2.951142    2.743219
    131          1           0      -18.021815    4.521141    3.360785
    132          1           0      -21.760704    4.384680    1.332797
    133          1           0      -21.585345    3.951686   -0.337837
    134          1           0      -22.262879    6.479656    0.654379
    135          1           0      -21.618695    6.280169   -0.907374
    136          1           0      -20.013609   -0.384429    6.371008
    137          1           0      -18.779328    0.655522    5.669250
    138          1           0      -18.328860   -0.941697    6.279368
    139          1           0      -20.060567   -4.426821    6.772919
    140          1           0      -20.526858   -2.705242    7.163973
    141          1           0      -18.878227   -3.188682    6.755819
    142          1           0      -21.957890   -5.208427    0.167779
    143          1           0      -20.456392   -4.923275   -2.297677
    144          1           0      -20.609504   -6.818722    0.415453
    145          1           0      -19.273174   -5.710463    0.938247
    146          1           0      -19.535644   -6.346471   -0.750873
    147          1           0      -23.143651   -3.729576   -2.500043
    148          1           0      -23.030992   -5.337499   -1.636841
    149          1           0      -21.493737   -5.786230   -3.858942
    150          1           0      -22.678955   -4.795665   -4.522512
    151          1           0      -23.179048   -6.295401   -3.631227
    152          1           0      -21.477509   -0.426557   -5.607271
    153          1           0      -19.776359   -1.176873   -5.711266
    154          1           0      -20.129228    0.528095   -6.190180
    155          1           0      -20.653000    4.129539   -2.581771
    156          1           0      -17.414545    6.625110   -3.383281
    157          1           0      -17.539915    6.841661   -1.696568
    158          1           0      -18.732278    7.661238   -2.763968
 ---------------------------------------------------------------------

 SCF Done:  E(RwB97XD) =  -4070.63414984     A.U. after   19 cycles

 Excitation energies and oscillator strengths:

 Excited State   1:      Singlet-A      1.6810 eV  737.58 nm  f=0.3800  <S**2>=0.000
     309 -> 316        0.16573
     312 -> 313        0.68558
     309 <- 316        0.10526
 This state for optimization and/or second-order correction.
 Total Energy, E(TD-HF/TD-DFT) =  -4070.57237593
 Copying the excited state density for this state as the 1-particle RhoCI density.

 Excited State   2:      Singlet-A      1.7609 eV  704.08 nm  f=0.3741  <S**2>=0.000
     310 -> 315        0.17860
     311 -> 314        0.68334
     310 <- 315        0.10772

 Excited State   3:      Singlet-A      2.2096 eV  561.13 nm  f=0.1108  <S**2>=0.000
     310 -> 314        0.63741
     311 -> 315       -0.28422

 Excited State   4:      Singlet-A      2.2342 eV  554.93 nm  f=0.1208  <S**2>=0.000
     309 -> 313        0.63517
     312 -> 316       -0.28432

 Excited State   5:      Singlet-A      3.4494 eV  359.44 nm  f=0.0262  <S**2>=0.000
     304 -> 314       -0.29767
     308 -> 314        0.60848

 The electronic state is 1-A.
 Alpha  occ. eigenvalues --  -46.94571 -46.94141 -19.30473 -19.29477 -19.25042
 Alpha  occ. eigenvalues --  -19.24954 -19.24349 -19.24070 -19.23752 -19.22406
 Alpha  occ. eigenvalues --  -14.46886 -14.46880 -14.46327 -14.46253 -14.45008
 Alpha  occ. eigenvalues --  -14.44885 -14.43270 -14.43058 -10.42166 -10.42062
 Alpha  occ. eigenvalues --  -10.40445 -10.40303 -10.39959 -10.37123 -10.36658
 Alpha  occ. eigenvalues --  -10.36163 -10.36030 -10.35351 -10.35276 -10.35175
 Alpha  occ. eigenvalues --  -10.35114 -10.34953 -10.34773 -10.34772 -10.34487
 Alpha  occ. eigenvalues --  -10.34453 -10.34138 -10.34082 -10.33737 -10.33320
 Alpha  occ. eigenvalues --  -10.33071 -10.32993 -10.32894 -10.32655 -10.32579
 Alpha  occ. eigenvalues --  -10.32533 -10.32424 -10.32377 -10.32195 -10.32080
 Alpha  occ. eigenvalues --  -10.32004 -10.31899 -10.31851 -10.31847 -10.31661
 Alpha  occ. eigenvalues --  -10.31656 -10.31634 -10.31632 -10.31455 -10.31386
 Alpha  occ. eigenvalues --  -10.31158 -10.31152 -10.31129 -10.31124 -10.30875
 Alpha  occ. eigenvalues --  -10.30714 -10.30682 -10.30646 -10.30623 -10.30584
 Alpha  occ. eigenvalues --  -10.30581 -10.30293 -10.30188 -10.30162 -10.30122
 Alpha  occ. eigenvalues --  -10.29981 -10.29939 -10.29866 -10.29676 -10.29642
 Alpha  occ. eigenvalues --  -10.29616 -10.29261 -10.29072 -10.28908 -10.28835
 Alpha  occ. eigenvalues --  -10.27571  -3.20535  -3.20259  -1.94134  -1.93866
 Alpha  occ. eigenvalues --   -1.93651  -1.93513  -1.93369  -1.93264  -1.19291
 Alpha  occ. eigenvalues --   -1.17947  -1.13786  -1.12657  -1.11561  -1.11426
 Alpha  occ. eigenvalues --   -1.09547  -1.09274  -1.07110  -1.06073  -1.05927
 Alpha  occ. eigenvalues --   -1.04944  -1.04533  -1.04384  -1.03954  -1.02931
 Alpha  occ. eigenvalues --   -0.94621  -0.93746  -0.91642  -0.90976  -0.90442
 Alpha  occ. eigenvalues --   -0.90317  -0.90284  -0.90001  -0.89921  -0.89251
 Alpha  occ. eigenvalues --   -0.88967  -0.88813  -0.88612  -0.87463  -0.86269
 Alpha  occ. eigenvalues --   -0.85904  -0.85491  -0.85448  -0.84405  -0.84286
 Alpha  occ. eigenvalues --   -0.83799  -0.83238  -0.82988  -0.82651  -0.82343
 Alpha  occ. eigenvalues --   -0.82045  -0.80941  -0.80442  -0.79362  -0.78820
 Alpha  occ. eigenvalues --   -0.78700  -0.78345  -0.77647  -0.77531  -0.76939
 Alpha  occ. eigenvalues --   -0.76670  -0.75112  -0.74203  -0.73416  -0.73280
 Alpha  occ. eigenvalues --   -0.71199  -0.71085  -0.70815  -0.70729  -0.69637
 Alpha  occ. eigenvalues --   -0.69420  -0.69357  -0.69136  -0.67519  -0.67398
 Alpha  occ. eigenvalues --   -0.67190  -0.67022  -0.66733  -0.66594  -0.66513
 Alpha  occ. eigenvalues --   -0.66338  -0.64455  -0.63115  -0.62856  -0.62079
 Alpha  occ. eigenvalues --   -0.61565  -0.61177  -0.61145  -0.60759  -0.60630
 Alpha  occ. eigenvalues --   -0.59932  -0.59739  -0.59733  -0.59305  -0.58998
 Alpha  occ. eigenvalues --   -0.58693  -0.57936  -0.57655  -0.57600  -0.57330
 Alpha  occ. eigenvalues --   -0.56705  -0.56385  -0.56121  -0.55776  -0.55607
 Alpha  occ. eigenvalues --   -0.55524  -0.55225  -0.55179  -0.55157  -0.54940
 Alpha  occ. eigenvalues --   -0.54580  -0.54505  -0.54486  -0.54082  -0.54038
 Alpha  occ. eigenvalues --   -0.53702  -0.53602  -0.53305  -0.53244  -0.53050
 Alpha  occ. eigenvalues --   -0.53032  -0.52766  -0.52716  -0.52492  -0.52366
 Alpha  occ. eigenvalues --   -0.52245  -0.52035  -0.51977  -0.51572  -0.51510
 Alpha  occ. eigenvalues --   -0.51442  -0.51345  -0.51228  -0.50639  -0.50622
 Alpha  occ. eigenvalues --   -0.50553  -0.50517  -0.50470  -0.49952  -0.49902
 Alpha  occ. eigenvalues --   -0.49834  -0.49665  -0.49587  -0.49485  -0.49463
 Alpha  occ. eigenvalues --   -0.49126  -0.48681  -0.48674  -0.48485  -0.48338
 Alpha  occ. eigenvalues --   -0.48321  -0.48113  -0.48032  -0.47905  -0.47454
 Alpha  occ. eigenvalues --   -0.47237  -0.47088  -0.46960  -0.46741  -0.46649
 Alpha  occ. eigenvalues --   -0.46647  -0.46506  -0.46413  -0.46402  -0.46258
 Alpha  occ. eigenvalues --   -0.45950  -0.45864  -0.45690  -0.45623  -0.45466
 Alpha  occ. eigenvalues --   -0.45180  -0.45145  -0.45011  -0.44970  -0.44926
 Alpha  occ. eigenvalues --   -0.44567  -0.44300  -0.44289  -0.44179  -0.43885
 Alpha  occ. eigenvalues --   -0.43880  -0.43572  -0.43395  -0.43123  -0.43043
 Alpha  occ. eigenvalues --   -0.42726  -0.42451  -0.42327  -0.42191  -0.42004
 Alpha  occ. eigenvalues --   -0.41925  -0.41648  -0.41552  -0.41299  -0.40750
 Alpha  occ. eigenvalues --   -0.40588  -0.40217  -0.39640  -0.39639  -0.39394
 Alpha  occ. eigenvalues --   -0.39195  -0.38913  -0.38884  -0.38477  -0.38349
 Alpha  occ. eigenvalues --   -0.38214  -0.37825  -0.36250  -0.36154  -0.35902
 Alpha  occ. eigenvalues --   -0.35770  -0.35320  -0.34990  -0.34337  -0.33904
 Alpha  occ. eigenvalues --   -0.33603  -0.33483  -0.33145  -0.32870  -0.32170
 Alpha  occ. eigenvalues --   -0.31703  -0.31331  -0.30740  -0.26078  -0.26007
 Alpha  occ. eigenvalues --   -0.23142  -0.22903
 Alpha virt. eigenvalues --   -0.06952  -0.06825   0.00163   0.00205   0.02105
 Alpha virt. eigenvalues --    0.02510   0.04224   0.04938   0.06031   0.06429
 Alpha virt. eigenvalues --    0.06934   0.07924   0.08088   0.08226   0.08409

 Mulliken charges:
               1
     1  Mg   0.955428
     2  C    0.013809
     3  C   -0.100370
     4  C   -0.065563
     5  C   -0.066939
     6  N   -0.380701
     7  C   -0.011800
     8  C   -0.052224
     9  C   -0.156790
    10  C    0.113120
    11  C    0.022926
    12  C    0.049839
    13  C   -0.135355
    14  H    0.029608
    15  N   -0.510026
    16  C    0.184489
    17  C   -0.167965
    18  C   -0.051466
    19  C    0.184763
    20  C    0.065682
    21  C    0.037423
    22  O   -0.218185
    23  C   -0.018958
    24  N   -0.317895
    25  C    0.037629
    26  C   -0.121172
    27  C   -0.060549
    28  C    0.021133
    29  C    0.018080
    30  C    0.000714
    31  C   -0.057023
    32  N   -0.463945
    33  C    0.166398
    34  C   -0.208601
    35  C   -0.042157
    36  C    0.161342
    37  C    0.091196
    38  C    0.152384
    39  O   -0.199092
    40  C   -0.163015
    41  C    0.269600
    42  O   -0.250534
    43  O   -0.372312
    44  C    0.150456
    45  H   -0.008650
    46  H    0.020415
    47  H   -0.018289
    48  H    0.051697
    49  H    0.032804
    50  H    0.036881
    51  H    0.043448
    52  H    0.050772
    53  H    0.038848
    54  H    0.034443
    55  H    0.066019
    56  H    0.050571
    57  H    0.052626
    58  H    0.034076
    59  H    0.066432
    60  H    0.061617
    61  H    0.055578
    62  H    0.047366
    63  H    0.040360
    64  H    0.034373
    65  H    0.035201
    66  H    0.050601
    67  H    0.041459
    68  H    0.030974
    69  H    0.027981
    70  H    0.041039
    71  H    0.031105
    72  H    0.041231
    73  H    0.019061
    74  H    0.070153
    75  H    0.044843
    76  H    0.079946
    77  H    0.060071
    78  H    0.049482
    79  H    0.052083
    80  Mg   0.983513
    81  C    0.006707
    82  C   -0.113519
    83  C   -0.075842
    84  C   -0.074250
    85  N   -0.350887
    86  C   -0.049131
    87  C   -0.050391
    88  C   -0.097784
    89  C    0.098142
    90  C    0.023291
    91  C    0.001823
    92  C   -0.115010
    93  H    0.031914
    94  N   -0.466456
    95  C    0.154057
    96  C   -0.174336
    97  C   -0.070261
    98  C    0.137900
    99  C    0.077962
   100  C    0.062840
   101  O   -0.243500
   102  C   -0.045659
   103  N   -0.389904
   104  C    0.116153
   105  C   -0.106946
   106  C   -0.048698
   107  C    0.073244
   108  C    0.009935
   109  C    0.001411
   110  C   -0.071383
   111  N   -0.414166
   112  C    0.082265
   113  C   -0.193419
   114  C   -0.037934
   115  C    0.139128
   116  C    0.088178
   117  C    0.083219
   118  O   -0.205350
   119  C   -0.074104
   120  C    0.226125
   121  O   -0.256887
   122  O   -0.333898
   123  C    0.142532
   124  H   -0.000073
   125  H    0.028405
   126  H   -0.008023
   127  H    0.049753
   128  H    0.040054
   129  H    0.051962
   130  H    0.043543
   131  H    0.040181
   132  H    0.031000
   133  H    0.043335
   134  H    0.042821
   135  H    0.062666
   136  H    0.053182
   137  H    0.041020
   138  H    0.058419
   139  H    0.058613
   140  H    0.065528
   141  H    0.052885
   142  H    0.043254
   143  H    0.032368
   144  H    0.027671
   145  H    0.060836
   146  H    0.025927
   147  H    0.049363
   148  H    0.028179
   149  H    0.020850
   150  H    0.037423
   151  H    0.045787
   152  H    0.054265
   153  H    0.052862
   154  H    0.061483
   155  H    0.067067
   156  H    0.054629
   157  H    0.045116
   158  H    0.057023
 Sum of Mulliken charges =  -0.00000

 Dipole moment (field-independent basis, Debye):
    X=             -6.6381    Y=             -1.0113    Z=              6.2809  Tot=              9.1944
 Quadrupole moment (field-independent basis, Debye-Ang):
   XX=           -649.3498   YY=           -484.2007   ZZ=           -496.1616
   XY=            -32.2386   XZ=            -86.2020   YZ=             46.0577

 Normal termination of Gaussian 16 at Mon Sep 20 14:51:48 2021.
