 Gaussian 16, Revision A.03,
 Gaussian 16:  ES64L-G16RevA.03 25-Dec-2016

 --------------------------------
 #p wB97XD/Def2SVP td=(nstates=5)
 --------------------------------

 --------------------------------
 TDDFT excited states in gaussian
 --------------------------------
 Symbolic Z-matrix:
 Charge =  0 Multiplicity = 1

                         Standard orientation:
 ---------------------------------------------------------------------
 Center     Atomic      Atomic             Coordinates (Angstroms)
 Number     Number       Type             X           Y           Z
 ---------------------------------------------------------------------
      1         12           0       24.820124   -0.873394    0.268483
      2          6           0       24.728856    2.472249   -1.058372
      3          6           0       24.647936    0.531353    3.375070
      4          6           0       25.212061   -3.968279    1.501180
      5          6           0       25.467851   -1.997154   -2.872977
      6          7           0       24.645149    1.359776    1.068477
      7          6           0       24.588085    2.481667    0.293534
      8          6           0       24.273704    3.617427    1.191617
      9          6           0       24.380681    3.043512    2.631599
     10          6           0       24.624370    1.523731    2.423375
     11          6           0       25.558133    3.688785    3.429526
     12          6           0       22.965216    4.320753    0.930953
     13          6           0       22.673172    5.631990    1.642506
     14          1           0       22.209275    6.751277    0.808283
     15          7           0       24.803932   -1.613915    2.144035
     16          6           0       24.821475   -0.846408    3.341287
     17          6           0       24.727133   -1.807736    4.455989
     18          6           0       24.979048   -3.060167    3.902045
     19          6           0       25.072941   -2.907456    2.438823
     20          6           0       24.585560   -1.337277    5.888513
     21          6           0       25.065504   -4.440912    4.587606
     22          8           0       25.515784   -5.464972    4.040550
     23          6           0       24.549941   -4.533430    5.965641
     24          7           0       25.345785   -2.755978   -0.549362
     25          6           0       25.440827   -3.897198    0.101557
     26          6           0       25.825094   -5.096767   -0.807529
     27          6           0       25.646585   -4.470399   -2.192267
     28          6           0       25.432393   -3.011134   -1.861528
     29          6           0       27.291627   -5.576062   -0.539333
     30          6           0       24.541047   -5.030322   -3.058668
     31          6           0       24.873948   -5.251924   -4.544832
     32          7           0       24.956448    0.029603   -1.575882
     33          6           0       25.219373   -0.588236   -2.778965
     34          6           0       25.182103    0.386916   -3.910314
     35          6           0       25.012900    1.557032   -3.197940
     36          6           0       24.933859    1.327601   -1.819024
     37          6           0       25.169668    0.112056   -5.379768
     38          6           0       24.887662    2.994470   -3.389144
     39          8           0       24.862939    3.608454   -4.449860
     40          6           0       24.694033    3.668317   -2.011361
     41          6           0       25.656390    4.738045   -1.940109
     42          8           0       26.888925    4.631242   -1.731370
     43          8           0       25.023529    5.943627   -1.963031
     44          6           0       25.779037    7.131122   -1.628717
     45          1           0       24.507147    0.958792    4.369763
     46          1           0       25.502386   -4.941014    1.903228
     47          1           0       25.907176   -2.418696   -3.779272
     48          1           0       25.101210    4.301804    1.009281
     49          1           0       23.473439    3.207778    3.213260
     50          1           0       25.445757    4.119214    4.425116
     51          1           0       25.899043    4.499586    2.785917
     52          1           0       26.464938    3.085792    3.483618
     53          1           0       22.119619    3.711340    1.250278
     54          1           0       22.715982    4.337661   -0.129675
     55          1           0       23.563445    6.001116    2.149475
     56          1           0       21.768313    5.445940    2.220470
     57          1           0       25.256385   -1.831762    6.590756
     58          1           0       23.576256   -1.431359    6.288696
     59          1           0       24.847568   -0.292333    6.056299
     60          1           0       23.546648   -4.107682    5.986690
     61          1           0       25.246945   -3.901254    6.514665
     62          1           0       24.444870   -5.595922    6.182013
     63          1           0       25.090005   -5.876278   -0.604363
     64          1           0       26.524601   -4.475317   -2.837519
     65          1           0       27.942761   -5.369641   -1.388239
     66          1           0       27.335768   -6.656181   -0.399603
     67          1           0       27.624806   -5.007129    0.328791
     68          1           0       23.637208   -4.424423   -3.003432
     69          1           0       24.168359   -5.880435   -2.488175
     70          1           0       24.236512   -6.065742   -4.889115
     71          1           0       25.941488   -5.373843   -4.730700
     72          1           0       24.592798   -4.286809   -4.965741
     73          1           0       24.181007    0.160478   -5.836553
     74          1           0       25.725056   -0.817606   -5.500439
     75          1           0       25.877753    0.779035   -5.873123
     76          1           0       23.737285    4.183422   -2.096922
     77          1           0       26.791124    6.940556   -1.270703
     78          1           0       25.214680    7.766153   -0.946376
     79          1           0       25.913334    7.785671   -2.490295
     80         12           0      -25.535140   -0.462497   -0.236617
     81          6           0      -23.174556    2.153962   -0.008560
     82          6           0      -27.752539    1.390958    1.587117
     83          6           0      -27.378342   -3.178668    0.071776
     84          6           0      -22.988160   -2.460987   -1.687403
     85          7           0      -25.478406    1.604004    0.577802
     86          6           0      -24.453324    2.431719    0.530221
     87          6           0      -24.946776    3.821222    0.891032
     88          6           0      -26.207034    3.532128    1.794331
     89          6           0      -26.526001    2.067523    1.313317
     90          6           0      -25.880252    3.742358    3.321670
     91          6           0      -25.387276    4.636698   -0.351716
     92          6           0      -25.429946    6.216497   -0.161141
     93          1           0      -25.092311    6.880524    1.176480
     94          7           0      -27.373767   -0.782405    0.504863
     95          6           0      -28.222708    0.127609    1.185531
     96          6           0      -29.508763   -0.555251    1.459165
     97          6           0      -29.358419   -1.937627    1.080671
     98          6           0      -27.999353   -2.065905    0.511390
     99          6           0      -30.703482    0.125135    2.028230
    100          6           0      -30.331553   -3.178687    1.141523
    101          8           0      -30.062431   -4.295508    0.678588
    102          6           0      -31.604776   -3.045630    1.925702
    103          7           0      -25.182674   -2.584307   -0.639551
    104          6           0      -26.114691   -3.485298   -0.476109
    105          6           0      -25.751686   -4.872964   -0.925246
    106          6           0      -24.306846   -4.663065   -1.500298
    107          6           0      -24.157325   -3.114774   -1.360326
    108          6           0      -25.960525   -5.904519    0.187313
    109          6           0      -24.125879   -5.105288   -2.946961
    110          6           0      -22.775528   -5.825505   -3.300582
    111          7           0      -23.464826   -0.253860   -0.852191
    112          6           0      -22.581528   -1.160095   -1.470962
    113          6           0      -21.398531   -0.462471   -1.841627
    114          6           0      -21.479570    0.788221   -1.150249
    115          6           0      -22.742113    0.882827   -0.621941
    116          6           0      -20.348975   -0.960737   -2.793260
    117          6           0      -20.894495    2.122231   -0.873581
    118          8           0      -19.810831    2.576764   -1.176121
    119          6           0      -21.903890    2.908103    0.091464
    120          6           0      -21.819884    4.380883   -0.142971
    121          8           0      -22.065238    4.957595   -1.161240
    122          8           0      -21.304630    5.049632    0.983146
    123          6           0      -20.526586    6.279484    0.723226
    124          1           0      -28.428760    1.837031    2.319956
    125          1           0      -27.959461   -4.099280   -0.005795
    126          1           0      -22.253581   -3.082825   -2.203459
    127          1           0      -24.053300    4.297190    1.294946
    128          1           0      -27.042025    4.185378    1.538818
    129          1           0      -24.837281    4.030810    3.448113
    130          1           0      -25.931443    2.733409    3.730999
    131          1           0      -26.478336    4.508243    3.815606
    132          1           0      -26.398806    4.283718   -0.556618
    133          1           0      -24.726643    4.352204   -1.170619
    134          1           0      -26.442003    6.497111   -0.456800
    135          1           0      -24.770522    6.604737   -0.937750
    136          1           0      -30.710823    1.211940    2.103105
    137          1           0      -30.899986   -0.175396    3.057008
    138          1           0      -31.506402   -0.152596    1.344924
    139          1           0      -32.440129   -2.644088    1.352271
    140          1           0      -31.250509   -2.388690    2.721024
    141          1           0      -31.813224   -4.037266    2.326396
    142          1           0      -26.465957   -5.037702   -1.731851
    143          1           0      -23.525615   -5.159581   -0.926068
    144          1           0      -25.902089   -5.487595    1.193200
    145          1           0      -25.128985   -6.601048    0.087657
    146          1           0      -26.912887   -6.428359    0.102544
    147          1           0      -24.200698   -4.258341   -3.628795
    148          1           0      -25.042773   -5.651065   -3.169017
    149          1           0      -22.073491   -5.788843   -2.467749
    150          1           0      -22.367638   -5.241905   -4.125629
    151          1           0      -22.804497   -6.862320   -3.637269
    152          1           0      -20.122097   -1.971052   -2.452492
    153          1           0      -19.424930   -0.382311   -2.793946
    154          1           0      -20.768619   -1.047916   -3.795963
    155          1           0      -21.524549    2.845480    1.110903
    156          1           0      -21.070424    7.115825    1.162650
    157          1           0      -20.349509    6.441033   -0.340663
    158          1           0      -19.577744    6.129442    1.238224
 ---------------------------------------------------------------------

 SCF Done:  E(RwB97XD) =  -4070.60661790     A.U. after   19 cycles

 Excitation energies and oscillator strengths:

 Excited State   1:      Singlet-A      1.6935 eV  732.14 nm  f=0.3753  <S**2>=0.000
     309 -> 316       -0.20455
     312 -> 314        0.67932
     309 <- 316       -0.12255
 This state for optimization and/or second-order correction.
 Total Energy, E(TD-HF/TD-DFT) =  -4070.54438452
 Copying the excited state density for this state as the 1-particle RhoCI density.

 Excited State   2:      Singlet-A      1.7665 eV  701.85 nm  f=0.3730  <S**2>=0.000
     310 -> 315        0.19139
     311 -> 313        0.67830
     310 <- 315        0.11017

 Excited State   3:      Singlet-A      2.1197 eV  584.92 nm  f=0.0962  <S**2>=0.000
     310 -> 313        0.63987
     311 -> 315       -0.27487

 Excited State   4:      Singlet-A      2.2626 eV  547.96 nm  f=0.0703  <S**2>=0.000
     309 -> 314        0.61590
     312 -> 316        0.33995

 Excited State   5:      Singlet-A      3.2683 eV  379.35 nm  f=0.0031  <S**2>=0.000
     305 -> 313       -0.16731
     307 -> 313        0.15691
     308 -> 313        0.64093
     308 -> 317        0.10642

 The electronic state is 1-A.
 Alpha  occ. eigenvalues --  -46.94878 -46.94829 -19.30392 -19.28478 -19.25432
 Alpha  occ. eigenvalues --  -19.24459 -19.24066 -19.23810 -19.23661 -19.23333
 Alpha  occ. eigenvalues --  -14.46531 -14.46461 -14.46326 -14.45696 -14.44448
 Alpha  occ. eigenvalues --  -14.44379 -14.44178 -14.42574 -10.42984 -10.42373
 Alpha  occ. eigenvalues --  -10.40868 -10.39211 -10.38770 -10.38466 -10.36348
 Alpha  occ. eigenvalues --  -10.35737 -10.34965 -10.34942 -10.34910 -10.34777
 Alpha  occ. eigenvalues --  -10.34659 -10.34593 -10.34593 -10.34572 -10.34547
 Alpha  occ. eigenvalues --  -10.34449 -10.34426 -10.34071 -10.34069 -10.33672
 Alpha  occ. eigenvalues --  -10.33442 -10.33184 -10.32521 -10.32364 -10.32266
 Alpha  occ. eigenvalues --  -10.32183 -10.32156 -10.32126 -10.32022 -10.32003
 Alpha  occ. eigenvalues --  -10.31995 -10.31988 -10.31960 -10.31819 -10.31746
 Alpha  occ. eigenvalues --  -10.31707 -10.31667 -10.31662 -10.31625 -10.31485
 Alpha  occ. eigenvalues --  -10.31419 -10.31401 -10.31243 -10.31099 -10.31018
 Alpha  occ. eigenvalues --  -10.30950 -10.30830 -10.30754 -10.30210 -10.30148
 Alpha  occ. eigenvalues --  -10.30134 -10.30076 -10.29965 -10.29949 -10.29927
 Alpha  occ. eigenvalues --  -10.29832 -10.29826 -10.29825 -10.29754 -10.29727
 Alpha  occ. eigenvalues --  -10.29702 -10.29549 -10.29548 -10.29417 -10.28631
 Alpha  occ. eigenvalues --  -10.28381  -3.20866  -3.20789  -1.94467  -1.94391
 Alpha  occ. eigenvalues --   -1.93984  -1.93911  -1.93848  -1.93750  -1.18297
 Alpha  occ. eigenvalues --   -1.17317  -1.12788  -1.11710  -1.11701  -1.11268
 Alpha  occ. eigenvalues --   -1.09178  -1.08144  -1.07757  -1.07113  -1.06603
 Alpha  occ. eigenvalues --   -1.06521  -1.05075  -1.04222  -1.03666  -1.03087
 Alpha  occ. eigenvalues --   -0.95146  -0.93741  -0.91938  -0.91174  -0.91166
 Alpha  occ. eigenvalues --   -0.90859  -0.90401  -0.89678  -0.89548  -0.89528
 Alpha  occ. eigenvalues --   -0.89189  -0.88996  -0.88564  -0.87324  -0.86614
 Alpha  occ. eigenvalues --   -0.85942  -0.85917  -0.85588  -0.84852  -0.84806
 Alpha  occ. eigenvalues --   -0.84517  -0.83608  -0.83185  -0.82849  -0.82582
 Alpha  occ. eigenvalues --   -0.81810  -0.80628  -0.80621  -0.79634  -0.79360
 Alpha  occ. eigenvalues --   -0.79091  -0.78470  -0.78292  -0.77300  -0.77169
 Alpha  occ. eigenvalues --   -0.77097  -0.74976  -0.74465  -0.73916  -0.73694
 Alpha  occ. eigenvalues --   -0.71755  -0.71443  -0.71213  -0.70613  -0.70027
 Alpha  occ. eigenvalues --   -0.69239  -0.68645  -0.68517  -0.68315  -0.67956
 Alpha  occ. eigenvalues --   -0.67359  -0.67116  -0.67095  -0.66558  -0.66553
 Alpha  occ. eigenvalues --   -0.65449  -0.64522  -0.63025  -0.62379  -0.62275
 Alpha  occ. eigenvalues --   -0.61886  -0.61479  -0.61095  -0.60749  -0.60581
 Alpha  occ. eigenvalues --   -0.60350  -0.60023  -0.59611  -0.59543  -0.58781
 Alpha  occ. eigenvalues --   -0.58474  -0.58460  -0.57684  -0.57509  -0.57409
 Alpha  occ. eigenvalues --   -0.57023  -0.56357  -0.56159  -0.55947  -0.55816
 Alpha  occ. eigenvalues --   -0.55683  -0.55408  -0.55142  -0.55115  -0.55066
 Alpha  occ. eigenvalues --   -0.54869  -0.54763  -0.54145  -0.53932  -0.53897
 Alpha  occ. eigenvalues --   -0.53786  -0.53677  -0.53625  -0.53282  -0.53170
 Alpha  occ. eigenvalues --   -0.53114  -0.52868  -0.52706  -0.52456  -0.52439
 Alpha  occ. eigenvalues --   -0.52207  -0.52076  -0.51945  -0.51849  -0.51571
 Alpha  occ. eigenvalues --   -0.51187  -0.50994  -0.50844  -0.50646  -0.50588
 Alpha  occ. eigenvalues --   -0.50299  -0.50255  -0.50251  -0.49949  -0.49868
 Alpha  occ. eigenvalues --   -0.49760  -0.49746  -0.49482  -0.49282  -0.49234
 Alpha  occ. eigenvalues --   -0.49148  -0.48963  -0.48939  -0.48560  -0.48455
 Alpha  occ. eigenvalues --   -0.48445  -0.48142  -0.48090  -0.47954  -0.47502
 Alpha  occ. eigenvalues --   -0.47500  -0.47352  -0.47077  -0.47000  -0.46960
 Alpha  occ. eigenvalues --   -0.46768  -0.46451  -0.46168  -0.45893  -0.45864
 Alpha  occ. eigenvalues --   -0.45819  -0.45650  -0.45618  -0.45329  -0.45326
 Alpha  occ. eigenvalues --   -0.45053  -0.45021  -0.44718  -0.44540  -0.44450
 Alpha  occ. eigenvalues --   -0.44338  -0.44217  -0.43967  -0.43943  -0.43659
 Alpha  occ. eigenvalues --   -0.43633  -0.43620  -0.43495  -0.43466  -0.43271
 Alpha  occ. eigenvalues --   -0.43200  -0.43067  -0.42964  -0.42907  -0.42754
 Alpha  occ. eigenvalues --   -0.42030  -0.42028  -0.41897  -0.41799  -0.40976
 Alpha  occ. eigenvalues --   -0.40698  -0.40697  -0.39829  -0.39720  -0.39605
 Alpha  occ. eigenvalues --   -0.39210  -0.38383  -0.38002  -0.37900  -0.37679
 Alpha  occ. eigenvalues --   -0.37651  -0.37356  -0.36223  -0.35870  -0.35789
 Alpha  occ. eigenvalues --   -0.35480  -0.35217  -0.35152  -0.33927  -0.33766
 Alpha  occ. eigenvalues --   -0.33416  -0.32978  -0.32743  -0.32519  -0.32518
 Alpha  occ. eigenvalues --   -0.32424  -0.32035  -0.30397  -0.25991  -0.25672
 Alpha  occ. eigenvalues --   -0.23161  -0.22711
 Alpha virt. eigenvalues --   -0.06823  -0.06497  -0.00102   0.00111   0.01881
 Alpha virt. eigenvalues --    0.02800   0.04632   0.04877   0.06030   0.06143
 Alpha virt. eigenvalues --    0.06695   0.06980   0.08104   0.08143   0.08980

 Mulliken charges:
               1
     1  Mg   0.974772
     2  C    0.002856
     3  C   -0.073990
     4  C   -0.058904
     5  C   -0.108690
     6  N   -0.330657
     7  C   -0.063288
     8  C    0.015616
     9  C   -0.121677
    10  C    0.063740
    11  C    0.011239
    12  C    0.011736
    13  C   -0.120014
    14  H    0.035337
    15  N   -0.515835
    16  C    0.189941
    17  C   -0.128788
    18  C   -0.091705
    19  C    0.167158
    20  C    0.036474
    21  C    0.055178
    22  O   -0.254783
    23  C    0.008769
    24  N   -0.326304
    25  C   -0.014185
    26  C   -0.059988
    27  C   -0.104926
    28  C    0.037486
    29  C    0.034238
    30  C    0.005179
    31  C   -0.035267
    32  N   -0.421272
    33  C    0.133264
    34  C   -0.209229
    35  C   -0.008950
    36  C    0.152795
    37  C    0.108925
    38  C    0.073406
    39  O   -0.209165
    40  C   -0.032216
    41  C    0.264716
    42  O   -0.283654
    43  O   -0.351473
    44  C    0.134906
    45  H   -0.012369
    46  H    0.030636
    47  H    0.003606
    48  H    0.033949
    49  H    0.037535
    50  H    0.041015
    51  H    0.017666
    52  H    0.035908
    53  H    0.014298
    54  H    0.025755
    55  H    0.056580
    56  H    0.056732
    57  H    0.040373
    58  H    0.054046
    59  H    0.038989
    60  H    0.053151
    61  H    0.060414
    62  H    0.061904
    63  H    0.043779
    64  H    0.028130
    65  H    0.033562
    66  H    0.048014
    67  H    0.054505
    68  H    0.023095
    69  H    0.008869
    70  H    0.052197
    71  H    0.038531
    72  H    0.041134
    73  H    0.077495
    74  H    0.017117
    75  H    0.049450
    76  H    0.080896
    77  H    0.066813
    78  H    0.047349
    79  H    0.046104
    80  Mg   0.949365
    81  C    0.045961
    82  C   -0.095108
    83  C   -0.065531
    84  C   -0.086062
    85  N   -0.314146
    86  C    0.001026
    87  C   -0.120548
    88  C   -0.103089
    89  C    0.089400
    90  C    0.034992
    91  C   -0.006455
    92  C   -0.094848
    93  H    0.041422
    94  N   -0.554589
    95  C    0.176032
    96  C   -0.150970
    97  C   -0.082875
    98  C    0.208077
    99  C    0.035120
   100  C    0.082103
   101  O   -0.237319
   102  C   -0.013262
   103  N   -0.304479
   104  C   -0.029785
   105  C   -0.047699
   106  C   -0.103719
   107  C    0.058408
   108  C    0.030160
   109  C   -0.003883
   110  C   -0.057111
   111  N   -0.438048
   112  C    0.134132
   113  C   -0.193226
   114  C   -0.035337
   115  C    0.077240
   116  C    0.080549
   117  C    0.135366
   118  O   -0.202640
   119  C   -0.093329
   120  C    0.220864
   121  O   -0.208193
   122  O   -0.410319
   123  C    0.136754
   124  H    0.001484
   125  H    0.012933
   126  H   -0.022051
   127  H    0.031989
   128  H    0.036192
   129  H    0.038416
   130  H    0.032946
   131  H    0.048373
   132  H    0.023420
   133  H    0.054535
   134  H    0.041802
   135  H    0.065420
   136  H    0.042999
   137  H    0.065255
   138  H    0.060763
   139  H    0.080029
   140  H    0.041633
   141  H    0.065183
   142  H    0.042249
   143  H    0.040179
   144  H    0.046665
   145  H    0.033115
   146  H    0.056298
   147  H    0.030815
   148  H    0.022377
   149  H    0.035953
   150  H    0.038524
   151  H    0.045678
   152  H    0.035928
   153  H    0.058400
   154  H    0.050945
   155  H    0.080243
   156  H    0.051959
   157  H    0.069259
   158  H    0.055689
 Sum of Mulliken charges =  -0.00000

 Dipole moment (field-independent basis, Debye):
    X=             -7.8652    Y=             -2.7359    Z=              6.0132  Tot=             10.2716
 Quadrupole moment (field-independent basis, Debye-Ang):
   XX=           -372.2572   YY=           -495.2420   ZZ=           -492.8536
   XY=             -4.0630   XZ=             24.4570   YZ=             52.7322

 Normal termination of Gaussian 16 at Mon Sep 20 02:12:23 2021.
