 Gaussian 16, Revision A.03,
 Gaussian 16:  ES64L-G16RevA.03 25-Dec-2016

 --------------------------------
 #p wB97XD/Def2SVP td=(nstates=5)
 --------------------------------

 --------------------------------
 TDDFT excited states in gaussian
 --------------------------------
 Symbolic Z-matrix:
 Charge =  0 Multiplicity = 1

                         Standard orientation:
 ---------------------------------------------------------------------
 Center     Atomic      Atomic             Coordinates (Angstroms)
 Number     Number       Type             X           Y           Z
 ---------------------------------------------------------------------
      1         12           0        0.828030    0.048004   -0.229736
      2          6           0       -2.766931    0.236156   -0.174486
      3          6           0        0.488511   -3.343027   -0.031033
      4          6           0        4.169427   -0.098941    0.025102
      5          6           0        0.912486    3.433046    0.062697
      6          7           0       -1.035705   -1.428429   -0.164230
      7          6           0       -2.348357   -1.056791   -0.199777
      8          6           0       -3.148936   -2.294587   -0.349018
      9          6           0       -2.138858   -3.460992   -0.165684
     10          6           0       -0.756822   -2.760358   -0.058159
     11          6           0       -2.438811   -4.294081    1.120958
     12          6           0       -3.958271   -2.406836   -1.616745
     13          6           0       -4.983692   -3.521623   -1.745988
     14          1           0       -6.331671   -3.135707   -2.190903
     15          7           0        2.129852   -1.489655   -0.144921
     16          6           0        1.788966   -2.859009    0.032427
     17          6           0        3.051816   -3.617536   -0.041468
     18          6           0        4.070353   -2.674139    0.065707
     19          6           0        3.460516   -1.332154    0.047538
     20          6           0        3.060110   -5.131856   -0.025262
     21          6           0        5.600530   -2.876847    0.102995
     22          8           0        6.414398   -1.991188    0.425407
     23          6           0        6.106634   -4.201447   -0.300289
     24          7           0        2.370571    1.467433    0.078649
     25          6           0        3.663445    1.222844    0.139994
     26          6           0        4.524077    2.498415    0.352824
     27          6           0        3.478815    3.588716    0.107117
     28          6           0        2.194712    2.794654    0.034552
     29          6           0        5.131195    2.549479    1.795451
     30          6           0        3.679366    4.467017   -1.107274
     31          6           0        3.427271    5.973511   -0.918754
     32          7           0       -0.611934    1.517597   -0.180065
     33          6           0       -0.401564    2.874576   -0.067742
     34          6           0       -1.688904    3.630714   -0.124936
     35          6           0       -2.574902    2.572431   -0.142939
     36          6           0       -1.918871    1.335694   -0.123022
     37          6           0       -1.901183    5.102178   -0.282190
     38          6           0       -4.001805    2.286892   -0.172762
     39          8           0       -4.924245    3.091488   -0.239357
     40          6           0       -4.205879    0.754702   -0.197218
     41          6           0       -5.150536    0.450937    0.847232
     42          8           0       -4.925656    0.416319    2.081069
     43          8           0       -6.327504    0.026712    0.309416
     44          6           0       -7.308656   -0.583896    1.179588
     45          1           0        0.396988   -4.430697   -0.054228
     46          1           0        5.232039   -0.141459    0.272475
     47          1           0        1.040576    4.466629    0.390375
     48          1           0       -3.816693   -2.251814    0.510434
     49          1           0       -2.149368   -4.156128   -1.005373
     50          1           0       -2.531564   -5.380573    1.126296
     51          1           0       -3.396672   -3.906794    1.467887
     52          1           0       -1.809223   -4.060500    1.979959
     53          1           0       -3.318287   -2.604338   -2.476861
     54          1           0       -4.326231   -1.437660   -1.952358
     55          1           0       -5.129067   -4.023224   -0.790414
     56          1           0       -4.663895   -4.102663   -2.610597
     57          1           0        3.784234   -5.568506    0.662232
     58          1           0        3.231022   -5.585066   -1.001522
     59          1           0        2.137587   -5.591975    0.329634
     60          1           0        5.664383   -4.460144   -1.262470
     61          1           0        5.717013   -4.845761    0.487076
     62          1           0        7.176312   -4.081807   -0.468277
     63          1           0        5.292773    2.475608   -0.420387
     64          1           0        3.316827    4.290590    0.924687
     65          1           0        4.693453    3.353206    2.386747
     66          1           0        6.199826    2.762545    1.767889
     67          1           0        4.887053    1.586100    2.243366
     68          1           0        3.082262    4.129698   -1.953898
     69          1           0        4.649478    4.157769   -1.494957
     70          1           0        4.057187    6.488127   -1.643688
     71          1           0        3.532168    6.298676    0.116774
     72          1           0        2.366235    6.037180   -1.159186
     73          1           0       -2.139216    5.414630   -1.299128
     74          1           0       -1.034890    5.566850    0.187816
     75          1           0       -2.657829    5.431359    0.431091
     76          1           0       -4.764734    0.573282   -1.115254
     77          1           0       -6.966788   -0.755951    2.200536
     78          1           0       -7.716354   -1.486524    0.725277
     79          1           0       -8.198210    0.036666    1.290867
 ---------------------------------------------------------------------

 SCF Done:  E(RwB97XD) =  -2035.31316046     A.U. after   20 cycles

 Excitation energies and oscillator strengths:

 Excited State   1:      Singlet-A      1.6935 eV  732.13 nm  f=0.3758  <S**2>=0.000
     155 ->158         0.20463
     156 ->157         0.67930
     155 <-158         0.12257
 This state for optimization and/or second-order correction.
 Total Energy, E(TD-HF/TD-DFT) =  -2035.25092644
 Copying the excited state density for this state as the 1-particle RhoCI density.

 Excited State   2:      Singlet-A      2.2627 eV  547.96 nm  f=0.0703  <S**2>=0.000
     155 ->157         0.61586
     156 ->158        -0.33997

 Excited State   3:      Singlet-A      3.5416 eV  350.08 nm  f=0.6864  <S**2>=0.000
     152 ->157         0.20273
     153 ->157        -0.16474
     155 ->157         0.29906
     156 ->158         0.57415
     155 <-157        -0.11187

 Excited State   4:      Singlet-A      3.5872 eV  345.63 nm  f=0.0297  <S**2>=0.000
     153 ->157         0.44745
     153 ->159         0.29560
     153 ->160        -0.22024
     154 ->157        -0.30729
     154 ->159        -0.12718
     156 ->158         0.11477

 Excited State   5:      Singlet-A      3.7133 eV  333.89 nm  f=0.0416  <S**2>=0.000
     153 ->157         0.32586
     154 ->157         0.58363

 The electronic state is 1-A.
 Alpha  occ. eigenvalues --  -46.94852 -19.30417 -19.24088 -19.23833 -19.23685
 Alpha  occ. eigenvalues --  -14.46486 -14.45721 -14.44401 -14.44200 -10.43008
 Alpha  occ. eigenvalues --  -10.39234 -10.38491 -10.34966 -10.34802 -10.34616
 Alpha  occ. eigenvalues --  -10.34596 -10.34570 -10.34472 -10.34449 -10.34095
 Alpha  occ. eigenvalues --  -10.33208 -10.32548 -10.32387 -10.32181 -10.32150
 Alpha  occ. eigenvalues --  -10.32045 -10.32027 -10.31731 -10.31507 -10.31442
 Alpha  occ. eigenvalues --  -10.31268 -10.31122 -10.31041 -10.30974 -10.30236
 Alpha  occ. eigenvalues --  -10.30100 -10.29972 -10.29855 -10.29849 -10.29847
 Alpha  occ. eigenvalues --  -10.29777 -10.29573 -10.28655  -3.20889  -1.94490
 Alpha  occ. eigenvalues --   -1.94007  -1.93870  -1.18321  -1.11726  -1.11290
 Alpha  occ. eigenvalues --   -1.08168  -1.07780  -1.06627  -1.05099  -1.04245
 Alpha  occ. eigenvalues --   -0.95170  -0.91961  -0.91199  -0.90425  -0.89551
 Alpha  occ. eigenvalues --   -0.89019  -0.88588  -0.86638  -0.85965  -0.84830
 Alpha  occ. eigenvalues --   -0.84540  -0.83208  -0.82873  -0.80644  -0.79657
 Alpha  occ. eigenvalues --   -0.79384  -0.78494  -0.77192  -0.74999  -0.73939
 Alpha  occ. eigenvalues --   -0.71466  -0.71237  -0.70051  -0.68541  -0.68339
 Alpha  occ. eigenvalues --   -0.67383  -0.67119  -0.66577  -0.64546  -0.62402
 Alpha  occ. eigenvalues --   -0.61910  -0.61503  -0.60772  -0.60374  -0.59635
 Alpha  occ. eigenvalues --   -0.58483  -0.57708  -0.57532  -0.56381  -0.55972
 Alpha  occ. eigenvalues --   -0.55839  -0.55430  -0.55138  -0.54893  -0.53921
 Alpha  occ. eigenvalues --   -0.53810  -0.53649  -0.53138  -0.52729  -0.52462
 Alpha  occ. eigenvalues --   -0.52231  -0.51874  -0.51595  -0.51017  -0.50612
 Alpha  occ. eigenvalues --   -0.50322  -0.50278  -0.49891  -0.49770  -0.49305
 Alpha  occ. eigenvalues --   -0.49172  -0.48987  -0.48479  -0.48167  -0.47977
 Alpha  occ. eigenvalues --   -0.47523  -0.47101  -0.47023  -0.46474  -0.45887
 Alpha  occ. eigenvalues --   -0.45843  -0.45641  -0.45349  -0.45076  -0.44474
 Alpha  occ. eigenvalues --   -0.44362  -0.43991  -0.43683  -0.43657  -0.43518
 Alpha  occ. eigenvalues --   -0.43223  -0.42988  -0.42777  -0.42055  -0.41822
 Alpha  occ. eigenvalues --   -0.40721  -0.39852  -0.39233  -0.38028  -0.37924
 Alpha  occ. eigenvalues --   -0.37676  -0.35894  -0.35504  -0.35176  -0.33790
 Alpha  occ. eigenvalues --   -0.33000  -0.32767  -0.32543  -0.32448  -0.26015
 Alpha  occ. eigenvalues --   -0.22735
 Alpha virt. eigenvalues --   -0.06520   0.00088   0.02777   0.04609   0.06119
 Alpha virt. eigenvalues --    0.06671   0.08119   0.08955   0.09758   0.10290
 Alpha virt. eigenvalues --    0.11501   0.12322   0.12847   0.13414   0.13964

 Mulliken charges:
               1
     1  Mg   0.974734
     2  C    0.002965
     3  C   -0.074115
     4  C   -0.058875
     5  C   -0.108699
     6  N   -0.330681
     7  C   -0.063357
     8  C    0.015596
     9  C   -0.121730
    10  C    0.063927
    11  C    0.011240
    12  C    0.011755
    13  C   -0.119985
    14  H    0.035313
    15  N   -0.515932
    16  C    0.190035
    17  C   -0.128851
    18  C   -0.091685
    19  C    0.167177
    20  C    0.036528
    21  C    0.055260
    22  O   -0.254778
    23  C    0.008620
    24  N   -0.326357
    25  C   -0.014093
    26  C   -0.060039
    27  C   -0.104855
    28  C    0.037554
    29  C    0.034216
    30  C    0.005168
    31  C   -0.035300
    32  N   -0.421123
    33  C    0.133059
    34  C   -0.209140
    35  C   -0.009075
    36  C    0.152656
    37  C    0.108971
    38  C    0.073391
    39  O   -0.209180
    40  C   -0.032063
    41  C    0.264673
    42  O   -0.283637
    43  O   -0.351463
    44  C    0.134868
    45  H   -0.012379
    46  H    0.030632
    47  H    0.003626
    48  H    0.033955
    49  H    0.037518
    50  H    0.041022
    51  H    0.017670
    52  H    0.035929
    53  H    0.014278
    54  H    0.025729
    55  H    0.056593
    56  H    0.056705
    57  H    0.040373
    58  H    0.054020
    59  H    0.039015
    60  H    0.053168
    61  H    0.060467
    62  H    0.061927
    63  H    0.043780
    64  H    0.028146
    65  H    0.033579
    66  H    0.048028
    67  H    0.054517
    68  H    0.023075
    69  H    0.008870
    70  H    0.052197
    71  H    0.038554
    72  H    0.041148
    73  H    0.077469
    74  H    0.017110
    75  H    0.049457
    76  H    0.080827
    77  H    0.066852
    78  H    0.047336
    79  H    0.046108
 Sum of Mulliken charges =  -0.00000

 Dipole moment (field-independent basis, Debye):
    X=              2.0086    Y=             -3.4288    Z=             -2.3226  Tot=              4.6028
 Quadrupole moment (field-independent basis, Debye-Ang):
   XX=           -270.4524   YY=           -222.9838   ZZ=           -258.0529
   XY=             26.0574   XZ=             -0.9723   YZ=              1.2798

 Normal termination of Gaussian 16 at Mon Sep 20 04:40:28 2021.
