 Gaussian 16, Revision A.03,
 Gaussian 16:  ES64L-G16RevA.03 25-Dec-2016

 --------------------------------
 #p wB97XD/Def2SVP td=(nstates=5)
 --------------------------------

 --------------------------------
 TDDFT excited states in gaussian
 --------------------------------
 Symbolic Z-matrix:
 Charge =  0 Multiplicity = 1

                         Standard orientation:
 ---------------------------------------------------------------------
 Center     Atomic      Atomic             Coordinates (Angstroms)
 Number     Number       Type             X           Y           Z
 ---------------------------------------------------------------------
      1         12           0       21.854717   -0.525771    0.208465
      2          6           0       18.450040   -1.567220    0.182103
      3          6           0       22.131506   -1.432709   -3.082978
      4          6           0       24.748253    1.427428   -0.035498
      5          6           0       21.321506    0.907225    3.372430
      6          7           0       20.242732   -1.197793   -1.341299
      7          6           0       19.053067   -1.765662   -1.084457
      8          6           0       18.669729   -2.673121   -2.239071
      9          6           0       19.825824   -2.588454   -3.347769
     10          6           0       20.875857   -1.777302   -2.432329
     11          6           0       20.282941   -4.021755   -3.700570
     12          6           0       17.309787   -2.290224   -2.800349
     13          6           0       16.982536   -0.779591   -2.868781
     14          1           0       16.987571   -0.124400   -4.276965
     15          7           0       23.329427   -0.123252   -1.346224
     16          6           0       23.194291   -0.610339   -2.628087
     17          6           0       24.417437   -0.290756   -3.294986
     18          6           0       25.195521    0.629583   -2.494239
     19          6           0       24.476535    0.663707   -1.195520
     20          6           0       24.680475   -0.662516   -4.735928
     21          6           0       26.385574    1.483692   -2.934315
     22          8           0       26.758323    1.457738   -4.091421
     23          6           0       27.103869    2.351952   -2.050255
     24          7           0       22.843640    1.034990    1.434441
     25          6           0       24.044516    1.529688    1.172961
     26          6           0       24.539583    2.502231    2.231068
     27          6           0       23.238162    2.590703    3.138859
     28          6           0       22.435903    1.422459    2.691335
     29          6           0       25.836205    1.990211    3.029111
     30          6           0       22.544722    4.021950    2.984308
     31          6           0       22.535973    4.993263    4.130602
     32          7           0       20.388144   -0.553323    1.582444
     33          6           0       20.356804   -0.028331    2.890456
     34          6           0       19.119141   -0.432163    3.583382
     35          6           0       18.406833   -1.038539    2.548838
     36          6           0       19.122195   -1.003919    1.301101
     37          6           0       18.743003   -0.325299    5.101626
     38          6           0       17.118027   -1.679236    2.268011
     39          8           0       16.131087   -1.947063    2.973080
     40          6           0       17.087135   -2.063466    0.751890
     41          6           0       15.950242   -1.212802    0.301029
     42          8           0       15.894214   -0.014212    0.404159
     43          8           0       14.945881   -1.978076   -0.116501
     44          6           0       13.718976   -1.332017   -0.700661
     45          1           0       22.324449   -1.977325   -4.009436
     46          1           0       25.656538    2.026671    0.053927
     47          1           0       21.217804    1.484370    4.294204
     48          1           0       18.613768   -3.611776   -1.687754
     49          1           0       19.515136   -2.036348   -4.235160
     50          1           0       20.112046   -4.179167   -4.765331
     51          1           0       19.733179   -4.811490   -3.187885
     52          1           0       21.354335   -4.047736   -3.503539
     53          1           0       16.525583   -2.755930   -2.203426
     54          1           0       17.214419   -2.625689   -3.833459
     55          1           0       17.681616   -0.087386   -2.399687
     56          1           0       15.995410   -0.696809   -2.413850
     57          1           0       23.821207   -1.155739   -5.191059
     58          1           0       25.607707   -1.235896   -4.763372
     59          1           0       24.951455    0.252962   -5.260660
     60          1           0       26.529939    3.184938   -1.643683
     61          1           0       27.951292    2.784754   -2.581568
     62          1           0       27.381259    1.684225   -1.233879
     63          1           0       24.698818    3.515580    1.863334
     64          1           0       23.680410    2.611473    4.135057
     65          1           0       26.172077    1.042702    2.606771
     66          1           0       25.526419    1.802559    4.057353
     67          1           0       26.666680    2.694739    3.095694
     68          1           0       21.469520    3.925131    2.833309
     69          1           0       22.958780    4.566967    2.137117
     70          1           0       21.589528    5.031262    4.670011
     71          1           0       22.695561    5.920489    3.579268
     72          1           0       23.421802    4.962041    4.765194
     73          1           0       18.488743    0.714414    5.305839
     74          1           0       19.592404   -0.706937    5.668406
     75          1           0       17.832964   -0.900768    5.270256
     76          1           0       16.933029   -3.142678    0.720218
     77          1           0       12.998022   -1.029417    0.059127
     78          1           0       13.209564   -2.006085   -1.390507
     79          1           0       14.097878   -0.475770   -1.258643
     80         12           0      -20.652572    0.741759   -0.515257
     81          6           0      -21.574845   -2.687538   -0.026448
     82          6           0      -17.687854    0.071871    0.727031
     83          6           0      -20.291896    4.028650   -0.290104
     84          6           0      -24.153665    1.276388   -1.507857
     85          7           0      -19.734841   -1.118364    0.215494
     86          6           0      -20.276025   -2.410337    0.368696
     87          6           0      -19.266176   -3.454535    0.978609
     88          6           0      -17.965083   -2.452429    1.135355
     89          6           0      -18.441112   -1.082009    0.663817
     90          6           0      -17.437382   -2.378932    2.632214
     91          6           0      -19.029653   -4.752460    0.130432
     92          6           0      -17.783590   -5.556171    0.482610
     93          1           0      -18.063551   -6.946070    1.082931
     94          7           0      -19.141179    1.888122    0.042397
     95          6           0      -17.920877    1.483246    0.530100
     96          6           0      -17.032017    2.596756    0.786743
     97          6           0      -17.833322    3.761849    0.461025
     98          6           0      -19.151535    3.221710   -0.028429
     99          6           0      -15.638157    2.524237    1.201803
    100          6           0      -17.476403    5.237293    0.511537
    101          8           0      -18.185004    6.114601    0.104188
    102          6           0      -16.176102    5.546814    1.204619
    103          7           0      -22.052932    2.424793   -0.791873
    104          6           0      -21.599904    3.696984   -0.659968
    105          6           0      -22.702105    4.721569   -1.040084
    106          6           0      -23.860796    3.794507   -1.547554
    107          6           0      -23.317910    2.396639   -1.321216
    108          6           0      -23.181613    5.733036    0.056093
    109          6           0      -24.290015    3.980826   -3.045646
    110          6           0      -25.173576    5.226287   -3.278779
    111          7           0      -22.499570   -0.374993   -0.720763
    112          6           0      -23.755258   -0.059046   -1.185985
    113          6           0      -24.522099   -1.237782   -1.271530
    114          6           0      -23.788946   -2.261381   -0.800070
    115          6           0      -22.523081   -1.712189   -0.432955
    116          6           0      -25.914829   -1.230150   -1.888117
    117          6           0      -23.706555   -3.679780   -0.437258
    118          8           0      -24.529133   -4.555866   -0.511096
    119          6           0      -22.231208   -3.984093    0.110152
    120          6           0      -22.353528   -4.282163    1.570479
    121          8           0      -22.363423   -3.561521    2.542905
    122          8           0      -22.414951   -5.659783    1.641320
    123          6           0      -22.520744   -6.260568    2.992286
    124          1           0      -16.698474   -0.040920    1.174942
    125          1           0      -20.159700    5.086870   -0.052210
    126          1           0      -25.116289    1.586313   -1.921124
    127          1           0      -19.597183   -3.680048    1.992489
    128          1           0      -17.152675   -2.864205    0.536122
    129          1           0      -16.349316   -2.441923    2.634524
    130          1           0      -17.829793   -3.080916    3.367483
    131          1           0      -17.609974   -1.385029    3.043950
    132          1           0      -19.038026   -4.321396   -0.871522
    133          1           0      -19.838130   -5.480382    0.059179
    134          1           0      -17.190914   -4.994390    1.204029
    135          1           0      -17.260009   -5.806902   -0.439526
    136          1           0      -15.168291    2.940447    0.310710
    137          1           0      -15.350745    1.499648    1.438337
    138          1           0      -15.323943    3.132910    2.049433
    139          1           0      -15.378561    5.605162    0.464048
    140          1           0      -16.059560    5.039965    2.162984
    141          1           0      -16.390038    6.489367    1.707744
    142          1           0      -22.359703    5.167364   -1.974439
    143          1           0      -24.695078    3.856860   -0.848498
    144          1           0      -24.242007    5.705397    0.308566
    145          1           0      -23.075823    6.716925   -0.400388
    146          1           0      -22.653481    5.676079    1.007892
    147          1           0      -24.872603    3.116597   -3.362733
    148          1           0      -23.353027    3.998505   -3.604017
    149          1           0      -25.650527    5.534159   -2.348075
    150          1           0      -25.883425    4.944484   -4.056380
    151          1           0      -24.622426    6.112141   -3.595781
    152          1           0      -26.166950   -2.205441   -2.304608
    153          1           0      -25.959620   -0.443934   -2.641816
    154          1           0      -26.652799   -0.906542   -1.153767
    155          1           0      -21.756487   -4.797139   -0.439630
    156          1           0      -23.222848   -7.087666    2.887868
    157          1           0      -22.873249   -5.574736    3.762517
    158          1           0      -21.487179   -6.583765    3.120149
 ---------------------------------------------------------------------

 SCF Done:  E(RwB97XD) =  -4070.57948157     A.U. after   19 cycles

 Excitation energies and oscillator strengths:

 Excited State   1:      Singlet-A      1.6285 eV  761.34 nm  f=0.3781  <S**2>=0.000
     309 -> 315        0.20633
     311 -> 313        0.67675
     309 <- 315        0.12490
 This state for optimization and/or second-order correction.
 Total Energy, E(TD-HF/TD-DFT) =  -4070.51963523
 Copying the excited state density for this state as the 1-particle RhoCI density.

 Excited State   2:      Singlet-A      1.6368 eV  757.49 nm  f=0.3712  <S**2>=0.000
     310 -> 316        0.18347
     312 -> 314        0.68238
     310 <- 316        0.11711

 Excited State   3:      Singlet-A      2.1415 eV  578.96 nm  f=0.0704  <S**2>=0.000
     309 -> 313        0.61692
     311 -> 315       -0.33158

 Excited State   4:      Singlet-A      2.1545 eV  575.46 nm  f=0.1352  <S**2>=0.000
     310 -> 314        0.64886
     312 -> 316       -0.26858

 Excited State   5:      Singlet-A      3.1854 eV  389.23 nm  f=0.0153  <S**2>=0.000
     308 -> 313        0.65685
     308 -> 317        0.10733
     311 -> 315        0.20204

 The electronic state is 1-A.
 Alpha  occ. eigenvalues --  -46.96575 -46.94891 -19.30328 -19.29076 -19.24838
 Alpha  occ. eigenvalues --  -19.24158 -19.23959 -19.23939 -19.23826 -19.23115
 Alpha  occ. eigenvalues --  -14.47045 -14.46810 -14.46593 -14.45892 -14.44778
 Alpha  occ. eigenvalues --  -14.44207 -14.44182 -14.43444 -10.42807 -10.42602
 Alpha  occ. eigenvalues --  -10.39292 -10.39033 -10.38712 -10.38291 -10.36262
 Alpha  occ. eigenvalues --  -10.36144 -10.35428 -10.35042 -10.35039 -10.34955
 Alpha  occ. eigenvalues --  -10.34928 -10.34876 -10.34757 -10.34747 -10.34373
 Alpha  occ. eigenvalues --  -10.34230 -10.34130 -10.34101 -10.33996 -10.33943
 Alpha  occ. eigenvalues --  -10.33346 -10.33101 -10.33032 -10.32976 -10.32966
 Alpha  occ. eigenvalues --  -10.32935 -10.32898 -10.32839 -10.32506 -10.32470
 Alpha  occ. eigenvalues --  -10.32416 -10.32252 -10.32245 -10.32226 -10.31930
 Alpha  occ. eigenvalues --  -10.31795 -10.31752 -10.31688 -10.31498 -10.31173
 Alpha  occ. eigenvalues --  -10.31134 -10.31034 -10.31019 -10.30914 -10.30895
 Alpha  occ. eigenvalues --  -10.30878 -10.30849 -10.30841 -10.30837 -10.30776
 Alpha  occ. eigenvalues --  -10.30706 -10.30643 -10.30577 -10.30366 -10.30108
 Alpha  occ. eigenvalues --  -10.30027 -10.29853 -10.29722 -10.29586 -10.29579
 Alpha  occ. eigenvalues --  -10.29528 -10.29470 -10.29373 -10.29344 -10.29015
 Alpha  occ. eigenvalues --  -10.28740  -3.22369  -3.20881  -1.95913  -1.95516
 Alpha  occ. eigenvalues --   -1.95301  -1.94467  -1.93982  -1.93870  -1.19268
 Alpha  occ. eigenvalues --   -1.17847  -1.13574  -1.13038  -1.12453  -1.11071
 Alpha  occ. eigenvalues --   -1.09935  -1.09654  -1.06626  -1.05811  -1.05705
 Alpha  occ. eigenvalues --   -1.05331  -1.04489  -1.04458  -1.03689  -1.03604
 Alpha  occ. eigenvalues --   -0.94992  -0.93951  -0.90861  -0.90819  -0.90709
 Alpha  occ. eigenvalues --   -0.90193  -0.90131  -0.89959  -0.89087  -0.89053
 Alpha  occ. eigenvalues --   -0.88753  -0.88100  -0.87964  -0.87362  -0.86629
 Alpha  occ. eigenvalues --   -0.85947  -0.85812  -0.85075  -0.84810  -0.84558
 Alpha  occ. eigenvalues --   -0.84060  -0.83951  -0.83086  -0.82650  -0.82240
 Alpha  occ. eigenvalues --   -0.82030  -0.80069  -0.79869  -0.79322  -0.78875
 Alpha  occ. eigenvalues --   -0.78558  -0.78366  -0.78241  -0.77463  -0.76944
 Alpha  occ. eigenvalues --   -0.76750  -0.74878  -0.74751  -0.73747  -0.73269
 Alpha  occ. eigenvalues --   -0.71559  -0.70883  -0.70660  -0.70475  -0.70125
 Alpha  occ. eigenvalues --   -0.69716  -0.68956  -0.68718  -0.67520  -0.67187
 Alpha  occ. eigenvalues --   -0.66998  -0.66805  -0.66558  -0.66345  -0.66060
 Alpha  occ. eigenvalues --   -0.65886  -0.64451  -0.63458  -0.62277  -0.62063
 Alpha  occ. eigenvalues --   -0.61458  -0.61285  -0.61034  -0.60797  -0.60670
 Alpha  occ. eigenvalues --   -0.60253  -0.59845  -0.59819  -0.59282  -0.58892
 Alpha  occ. eigenvalues --   -0.58252  -0.58086  -0.57848  -0.57659  -0.57001
 Alpha  occ. eigenvalues --   -0.56977  -0.56907  -0.56507  -0.56365  -0.56189
 Alpha  occ. eigenvalues --   -0.56048  -0.55844  -0.55602  -0.55419  -0.55043
 Alpha  occ. eigenvalues --   -0.54610  -0.54607  -0.54486  -0.54298  -0.53995
 Alpha  occ. eigenvalues --   -0.53886  -0.53712  -0.53551  -0.53486  -0.53276
 Alpha  occ. eigenvalues --   -0.52928  -0.52634  -0.52441  -0.52097  -0.52091
 Alpha  occ. eigenvalues --   -0.51765  -0.51717  -0.51648  -0.51606  -0.51418
 Alpha  occ. eigenvalues --   -0.51408  -0.51196  -0.51055  -0.50953  -0.50757
 Alpha  occ. eigenvalues --   -0.50507  -0.50334  -0.50213  -0.49907  -0.49740
 Alpha  occ. eigenvalues --   -0.49732  -0.49653  -0.49258  -0.48958  -0.48939
 Alpha  occ. eigenvalues --   -0.48865  -0.48668  -0.48563  -0.48277  -0.48231
 Alpha  occ. eigenvalues --   -0.47819  -0.47770  -0.47659  -0.47576  -0.47350
 Alpha  occ. eigenvalues --   -0.47266  -0.47209  -0.47118  -0.47107  -0.47063
 Alpha  occ. eigenvalues --   -0.46955  -0.46829  -0.46774  -0.46645  -0.46293
 Alpha  occ. eigenvalues --   -0.45952  -0.45946  -0.45770  -0.45632  -0.45524
 Alpha  occ. eigenvalues --   -0.45451  -0.45158  -0.45093  -0.44888  -0.44670
 Alpha  occ. eigenvalues --   -0.44470  -0.44369  -0.43998  -0.43986  -0.43788
 Alpha  occ. eigenvalues --   -0.43574  -0.43479  -0.43379  -0.43287  -0.43039
 Alpha  occ. eigenvalues --   -0.42804  -0.42802  -0.42686  -0.42387  -0.42022
 Alpha  occ. eigenvalues --   -0.41992  -0.41752  -0.41215  -0.40697  -0.40571
 Alpha  occ. eigenvalues --   -0.39982  -0.39932  -0.39668  -0.39414  -0.39168
 Alpha  occ. eigenvalues --   -0.38986  -0.38875  -0.38503  -0.38449  -0.38364
 Alpha  occ. eigenvalues --   -0.37728  -0.37714  -0.36560  -0.36224  -0.36114
 Alpha  occ. eigenvalues --   -0.35921  -0.35642  -0.34863  -0.33621  -0.33468
 Alpha  occ. eigenvalues --   -0.32826  -0.32787  -0.32631  -0.32567  -0.32412
 Alpha  occ. eigenvalues --   -0.32284  -0.31916  -0.31146  -0.26228  -0.25494
 Alpha  occ. eigenvalues --   -0.23147  -0.22756
 Alpha virt. eigenvalues --   -0.07148  -0.06884  -0.00690   0.00807   0.02319
 Alpha virt. eigenvalues --    0.02947   0.04114   0.04550   0.04733   0.05662
 Alpha virt. eigenvalues --    0.07151   0.07501   0.07564   0.08147   0.08829

 Mulliken charges:
               1
     1  Mg   0.941989
     2  C   -0.038201
     3  C   -0.073559
     4  C   -0.078368
     5  C   -0.055681
     6  N   -0.320142
     7  C   -0.052951
     8  C   -0.003045
     9  C   -0.147413
    10  C    0.056924
    11  C    0.022584
    12  C   -0.011593
    13  C   -0.138038
    14  H    0.013804
    15  N   -0.462297
    16  C    0.168094
    17  C   -0.175031
    18  C   -0.086692
    19  C    0.201816
    20  C    0.084839
    21  C    0.035892
    22  O   -0.235978
    23  C    0.005269
    24  N   -0.322750
    25  C    0.047410
    26  C   -0.151780
    27  C   -0.062363
    28  C    0.046737
    29  C    0.017243
    30  C   -0.028946
    31  C   -0.050499
    32  N   -0.501141
    33  C    0.150882
    34  C   -0.184757
    35  C   -0.035132
    36  C    0.186945
    37  C    0.087875
    38  C    0.097772
    39  O   -0.231152
    40  C   -0.050513
    41  C    0.238248
    42  O   -0.235929
    43  O   -0.346809
    44  C    0.130828
    45  H    0.013658
    46  H   -0.019933
    47  H    0.003340
    48  H    0.035232
    49  H    0.061574
    50  H    0.033389
    51  H    0.044474
    52  H    0.040397
    53  H    0.041141
    54  H    0.041295
    55  H    0.087255
    56  H    0.047435
    57  H    0.029805
    58  H    0.048576
    59  H    0.062076
    60  H    0.066391
    61  H    0.056758
    62  H    0.054702
    63  H    0.040413
    64  H    0.018099
    65  H    0.043579
    66  H    0.031217
    67  H    0.046368
    68  H    0.037473
    69  H    0.032168
    70  H    0.053201
    71  H    0.028107
    72  H    0.026668
    73  H    0.054273
    74  H    0.056641
    75  H    0.062998
    76  H    0.067919
    77  H    0.072720
    78  H    0.059114
    79  H    0.067084
    80  Mg   0.977028
    81  C   -0.038686
    82  C   -0.072009
    83  C   -0.068600
    84  C   -0.096292
    85  N   -0.383119
    86  C   -0.009836
    87  C   -0.026868
    88  C   -0.121316
    89  C    0.109440
    90  C   -0.013746
    91  C   -0.019319
    92  C   -0.123104
    93  H    0.029463
    94  N   -0.491589
    95  C    0.111831
    96  C   -0.136074
    97  C   -0.128098
    98  C    0.164662
    99  C    0.081512
   100  C    0.041172
   101  O   -0.208213
   102  C   -0.027543
   103  N   -0.338827
   104  C    0.031347
   105  C   -0.031756
   106  C   -0.109784
   107  C    0.026709
   108  C    0.019873
   109  C   -0.035775
   110  C   -0.029316
   111  N   -0.401580
   112  C    0.165357
   113  C   -0.242058
   114  C    0.014008
   115  C    0.138425
   116  C    0.096282
   117  C    0.119958
   118  O   -0.173095
   119  C   -0.118241
   120  C    0.284967
   121  O   -0.233217
   122  O   -0.386703
   123  C    0.128175
   124  H   -0.028664
   125  H    0.025162
   126  H    0.001813
   127  H    0.050853
   128  H    0.047791
   129  H    0.031126
   130  H    0.050475
   131  H    0.042798
   132  H    0.033667
   133  H    0.059741
   134  H    0.061122
   135  H    0.063928
   136  H    0.057858
   137  H    0.039891
   138  H    0.047157
   139  H    0.079780
   140  H    0.047393
   141  H    0.039955
   142  H    0.038805
   143  H    0.032543
   144  H    0.032677
   145  H    0.039118
   146  H    0.051695
   147  H    0.028462
   148  H    0.032735
   149  H    0.031901
   150  H    0.042763
   151  H    0.037474
   152  H    0.058682
   153  H    0.027620
   154  H    0.045755
   155  H    0.081025
   156  H    0.063680
   157  H    0.072783
   158  H    0.054993
 Sum of Mulliken charges =  -0.00000

 Dipole moment (field-independent basis, Debye):
    X=              5.2905    Y=             -0.2502    Z=              1.0777  Tot=              5.4049
 Quadrupole moment (field-independent basis, Debye-Ang):
   XX=           -578.2663   YY=           -503.4758   ZZ=           -505.1777
   XY=            -44.0558   XZ=             83.4556   YZ=             16.5965

 Normal termination of Gaussian 16 at Sat Sep 18 15:02:38 2021.
