 Gaussian 16, Revision A.03,
 Gaussian 16:  ES64L-G16RevA.03 25-Dec-2016

 --------------------------------
 #p wB97XD/Def2SVP td=(nstates=5)
 --------------------------------

 --------------------------------
 TDDFT excited states in gaussian
 --------------------------------
 Symbolic Z-matrix:
 Charge =  0 Multiplicity = 1

                         Standard orientation:
 ---------------------------------------------------------------------
 Center     Atomic      Atomic             Coordinates (Angstroms)
 Number     Number       Type             X           Y           Z
 ---------------------------------------------------------------------
      1         12           0       30.927887   -0.121394    0.221064
      2          6           0       27.600219    0.645439    0.129089
      3          6           0       30.029253   -3.444617   -0.679640
      4          6           0       34.213787   -0.823838   -0.087718
      5          6           0       31.681966    3.279560    0.176172
      6          7           0       28.959110   -1.200496   -0.609771
      7          6           0       27.728299   -0.705749   -0.298249
      8          6           0       26.666265   -1.692033   -0.698598
      9          6           0       27.465672   -3.034139   -0.997337
     10          6           0       28.942410   -2.593325   -0.746104
     11          6           0       26.855323   -4.292896   -0.498810
     12          6           0       25.584348   -1.291556   -1.809659
     13          6           0       26.003140   -0.350393   -2.899977
     14          1           0       25.661272   -0.750580   -4.328357
     15          7           0       31.951925   -1.933593   -0.073441
     16          6           0       31.437885   -3.152693   -0.390165
     17          6           0       32.460959   -4.141110   -0.563293
     18          6           0       33.718928   -3.398585   -0.270928
     19          6           0       33.327501   -1.979904   -0.121362
     20          6           0       32.317336   -5.549608   -0.894178
     21          6           0       35.137581   -3.935924   -0.148281
     22          8           0       35.383438   -5.052286   -0.439814
     23          6           0       36.361748   -3.149483    0.230859
     24          7           0       32.647150    1.045822   -0.061140
     25          6           0       33.872656    0.506586    0.026676
     26          6           0       35.009950    1.625224   -0.242024
     27          6           0       34.182832    2.918204    0.230771
     28          6           0       32.778461    2.392695    0.051433
     29          6           0       36.327292    1.432407    0.514362
     30          6           0       34.584563    4.194892   -0.529700
     31          6           0       34.872365    5.498890    0.223689
     32          7           0       29.870540    1.631369    0.053282
     33          6           0       30.274409    2.960275    0.087561
     34          6           0       29.171563    3.836265    0.176770
     35          6           0       28.067106    3.003888    0.253473
     36          6           0       28.533770    1.644021    0.174115
     37          6           0       29.189912    5.331260    0.261244
     38          6           0       26.680206    2.867716    0.420348
     39          8           0       25.853424    3.770166    0.535640
     40          6           0       26.283625    1.383558    0.177741
     41          6           0       25.417083    1.056751    1.385056
     42          8           0       24.273501    0.558929    1.313160
     43          8           0       26.178028    1.273455    2.509595
     44          6           0       25.740727    0.826643    3.854811
     45          1           0       29.698552   -4.406629   -1.076504
     46          1           0       35.243288   -1.029211   -0.387990
     47          1           0       31.929901    4.341143    0.233658
     48          1           0       25.994107   -1.834801    0.148316
     49          1           0       27.467346   -3.143445   -2.081457
     50          1           0       27.555404   -4.930528    0.040888
     51          1           0       26.309082   -4.823720   -1.278534
     52          1           0       26.108517   -4.054008    0.258424
     53          1           0       24.695826   -0.798432   -1.415207
     54          1           0       25.315010   -2.176825   -2.386576
     55          1           0       27.019376    0.031552   -2.808463
     56          1           0       25.359636    0.526471   -2.821242
     57          1           0       31.371534   -5.908725   -0.489680
     58          1           0       33.123279   -6.179542   -0.519583
     59          1           0       32.298069   -5.613539   -1.982729
     60          1           0       35.832923   -2.464646    0.894193
     61          1           0       36.802104   -2.616563   -0.611286
     62          1           0       37.164849   -3.688882    0.733302
     63          1           0       35.123762    1.673352   -1.325423
     64          1           0       34.209357    3.199205    1.283305
     65          1           0       36.342911    2.173227    1.314229
     66          1           0       37.162602    1.388095   -0.183884
     67          1           0       36.397699    0.466017    1.012707
     68          1           0       33.782881    4.396133   -1.240770
     69          1           0       35.422302    3.943924   -1.180494
     70          1           0       35.789174    6.042581   -0.004763
     71          1           0       34.763033    5.399055    1.304382
     72          1           0       33.978500    6.082201    0.004976
     73          1           0       28.398854    5.763213    0.874698
     74          1           0       29.106268    5.733735   -0.748536
     75          1           0       30.098290    5.726025    0.718213
     76          1           0       25.730506    1.434512   -0.759319
     77          1           0       26.563618    0.440347    4.455996
     78          1           0       24.994727    0.042525    3.724405
     79          1           0       25.251307    1.518595    4.539067
     80         12           0      -30.890832    0.259999    0.290435
     81          6           0      -28.016400   -1.651509   -0.130503
     82          6           0      -28.970828    3.082199   -0.319855
     83          6           0      -33.606446    2.136397    0.117850
     84          6           0      -32.774825   -2.641736    0.385507
     85          7           0      -28.794172    0.662412   -0.327932
     86          6           0      -27.768481   -0.260137   -0.300439
     87          6           0      -26.416137    0.367412   -0.466729
     88          6           0      -26.729831    1.894172   -0.141315
     89          6           0      -28.243651    1.923155   -0.304918
     90          6           0      -26.115377    2.634277    1.140007
     91          6           0      -25.695478    0.081632   -1.864939
     92          6           0      -26.597338   -0.088375   -3.123583
     93          1           0      -26.063857    0.584956   -4.365205
     94          7           0      -31.264959    2.314040   -0.170507
     95          6           0      -30.318323    3.324722   -0.379369
     96          6           0      -30.946480    4.581031   -0.683912
     97          6           0      -32.335989    4.330929   -0.584936
     98          6           0      -32.488413    2.888575   -0.229499
     99          6           0      -30.113854    5.862070   -0.755370
    100          6           0      -33.381376    5.450050   -0.794375
    101          8           0      -33.060699    6.588230   -1.151412
    102          6           0      -34.775264    5.094188   -0.488478
    103          7           0      -32.886120   -0.258548    0.137570
    104          6           0      -33.820328    0.739042    0.360172
    105          6           0      -35.246634    0.189943    0.583445
    106          6           0      -34.925461   -1.352064    0.418383
    107          6           0      -33.473091   -1.437967    0.256355
    108          6           0      -35.965397    0.505947    1.857008
    109          6           0      -35.643722   -2.009135   -0.866447
    110          6           0      -36.294915   -3.320636   -0.512332
    111          7           0      -30.510350   -1.787760    0.355074
    112          6           0      -31.388844   -2.854640    0.394005
    113          6           0      -30.635318   -4.129128    0.367657
    114          6           0      -29.279585   -3.694789    0.162376
    115          6           0      -29.287795   -2.295064    0.161170
    116          6           0      -31.110899   -5.520104    0.249943
    117          6           0      -27.879631   -4.088458   -0.103933
    118          8           0      -27.414195   -5.190104   -0.283187
    119          6           0      -27.014189   -2.796802   -0.260357
    120          6           0      -25.905788   -2.809133    0.695053
    121          8           0      -24.690402   -2.813401    0.497998
    122          8           0      -26.463144   -3.112291    1.964961
    123          6           0      -25.507032   -3.116441    3.092854
    124          1           0      -28.303302    3.945040   -0.261576
    125          1           0      -34.548140    2.666388    0.274498
    126          1           0      -33.451637   -3.490406    0.499303
    127          1           0      -25.718331   -0.041374    0.263982
    128          1           0      -26.298708    2.372356   -1.021205
    129          1           0      -25.396344    2.057688    1.721662
    130          1           0      -26.858566    2.902714    1.890702
    131          1           0      -25.487288    3.461559    0.808397
    132          1           0      -25.009965   -0.760621   -1.777174
    133          1           0      -25.021233    0.921745   -2.031215
    134          1           0      -27.609850    0.262755   -2.922186
    135          1           0      -26.683269   -1.145130   -3.375032
    136          1           0      -30.512385    6.608394   -1.443318
    137          1           0      -29.135889    5.628844   -1.175616
    138          1           0      -30.112610    6.269523    0.255887
    139          1           0      -34.871944    4.971955    0.589913
    140          1           0      -35.054670    4.194698   -1.037965
    141          1           0      -35.362189    5.951093   -0.819010
    142          1           0      -35.828376    0.426819   -0.307684
    143          1           0      -35.126442   -1.739007    1.417354
    144          1           0      -36.836745   -0.148883    1.874932
    145          1           0      -36.367809    1.513642    1.753303
    146          1           0      -35.294943    0.400535    2.710757
    147          1           0      -34.873518   -2.104998   -1.631646
    148          1           0      -36.360782   -1.388985   -1.405836
    149          1           0      -35.731350   -4.114797   -1.001442
    150          1           0      -37.256303   -3.454451   -1.009355
    151          1           0      -36.205377   -3.499908    0.558895
    152          1           0      -32.193547   -5.651629    0.220137
    153          1           0      -30.774629   -6.026120    1.154246
    154          1           0      -30.760852   -5.759749   -0.753917
    155          1           0      -26.653662   -2.834706   -1.288042
    156          1           0      -26.054324   -2.556643    3.852137
    157          1           0      -24.516400   -2.672854    2.992566
    158          1           0      -25.542906   -4.138108    3.471475
 ---------------------------------------------------------------------

 SCF Done:  E(RwB97XD) =  -4070.55963515     A.U. after   20 cycles

 Excitation energies and oscillator strengths:

 Excited State   1:      Singlet-A      1.5770 eV  786.21 nm  f=0.3864  <S**2>=0.000
     309 -> 316       -0.17494
     311 -> 313        0.68654
     309 <- 316       -0.11857
 This state for optimization and/or second-order correction.
 Total Energy, E(TD-HF/TD-DFT) =  -4070.50168193
 Copying the excited state density for this state as the 1-particle RhoCI density.

 Excited State   2:      Singlet-A      1.6615 eV  746.22 nm  f=0.3709  <S**2>=0.000
     310 -> 315        0.18778
     312 -> 314        0.68151
     310 <- 315        0.11477

 Excited State   3:      Singlet-A      2.0921 eV  592.63 nm  f=0.1446  <S**2>=0.000
     309 -> 313        0.64988
     311 -> 316        0.25887

 Excited State   4:      Singlet-A      2.1479 eV  577.23 nm  f=0.0861  <S**2>=0.000
     310 -> 314        0.62820
     312 -> 315       -0.30714

 Excited State   5:      Singlet-A      3.0082 eV  412.15 nm  f=0.0074  <S**2>=0.000
     307 -> 313       -0.21746
     308 -> 313        0.63598
     308 -> 317        0.12455

 The electronic state is 1-A.
 Alpha  occ. eigenvalues --  -46.96313 -46.95445 -19.31484 -19.29570 -19.25480
 Alpha  occ. eigenvalues --  -19.25333 -19.24053 -19.23867 -19.23615 -19.22189
 Alpha  occ. eigenvalues --  -14.47181 -14.46834 -14.46778 -14.46658 -14.44616
 Alpha  occ. eigenvalues --  -14.44291 -14.44255 -14.43764 -10.44402 -10.43591
 Alpha  occ. eigenvalues --  -10.39135 -10.39069 -10.38359 -10.37472 -10.36575
 Alpha  occ. eigenvalues --  -10.36152 -10.35680 -10.35666 -10.35203 -10.35018
 Alpha  occ. eigenvalues --  -10.35014 -10.34929 -10.34865 -10.34725 -10.34701
 Alpha  occ. eigenvalues --  -10.34658 -10.34156 -10.34131 -10.34076 -10.33452
 Alpha  occ. eigenvalues --  -10.33388 -10.33049 -10.32963 -10.32937 -10.32789
 Alpha  occ. eigenvalues --  -10.32607 -10.32582 -10.32562 -10.32513 -10.32370
 Alpha  occ. eigenvalues --  -10.32370 -10.32369 -10.32367 -10.32309 -10.32267
 Alpha  occ. eigenvalues --  -10.32106 -10.31999 -10.31923 -10.31879 -10.31713
 Alpha  occ. eigenvalues --  -10.31598 -10.31565 -10.31417 -10.31284 -10.31199
 Alpha  occ. eigenvalues --  -10.31085 -10.31004 -10.30859 -10.30820 -10.30760
 Alpha  occ. eigenvalues --  -10.30757 -10.30734 -10.30714 -10.30697 -10.30213
 Alpha  occ. eigenvalues --  -10.30073 -10.30070 -10.30058 -10.29916 -10.29897
 Alpha  occ. eigenvalues --  -10.29891 -10.29628 -10.29560 -10.29436 -10.29008
 Alpha  occ. eigenvalues --  -10.28943  -3.22247  -3.21414  -1.95787  -1.95404
 Alpha  occ. eigenvalues --   -1.95186  -1.94986  -1.94553  -1.94376  -1.17895
 Alpha  occ. eigenvalues --   -1.16962  -1.13584  -1.12600  -1.11662  -1.11586
 Alpha  occ. eigenvalues --   -1.09495  -1.09102  -1.07218  -1.07053  -1.06438
 Alpha  occ. eigenvalues --   -1.05715  -1.05210  -1.04941  -1.04384  -1.04168
 Alpha  occ. eigenvalues --   -0.95751  -0.94423  -0.91726  -0.91500  -0.91159
 Alpha  occ. eigenvalues --   -0.90635  -0.90321  -0.89920  -0.89876  -0.89552
 Alpha  occ. eigenvalues --   -0.89194  -0.88807  -0.88150  -0.87796  -0.86723
 Alpha  occ. eigenvalues --   -0.86462  -0.86355  -0.85919  -0.85015  -0.84653
 Alpha  occ. eigenvalues --   -0.84267  -0.84105  -0.82947  -0.82787  -0.82561
 Alpha  occ. eigenvalues --   -0.82097  -0.80475  -0.80229  -0.79759  -0.79449
 Alpha  occ. eigenvalues --   -0.78923  -0.78752  -0.78661  -0.78133  -0.77696
 Alpha  occ. eigenvalues --   -0.77443  -0.75599  -0.74623  -0.74116  -0.73753
 Alpha  occ. eigenvalues --   -0.71980  -0.71391  -0.71348  -0.71234  -0.70360
 Alpha  occ. eigenvalues --   -0.70074  -0.68817  -0.68572  -0.68336  -0.68212
 Alpha  occ. eigenvalues --   -0.67517  -0.66892  -0.66702  -0.66505  -0.66390
 Alpha  occ. eigenvalues --   -0.65981  -0.65612  -0.64520  -0.62294  -0.62244
 Alpha  occ. eigenvalues --   -0.61465  -0.61392  -0.60929  -0.60865  -0.60265
 Alpha  occ. eigenvalues --   -0.60059  -0.59585  -0.59502  -0.59221  -0.59188
 Alpha  occ. eigenvalues --   -0.58512  -0.58289  -0.57809  -0.57759  -0.57336
 Alpha  occ. eigenvalues --   -0.57270  -0.57074  -0.57037  -0.56538  -0.56407
 Alpha  occ. eigenvalues --   -0.55966  -0.55785  -0.55291  -0.55100  -0.54854
 Alpha  occ. eigenvalues --   -0.54644  -0.54551  -0.54435  -0.54101  -0.54056
 Alpha  occ. eigenvalues --   -0.53907  -0.53762  -0.53739  -0.53534  -0.53335
 Alpha  occ. eigenvalues --   -0.53051  -0.53036  -0.52740  -0.52653  -0.52556
 Alpha  occ. eigenvalues --   -0.52360  -0.52224  -0.51920  -0.51636  -0.51543
 Alpha  occ. eigenvalues --   -0.51487  -0.51459  -0.51246  -0.51130  -0.50951
 Alpha  occ. eigenvalues --   -0.50748  -0.50491  -0.50179  -0.50146  -0.50089
 Alpha  occ. eigenvalues --   -0.49826  -0.49672  -0.49489  -0.49296  -0.49194
 Alpha  occ. eigenvalues --   -0.49161  -0.49047  -0.48864  -0.48825  -0.48454
 Alpha  occ. eigenvalues --   -0.48383  -0.48206  -0.48134  -0.48070  -0.47650
 Alpha  occ. eigenvalues --   -0.47584  -0.47477  -0.47311  -0.47270  -0.47049
 Alpha  occ. eigenvalues --   -0.46973  -0.46901  -0.46849  -0.46824  -0.46623
 Alpha  occ. eigenvalues --   -0.46565  -0.46130  -0.45946  -0.45852  -0.45349
 Alpha  occ. eigenvalues --   -0.45312  -0.45157  -0.45036  -0.44990  -0.44739
 Alpha  occ. eigenvalues --   -0.44669  -0.44558  -0.44440  -0.44380  -0.44055
 Alpha  occ. eigenvalues --   -0.44051  -0.43951  -0.43942  -0.43665  -0.43655
 Alpha  occ. eigenvalues --   -0.43572  -0.43423  -0.43211  -0.43114  -0.42461
 Alpha  occ. eigenvalues --   -0.42362  -0.42186  -0.41870  -0.41003  -0.40951
 Alpha  occ. eigenvalues --   -0.40636  -0.40425  -0.39953  -0.39953  -0.39443
 Alpha  occ. eigenvalues --   -0.39393  -0.38984  -0.38897  -0.38539  -0.38160
 Alpha  occ. eigenvalues --   -0.37647  -0.37545  -0.37138  -0.36807  -0.36762
 Alpha  occ. eigenvalues --   -0.35860  -0.35562  -0.35326  -0.33807  -0.33491
 Alpha  occ. eigenvalues --   -0.33134  -0.33074  -0.32787  -0.32587  -0.32162
 Alpha  occ. eigenvalues --   -0.31823  -0.31535  -0.30404  -0.26392  -0.26010
 Alpha  occ. eigenvalues --   -0.23528  -0.23013
 Alpha virt. eigenvalues --   -0.08045  -0.07000  -0.00307  -0.00028   0.02330
 Alpha virt. eigenvalues --    0.02730   0.04070   0.04569   0.04826   0.04866
 Alpha virt. eigenvalues --    0.06219   0.06647   0.07352   0.07470   0.08495

 Mulliken charges:
               1
     1  Mg   0.958692
     2  C    0.008173
     3  C   -0.083338
     4  C   -0.083951
     5  C   -0.096678
     6  N   -0.330870
     7  C   -0.005391
     8  C   -0.018682
     9  C   -0.091845
    10  C    0.035724
    11  C    0.041611
    12  C   -0.011196
    13  C   -0.168563
    14  H    0.030023
    15  N   -0.448444
    16  C    0.171455
    17  C   -0.181700
    18  C   -0.096594
    19  C    0.137250
    20  C    0.086267
    21  C    0.013454
    22  O   -0.209770
    23  C   -0.015030
    24  N   -0.361602
    25  C    0.084213
    26  C   -0.139060
    27  C   -0.084224
    28  C    0.074864
    29  C    0.050068
    30  C   -0.015370
    31  C   -0.044733
    32  N   -0.442104
    33  C    0.139335
    34  C   -0.188094
    35  C    0.058649
    36  C    0.109844
    37  C    0.078558
    38  C    0.062322
    39  O   -0.216442
    40  C   -0.121063
    41  C    0.312870
    42  O   -0.256636
    43  O   -0.379224
    44  C    0.145014
    45  H    0.008446
    46  H    0.003767
    47  H   -0.014193
    48  H    0.042132
    49  H    0.049768
    50  H    0.035487
    51  H    0.041465
    52  H    0.026942
    53  H    0.059284
    54  H    0.045162
    55  H    0.064484
    56  H    0.055820
    57  H    0.031688
    58  H    0.063207
    59  H    0.053818
    60  H    0.032398
    61  H    0.070925
    62  H    0.057990
    63  H    0.056105
    64  H    0.040605
    65  H    0.038894
    66  H    0.039568
    67  H    0.032352
    68  H    0.030271
    69  H    0.027709
    70  H    0.056402
    71  H    0.025814
    72  H    0.030882
    73  H    0.060950
    74  H    0.060881
    75  H    0.031889
    76  H    0.065510
    77  H    0.053563
    78  H    0.053927
    79  H    0.058307
    80  Mg   0.956594
    81  C   -0.040860
    82  C   -0.109743
    83  C   -0.099725
    84  C   -0.098501
    85  N   -0.351123
    86  C    0.005585
    87  C   -0.079367
    88  C   -0.050025
    89  C    0.025505
    90  C    0.014879
    91  C   -0.014043
    92  C   -0.131272
    93  H    0.040660
    94  N   -0.438476
    95  C    0.180543
    96  C   -0.147310
    97  C   -0.106942
    98  C    0.207090
    99  C    0.079946
   100  C    0.051249
   101  O   -0.236322
   102  C   -0.010342
   103  N   -0.368977
   104  C    0.022390
   105  C   -0.081705
   106  C   -0.120596
   107  C    0.043183
   108  C    0.052835
   109  C   -0.004583
   110  C   -0.029173
   111  N   -0.431006
   112  C    0.160415
   113  C   -0.200468
   114  C   -0.051336
   115  C    0.127833
   116  C    0.085792
   117  C    0.113336
   118  O   -0.186386
   119  C   -0.040947
   120  C    0.283595
   121  O   -0.239881
   122  O   -0.406706
   123  C    0.140527
   124  H   -0.005337
   125  H   -0.020527
   126  H   -0.017684
   127  H    0.039130
   128  H    0.033406
   129  H    0.033394
   130  H    0.047814
   131  H    0.043648
   132  H    0.053328
   133  H    0.034509
   134  H    0.067870
   135  H    0.053325
   136  H    0.060252
   137  H    0.036806
   138  H    0.064851
   139  H    0.070842
   140  H    0.065169
   141  H    0.051334
   142  H    0.031703
   143  H    0.032432
   144  H    0.042832
   145  H    0.037338
   146  H    0.047645
   147  H    0.039937
   148  H    0.030702
   149  H    0.027368
   150  H    0.038712
   151  H    0.043345
   152  H    0.019155
   153  H    0.066782
   154  H    0.074755
   155  H    0.069311
   156  H    0.037386
   157  H    0.075536
   158  H    0.056789
 Sum of Mulliken charges =  -0.00000

 Dipole moment (field-independent basis, Debye):
    X=             -1.0151    Y=              2.6992    Z=              5.8125  Tot=              6.4885
 Quadrupole moment (field-independent basis, Debye-Ang):
   XX=            -60.2538   YY=           -560.9028   ZZ=           -491.2329
   XY=            101.8926   XZ=            -38.9863   YZ=              4.3691

 Normal termination of Gaussian 16 at Sat Sep 18 22:58:26 2021.
