 Gaussian 16, Revision A.03,
 Gaussian 16:  ES64L-G16RevA.03 25-Dec-2016

 --------------------------------
 #p wB97XD/Def2SVP td=(nstates=5)
 --------------------------------

 --------------------------------
 TDDFT excited states in gaussian
 --------------------------------
 Symbolic Z-matrix:
 Charge =  0 Multiplicity = 1

                         Standard orientation:
 ---------------------------------------------------------------------
 Center     Atomic      Atomic             Coordinates (Angstroms)
 Number     Number       Type             X           Y           Z
 ---------------------------------------------------------------------
      1         12           0       19.306069   -0.770429   -0.090606
      2          6           0       21.104827    2.159484   -0.223599
      3          6           0       16.940653    0.890627    1.885322
      4          6           0       17.526246   -3.626825    0.169437
      5          6           0       21.813406   -2.407851   -1.687279
      6          7           0       19.214135    1.256040    0.952910
      7          6           0       19.973859    2.351513    0.523937
      8          6           0       19.364323    3.692493    0.978303
      9          6           0       18.086520    3.185940    1.743335
     10          6           0       18.004344    1.693795    1.503054
     11          6           0       18.101303    3.532780    3.226719
     12          6           0       19.019529    4.788756   -0.090989
     13          6           0       19.893882    6.156973   -0.056742
     14          1           0       19.000451    7.380875    0.167628
     15          7           0       17.579987   -1.327828    0.948087
     16          6           0       16.684421   -0.460679    1.594585
     17          6           0       15.422091   -1.136457    1.912122
     18          6           0       15.569720   -2.563504    1.480629
     19          6           0       16.908300   -2.573209    0.766100
     20          6           0       14.263012   -0.445542    2.596032
     21          6           0       14.681796   -3.709102    1.615871
     22          8           0       15.068572   -4.832371    1.260981
     23          6           0       13.301775   -3.618548    2.243291
     24          7           0       19.685437   -2.673652   -0.596477
     25          6           0       18.744277   -3.717200   -0.522861
     26          6           0       19.175820   -5.058993   -1.241477
     27          6           0       20.615631   -4.592296   -1.805096
     28          6           0       20.698024   -3.119397   -1.344414
     29          6           0       19.250726   -6.341011   -0.273973
     30          6           0       20.712344   -4.761717   -3.360347
     31          6           0       22.016428   -5.216439   -3.937025
     32          7           0       21.175053   -0.232484   -0.727674
     33          6           0       22.091855   -1.018660   -1.431473
     34          6           0       23.176645   -0.230922   -1.908666
     35          6           0       22.767633    1.098635   -1.521394
     36          6           0       21.600228    0.988467   -0.755370
     37          6           0       24.356026   -0.586721   -2.712706
     38          6           0       23.203825    2.459322   -1.481853
     39          8           0       24.161287    3.084907   -1.950372
     40          6           0       22.184196    3.182045   -0.489379
     41          6           0       22.933480    3.654355    0.704948
     42          8           0       23.014629    3.156457    1.758331
     43          8           0       23.480328    4.912344    0.462753
     44          6           0       23.710789    5.718331    1.643605
     45          1           0       16.165058    1.437919    2.425172
     46          1           0       17.019147   -4.592717    0.122232
     47          1           0       22.549315   -2.895796   -2.329716
     48          1           0       20.032646    4.146470    1.709187
     49          1           0       17.182917    3.688202    1.396770
     50          1           0       18.164944    2.608826    3.800866
     51          1           0       17.126832    3.997764    3.371077
     52          1           0       18.849416    4.262015    3.536875
     53          1           0       17.968000    5.050885    0.028604
     54          1           0       19.169492    4.414314   -1.103709
     55          1           0       20.274103    6.207884   -1.077160
     56          1           0       20.664827    6.096725    0.711124
     57          1           0       14.553452   -0.311062    3.638718
     58          1           0       13.397094   -1.102879    2.534125
     59          1           0       14.085327    0.567103    2.233340
     60          1           0       13.031374   -4.643566    2.497738
     61          1           0       12.554598   -3.153402    1.599429
     62          1           0       13.230715   -3.167100    3.232662
     63          1           0       18.547055   -5.227983   -2.115059
     64          1           0       21.462565   -5.173840   -1.440225
     65          1           0       20.116604   -6.937561   -0.561931
     66          1           0       18.450641   -7.074131   -0.368955
     67          1           0       19.317210   -6.075629    0.781323
     68          1           0       20.397915   -3.881839   -3.921403
     69          1           0       20.060421   -5.550712   -3.734801
     70          1           0       22.381431   -4.355707   -4.497167
     71          1           0       22.039951   -5.959829   -4.733848
     72          1           0       22.706651   -5.470716   -3.131976
     73          1           0       24.106943   -1.457794   -3.319376
     74          1           0       25.102619   -0.872330   -1.971774
     75          1           0       24.727109    0.313321   -3.203302
     76          1           0       21.732214    4.043243   -0.980832
     77          1           0       24.613470    5.290089    2.078023
     78          1           0       22.854623    5.536335    2.292991
     79          1           0       23.885028    6.763990    1.388343
     80         12           0      -19.818085   -0.645698    0.135249
     81          6           0      -19.614340    2.730444   -1.117735
     82          6           0      -18.862484    0.646932    3.251860
     83          6           0      -20.113161   -3.691704    1.324647
     84          6           0      -20.453478   -1.765223   -3.114992
     85          7           0      -19.273742    1.512262    0.925058
     86          6           0      -19.469178    2.707223    0.307706
     87          6           0      -19.402372    3.870198    1.284164
     88          6           0      -18.804760    3.205126    2.646394
     89          6           0      -18.958851    1.705724    2.259888
     90          6           0      -17.382063    3.678513    3.036304
     91          6           0      -20.788790    4.569483    1.487698
     92          6           0      -20.780540    6.088330    1.175114
     93          1           0      -21.092309    7.029950    2.476133
     94          7           0      -19.542464   -1.389655    1.970952
     95          6           0      -19.112001   -0.749664    3.182261
     96          6           0      -19.035029   -1.671638    4.340086
     97          6           0      -19.461052   -2.907271    3.751671
     98          6           0      -19.722601   -2.693094    2.318456
     99          6           0      -18.579936   -1.278771    5.747040
    100          6           0      -19.545199   -4.245726    4.380708
    101          8           0      -20.128974   -5.218431    3.915081
    102          6           0      -18.974011   -4.410649    5.802768
    103          7           0      -20.386279   -2.393758   -0.737381
    104          6           0      -20.407560   -3.552678   -0.040257
    105          6           0      -20.549366   -4.764131   -0.919232
    106          6           0      -20.709221   -4.185946   -2.346873
    107          6           0      -20.567515   -2.670637   -2.078848
    108          6           0      -19.459679   -5.801857   -0.749405
    109          6           0      -22.192062   -4.541078   -2.951958
    110          6           0      -22.203998   -5.279140   -4.398814
    111          7           0      -19.741216    0.227841   -1.801810
    112          6           0      -20.114059   -0.380436   -3.024608
    113          6           0      -20.118585    0.661949   -4.057349
    114          6           0      -20.065681    1.866090   -3.307064
    115          6           0      -19.720502    1.549473   -1.992309
    116          6           0      -20.231718    0.538032   -5.573819
    117          6           0      -19.935123    3.338210   -3.498346
    118          8           0      -19.921500    4.118522   -4.490502
    119          6           0      -19.763741    3.922727   -2.043060
    120          6           0      -18.556380    4.813176   -2.028209
    121          8           0      -17.507313    4.537628   -2.538035
    122          8           0      -18.879989    6.012359   -1.456649
    123          6           0      -17.855013    7.056777   -1.707985
    124          1           0      -18.434443    1.075887    4.160056
    125          1           0      -20.224932   -4.726122    1.657114
    126          1           0      -20.687584   -2.086353   -4.131873
    127          1           0      -18.649707    4.551422    0.887182
    128          1           0      -19.459512    3.353516    3.505523
    129          1           0      -16.668145    2.856818    2.972256
    130          1           0      -17.381495    4.092561    4.045441
    131          1           0      -16.987706    4.519956    2.466553
    132          1           0      -21.142923    4.472344    2.514308
    133          1           0      -21.554020    4.140797    0.840039
    134          1           0      -21.610775    6.399196    0.540408
    135          1           0      -19.900262    6.448551    0.643641
    136          1           0      -18.584160   -0.216012    5.991222
    137          1           0      -17.611619   -1.673570    6.054441
    138          1           0      -19.305940   -1.745395    6.413597
    139          1           0      -17.904113   -4.202532    5.808430
    140          1           0      -19.186800   -5.393807    6.223911
    141          1           0      -19.471415   -3.685298    6.446607
    142          1           0      -21.437095   -5.309583   -0.596198
    143          1           0      -19.902659   -4.516925   -3.000437
    144          1           0      -19.793497   -6.702519   -0.233434
    145          1           0      -18.616746   -5.490697   -0.132467
    146          1           0      -19.069211   -6.040912   -1.738807
    147          1           0      -22.843356   -3.674969   -3.064692
    148          1           0      -22.758087   -5.208772   -2.302955
    149          1           0      -21.215803   -5.727584   -4.503022
    150          1           0      -22.408910   -4.579416   -5.210105
    151          1           0      -22.873102   -6.139209   -4.400393
    152          1           0      -20.740527    1.392364   -6.019858
    153          1           0      -20.912109   -0.288844   -5.780700
    154          1           0      -19.217473    0.283656   -5.881890
    155          1           0      -20.617124    4.583233   -1.891643
    156          1           0      -16.896840    6.656379   -1.377352
    157          1           0      -18.122699    7.845938   -1.005538
    158          1           0      -17.694877    7.412178   -2.725861
 ---------------------------------------------------------------------

 SCF Done:  E(RwB97XD) =  -4070.58639047     A.U. after   20 cycles

 Excitation energies and oscillator strengths:

 Excited State   1:      Singlet-A      1.6155 eV  767.47 nm  f=0.3509  <S**2>=0.000
     310 -> 316        0.19265
     312 -> 314        0.68024
     310 <- 316        0.12090
 This state for optimization and/or second-order correction.
 Total Energy, E(TD-HF/TD-DFT) =  -4070.52702233
 Copying the excited state density for this state as the 1-particle RhoCI density.

 Excited State   2:      Singlet-A      1.6221 eV  764.34 nm  f=0.4274  <S**2>=0.000
     309 -> 315        0.16191
     311 -> 313        0.68431
     309 <- 315        0.10540

 Excited State   3:      Singlet-A      2.1191 eV  585.07 nm  f=0.1275  <S**2>=0.000
     310 -> 314        0.64520
     312 -> 316       -0.27988

 Excited State   4:      Singlet-A      2.1350 eV  580.72 nm  f=0.1248  <S**2>=0.000
     309 -> 313        0.64274
     311 -> 315       -0.25994

 Excited State   5:      Singlet-A      3.2509 eV  381.38 nm  f=0.0040  <S**2>=0.000
     305 -> 313        0.47415
     306 -> 313        0.38251
     308 -> 313       -0.30414
     311 -> 315        0.12174

 The electronic state is 1-A.
 Alpha  occ. eigenvalues --  -46.94904 -46.94320 -19.30912 -19.27389 -19.24710
 Alpha  occ. eigenvalues --  -19.24456 -19.24057 -19.23963 -19.23788 -19.22977
 Alpha  occ. eigenvalues --  -14.47290 -14.47203 -14.46628 -14.46545 -14.45414
 Alpha  occ. eigenvalues --  -14.44966 -14.43872 -14.43154 -10.42699 -10.41906
 Alpha  occ. eigenvalues --  -10.39363 -10.39225 -10.39164 -10.38199 -10.35955
 Alpha  occ. eigenvalues --  -10.35941 -10.35730 -10.35721 -10.35669 -10.35371
 Alpha  occ. eigenvalues --  -10.35340 -10.35186 -10.35174 -10.34958 -10.34947
 Alpha  occ. eigenvalues --  -10.34817 -10.34763 -10.34754 -10.34349 -10.34237
 Alpha  occ. eigenvalues --  -10.34019 -10.33533 -10.33337 -10.33335 -10.33261
 Alpha  occ. eigenvalues --  -10.33167 -10.33001 -10.32958 -10.32764 -10.32755
 Alpha  occ. eigenvalues --  -10.32574 -10.32547 -10.32415 -10.32326 -10.32321
 Alpha  occ. eigenvalues --  -10.32273 -10.32072 -10.31910 -10.31871 -10.31822
 Alpha  occ. eigenvalues --  -10.31667 -10.31629 -10.31441 -10.31389 -10.31323
 Alpha  occ. eigenvalues --  -10.31229 -10.31202 -10.31187 -10.30760 -10.30605
 Alpha  occ. eigenvalues --  -10.30515 -10.30508 -10.30384 -10.30379 -10.30232
 Alpha  occ. eigenvalues --  -10.30118 -10.29993 -10.29979 -10.29891 -10.29817
 Alpha  occ. eigenvalues --  -10.29766 -10.29760 -10.29391 -10.29251 -10.29152
 Alpha  occ. eigenvalues --  -10.28495  -3.20981  -3.20489  -1.94570  -1.94104
 Alpha  occ. eigenvalues --   -1.94053  -1.93971  -1.93627  -1.93482  -1.19165
 Alpha  occ. eigenvalues --   -1.18892  -1.12255  -1.11840  -1.10918  -1.10313
 Alpha  occ. eigenvalues --   -1.09914  -1.09332  -1.06638  -1.06024  -1.05462
 Alpha  occ. eigenvalues --   -1.05316  -1.04673  -1.04109  -1.04081  -1.02723
 Alpha  occ. eigenvalues --   -0.94551  -0.93584  -0.91124  -0.90653  -0.90511
 Alpha  occ. eigenvalues --   -0.90403  -0.90403  -0.90045  -0.89400  -0.89293
 Alpha  occ. eigenvalues --   -0.89148  -0.88988  -0.88675  -0.87590  -0.86163
 Alpha  occ. eigenvalues --   -0.85986  -0.85369  -0.85100  -0.84354  -0.83854
 Alpha  occ. eigenvalues --   -0.83740  -0.83379  -0.82807  -0.82660  -0.82200
 Alpha  occ. eigenvalues --   -0.81754  -0.81128  -0.80786  -0.79339  -0.79056
 Alpha  occ. eigenvalues --   -0.78747  -0.78615  -0.78006  -0.77226  -0.77211
 Alpha  occ. eigenvalues --   -0.77167  -0.75073  -0.74591  -0.73690  -0.73444
 Alpha  occ. eigenvalues --   -0.71365  -0.71200  -0.70698  -0.70611  -0.69904
 Alpha  occ. eigenvalues --   -0.69573  -0.69561  -0.69146  -0.67869  -0.67646
 Alpha  occ. eigenvalues --   -0.67608  -0.67258  -0.67020  -0.66453  -0.66059
 Alpha  occ. eigenvalues --   -0.65910  -0.64386  -0.62882  -0.62851  -0.62234
 Alpha  occ. eigenvalues --   -0.61357  -0.61262  -0.61015  -0.60778  -0.60444
 Alpha  occ. eigenvalues --   -0.60371  -0.60263  -0.59967  -0.59666  -0.59173
 Alpha  occ. eigenvalues --   -0.58527  -0.58193  -0.57509  -0.57300  -0.57262
 Alpha  occ. eigenvalues --   -0.56990  -0.56504  -0.55865  -0.55762  -0.55585
 Alpha  occ. eigenvalues --   -0.55389  -0.55263  -0.54940  -0.54669  -0.54605
 Alpha  occ. eigenvalues --   -0.54562  -0.54267  -0.54181  -0.54095  -0.53655
 Alpha  occ. eigenvalues --   -0.53523  -0.53377  -0.53325  -0.53281  -0.53103
 Alpha  occ. eigenvalues --   -0.52816  -0.52682  -0.52512  -0.52452  -0.52147
 Alpha  occ. eigenvalues --   -0.52018  -0.51970  -0.51933  -0.51750  -0.51698
 Alpha  occ. eigenvalues --   -0.51587  -0.51449  -0.51202  -0.50946  -0.50771
 Alpha  occ. eigenvalues --   -0.50578  -0.50473  -0.50252  -0.50091  -0.50015
 Alpha  occ. eigenvalues --   -0.49984  -0.49949  -0.49579  -0.49458  -0.49237
 Alpha  occ. eigenvalues --   -0.49018  -0.48965  -0.48814  -0.48777  -0.48526
 Alpha  occ. eigenvalues --   -0.48412  -0.48172  -0.48072  -0.47926  -0.47914
 Alpha  occ. eigenvalues --   -0.47529  -0.47344  -0.47222  -0.46946  -0.46898
 Alpha  occ. eigenvalues --   -0.46783  -0.46718  -0.46633  -0.46379  -0.46093
 Alpha  occ. eigenvalues --   -0.46071  -0.45826  -0.45762  -0.45632  -0.45486
 Alpha  occ. eigenvalues --   -0.45314  -0.45295  -0.45013  -0.44870  -0.44809
 Alpha  occ. eigenvalues --   -0.44583  -0.44558  -0.44228  -0.44052  -0.43989
 Alpha  occ. eigenvalues --   -0.43633  -0.43548  -0.43324  -0.43300  -0.43081
 Alpha  occ. eigenvalues --   -0.42922  -0.42747  -0.42642  -0.42597  -0.42421
 Alpha  occ. eigenvalues --   -0.42106  -0.42062  -0.41839  -0.41343  -0.41025
 Alpha  occ. eigenvalues --   -0.40633  -0.40556  -0.40211  -0.39804  -0.39624
 Alpha  occ. eigenvalues --   -0.39486  -0.39376  -0.39256  -0.38563  -0.38038
 Alpha  occ. eigenvalues --   -0.37549  -0.36882  -0.36681  -0.36450  -0.36434
 Alpha  occ. eigenvalues --   -0.36066  -0.35408  -0.35293  -0.33900  -0.33683
 Alpha  occ. eigenvalues --   -0.33524  -0.33006  -0.32638  -0.32520  -0.32216
 Alpha  occ. eigenvalues --   -0.31849  -0.31543  -0.31388  -0.26323  -0.25859
 Alpha  occ. eigenvalues --   -0.23286  -0.23153
 Alpha virt. eigenvalues --   -0.07654  -0.07387  -0.00247   0.00030   0.01776
 Alpha virt. eigenvalues --    0.02132   0.04109   0.04295   0.05236   0.06525
 Alpha virt. eigenvalues --    0.06751   0.07535   0.07680   0.07860   0.07894

 Mulliken charges:
               1
     1  Mg   0.967405
     2  C    0.011698
     3  C   -0.103259
     4  C   -0.069861
     5  C   -0.098359
     6  N   -0.364194
     7  C   -0.034142
     8  C   -0.002608
     9  C   -0.138140
    10  C    0.093047
    11  C    0.019369
    12  C   -0.009254
    13  C   -0.148515
    14  H    0.036404
    15  N   -0.481907
    16  C    0.200862
    17  C   -0.180101
    18  C   -0.027862
    19  C    0.193796
    20  C    0.079843
    21  C    0.021711
    22  O   -0.252878
    23  C   -0.034248
    24  N   -0.410908
    25  C    0.038799
    26  C   -0.045299
    27  C   -0.088420
    28  C    0.134073
    29  C   -0.000910
    30  C   -0.040862
    31  C   -0.058094
    32  N   -0.418709
    33  C    0.119506
    34  C   -0.179101
    35  C   -0.042540
    36  C    0.138670
    37  C    0.103213
    38  C    0.092979
    39  O   -0.217668
    40  C   -0.114315
    41  C    0.257075
    42  O   -0.187488
    43  O   -0.389629
    44  C    0.148362
    45  H   -0.010852
    46  H    0.025957
    47  H   -0.021884
    48  H    0.032290
    49  H    0.032492
    50  H    0.050103
    51  H    0.027183
    52  H    0.046199
    53  H    0.042867
    54  H    0.040687
    55  H    0.074259
    56  H    0.060424
    57  H    0.058469
    58  H    0.036775
    59  H    0.054086
    60  H    0.050759
    61  H    0.073267
    62  H    0.053522
    63  H    0.052033
    64  H    0.039613
    65  H    0.033978
    66  H    0.046058
    67  H    0.057331
    68  H    0.033700
    69  H    0.029704
    70  H    0.026220
    71  H    0.038849
    72  H    0.035104
    73  H    0.041474
    74  H    0.054384
    75  H    0.067158
    76  H    0.052275
    77  H    0.050819
    78  H    0.036989
    79  H    0.060163
    80  Mg   0.990443
    81  C   -0.017436
    82  C   -0.078451
    83  C   -0.086367
    84  C   -0.079815
    85  N   -0.298173
    86  C   -0.020076
    87  C   -0.052724
    88  C   -0.107292
    89  C    0.010926
    90  C    0.015727
    91  C    0.042879
    92  C   -0.139089
    93  H   -0.009602
    94  N   -0.512319
    95  C    0.177248
    96  C   -0.130242
    97  C   -0.070930
    98  C    0.182056
    99  C    0.070249
   100  C    0.029628
   101  O   -0.236632
   102  C   -0.016442
   103  N   -0.420601
   104  C    0.093757
   105  C   -0.078850
   106  C   -0.074238
   107  C    0.102066
   108  C    0.012644
   109  C   -0.031827
   110  C   -0.079626
   111  N   -0.424334
   112  C    0.112402
   113  C   -0.186398
   114  C   -0.110857
   115  C    0.145487
   116  C    0.092646
   117  C    0.193613
   118  O   -0.247688
   119  C   -0.086696
   120  C    0.237184
   121  O   -0.215037
   122  O   -0.372155
   123  C    0.133773
   124  H   -0.004536
   125  H    0.020964
   126  H   -0.003290
   127  H    0.041518
   128  H    0.042952
   129  H    0.048205
   130  H    0.034624
   131  H    0.041282
   132  H    0.049108
   133  H    0.046200
   134  H    0.054751
   135  H    0.060332
   136  H    0.047041
   137  H    0.062902
   138  H    0.044867
   139  H    0.052738
   140  H    0.053709
   141  H    0.038486
   142  H    0.046290
   143  H    0.048418
   144  H    0.040288
   145  H    0.042049
   146  H    0.029144
   147  H    0.043076
   148  H    0.034696
   149  H    0.027497
   150  H    0.051976
   151  H    0.040966
   152  H    0.063955
   153  H    0.026487
   154  H    0.068662
   155  H    0.067119
   156  H    0.050088
   157  H    0.052123
   158  H    0.076485
 Sum of Mulliken charges =  -0.00000

 Dipole moment (field-independent basis, Debye):
    X=             -5.3813    Y=             -1.4357    Z=              4.8054  Tot=              7.3561
 Quadrupole moment (field-independent basis, Debye-Ang):
   XX=           -747.8915   YY=           -498.6453   ZZ=           -495.9516
   XY=            -20.1322   XZ=            -80.8831   YZ=             55.8552

 Normal termination of Gaussian 16 at Mon Sep 20 14:46:41 2021.
