 Gaussian 16, Revision A.03,
 Gaussian 16:  ES64L-G16RevA.03 25-Dec-2016

 --------------------------------
 #p wB97XD/Def2SVP td=(nstates=5)
 --------------------------------

 --------------------------------
 TDDFT excited states in gaussian
 --------------------------------
 Symbolic Z-matrix:
 Charge =  0 Multiplicity = 1

                         Standard orientation:
 ---------------------------------------------------------------------
 Center     Atomic      Atomic             Coordinates (Angstroms)
 Number     Number       Type             X           Y           Z
 ---------------------------------------------------------------------
      1         12           0      -18.468001    0.395862    0.392031
      2          6           0      -15.650373   -0.729611   -1.108302
      3          6           0      -19.990336   -2.676667   -0.161872
      4          6           0      -21.288178    1.523939    1.887193
      5          6           0      -17.135175    3.588701    0.503379
      6          7           0      -17.807990   -1.432895   -0.416417
      7          6           0      -16.623576   -1.705391   -1.019986
      8          6           0      -16.458849   -3.170556   -1.329110
      9          6           0      -17.936489   -3.716071   -1.279068
     10          6           0      -18.628354   -2.527128   -0.535094
     11          6           0      -18.660708   -4.191811   -2.607201
     12          6           0      -15.566149   -3.909704   -0.233436
     13          6           0      -14.889274   -5.198522   -0.786269
     14          1           0      -15.505229   -6.008954   -1.939068
     15          7           0      -20.444429   -0.408565    0.759468
     16          6           0      -20.832866   -1.736217    0.440637
     17          6           0      -22.180869   -1.954483    0.871385
     18          6           0      -22.605718   -0.716164    1.472236
     19          6           0      -21.397754    0.180556    1.390852
     20          6           0      -22.901703   -3.253435    0.777305
     21          6           0      -23.948671   -0.356618    2.098002
     22          8           0      -24.289522    0.792696    2.505041
     23          6           0      -25.011264   -1.431856    2.249526
     24          7           0      -19.152217    2.283208    1.031460
     25          6           0      -20.297692    2.477342    1.805005
     26          6           0      -20.359892    3.847963    2.539034
     27          6           0      -18.920632    4.450038    2.065943
     28          6           0      -18.339401    3.407868    1.182343
     29          6           0      -21.575553    4.633573    2.030676
     30          6           0      -18.028070    4.877553    3.193548
     31          6           0      -17.583291    6.308862    3.096155
     32          7           0      -16.875262    1.348544   -0.229227
     33          6           0      -16.398307    2.648414   -0.114666
     34          6           0      -15.120952    2.754728   -0.716337
     35          6           0      -14.759102    1.462326   -1.182611
     36          6           0      -15.803928    0.606325   -0.775008
     37          6           0      -14.239916    3.938702   -0.834223
     38          6           0      -13.790472    0.712790   -1.952276
     39          8           0      -12.770411    0.987634   -2.553439
     40          6           0      -14.349240   -0.784711   -1.843649
     41          6           0      -14.204140   -1.536781   -3.117434
     42          8           0      -14.442724   -1.128408   -4.225190
     43          8           0      -13.721594   -2.777817   -2.949542
     44          6           0      -13.580170   -3.559830   -4.210680
     45          1           0      -20.425391   -3.605530   -0.536902
     46          1           0      -22.244671    1.910862    2.244543
     47          1           0      -16.598324    4.534690    0.599301
     48          1           0      -16.144870   -3.346338   -2.357865
     49          1           0      -17.970667   -4.541721   -0.568994
     50          1           0      -17.922632   -4.153020   -3.408435
     51          1           0      -19.551625   -3.649326   -2.919558
     52          1           0      -19.015308   -5.205335   -2.418819
     53          1           0      -16.256985   -4.101420    0.587782
     54          1           0      -14.799205   -3.203747    0.085426
     55          1           0      -14.819270   -5.820887    0.106030
     56          1           0      -13.856495   -4.927374   -1.003637
     57          1           0      -22.689525   -3.972490    1.568596
     58          1           0      -22.650415   -3.649518   -0.205803
     59          1           0      -23.976493   -3.138639    0.639944
     60          1           0      -25.518447   -1.486143    1.286360
     61          1           0      -25.698947   -1.039837    2.998466
     62          1           0      -24.615167   -2.416675    2.497825
     63          1           0      -20.519622    3.616482    3.592195
     64          1           0      -19.102047    5.344015    1.468335
     65          1           0      -22.096414    4.204130    1.174628
     66          1           0      -21.290053    5.676840    1.897922
     67          1           0      -22.315902    4.579867    2.829385
     68          1           0      -17.090732    4.322584    3.234532
     69          1           0      -18.454277    4.742929    4.187773
     70          1           0      -17.714734    6.862251    4.025546
     71          1           0      -18.140271    6.846500    2.329270
     72          1           0      -16.560565    6.243259    2.723742
     73          1           0      -14.741789    4.903654   -0.911551
     74          1           0      -13.858498    3.861409   -1.852789
     75          1           0      -13.503674    3.936981   -0.030382
     76          1           0      -13.584451   -1.153549   -1.159541
     77          1           0      -12.698899   -3.262756   -4.780971
     78          1           0      -14.508025   -3.582947   -4.782459
     79          1           0      -13.415344   -4.604082   -3.944088
     80         12           0       18.974174   -0.258763   -0.111448
     81          6           0       15.436028   -0.680733   -0.282195
     82          6           0       18.530643    2.473927   -1.941113
     83          6           0       22.055703    0.782332    0.806049
     84          6           0       18.867709   -2.618935    2.556595
     85          7           0       17.269834    0.670856   -1.072010
     86          6           0       15.907962    0.299956   -1.099388
     87          6           0       15.026451    1.264241   -1.954049
     88          6           0       16.101078    2.239080   -2.513395
     89          6           0       17.413045    1.725588   -1.883293
     90          6           0       16.002917    2.202644   -4.047590
     91          6           0       13.844473    2.030746   -1.217679
     92          6           0       12.425143    1.672905   -1.643091
     93          1           0       11.518616    2.821984   -2.129606
     94          7           0       20.167465    1.304350   -0.557467
     95          6           0       19.774089    2.373169   -1.362540
     96          6           0       20.859160    3.236308   -1.601835
     97          6           0       21.966385    2.722922   -0.951995
     98          6           0       21.470775    1.593645   -0.191420
     99          6           0       20.904765    4.544462   -2.475641
    100          6           0       23.341680    3.339414   -1.055878
    101          8           0       23.620633    4.240790   -1.789269
    102          6           0       24.492147    2.608654   -0.203762
    103          7           0       20.262400   -0.774117    1.498212
    104          6           0       21.504659   -0.213599    1.619355
    105          6           0       22.129389   -0.763897    2.966273
    106          6           0       21.226134   -1.906777    3.458996
    107          6           0       20.017035   -1.764173    2.457827
    108          6           0       23.599670   -1.066329    2.904659
    109          6           0       20.747946   -1.602556    4.873293
    110          6           0       20.310720   -2.768042    5.720322
    111          7           0       17.518661   -1.615634    0.784419
    112          6           0       17.642182   -2.510855    1.820052
    113          6           0       16.422542   -3.207023    2.014820
    114          6           0       15.470389   -2.600464    1.161762
    115          6           0       16.196442   -1.552376    0.528725
    116          6           0       16.128320   -4.241733    3.025544
    117          6           0       14.085317   -2.518379    0.678806
    118          8           0       13.127692   -3.254576    0.951734
    119          6           0       13.990547   -1.287186   -0.301925
    120          6           0       13.776972   -1.766556   -1.641423
    121          8           0       14.708225   -2.287941   -2.299374
    122          8           0       12.474502   -1.579096   -1.931712
    123          6           0       12.016089   -1.808289   -3.329333
    124          1           0       18.427899    3.358861   -2.573162
    125          1           0       23.074497    1.106882    1.028339
    126          1           0       18.804372   -3.435717    3.278160
    127          1           0       14.577314    0.714806   -2.781334
    128          1           0       15.975676    3.266718   -2.173668
    129          1           0       16.860085    2.756063   -4.430023
    130          1           0       15.101572    2.638786   -4.478030
    131          1           0       16.050536    1.187242   -4.442627
    132          1           0       13.954415    3.061263   -1.555456
    133          1           0       13.971223    1.964362   -0.137057
    134          1           0       11.953007    1.167869   -0.799704
    135          1           0       12.468426    0.979624   -2.483824
    136          1           0       21.305778    5.318956   -1.821526
    137          1           0       19.913883    4.839800   -2.820299
    138          1           0       21.441298    4.466637   -3.421214
    139          1           0       25.421825    3.102853   -0.484252
    140          1           0       24.409864    1.570198   -0.525484
    141          1           0       24.156957    2.782637    0.818680
    142          1           0       22.032194    0.083069    3.646381
    143          1           0       21.654179   -2.909160    3.455587
    144          1           0       23.812795   -1.869743    3.609258
    145          1           0       24.105376   -0.139971    3.177826
    146          1           0       23.976099   -1.273482    1.903596
    147          1           0       19.941841   -0.868941    4.904054
    148          1           0       21.497923   -1.065772    5.454203
    149          1           0       20.571992   -3.731889    5.283852
    150          1           0       19.227014   -2.713226    5.825641
    151          1           0       20.643839   -2.642727    6.750532
    152          1           0       17.021314   -4.805583    3.297094
    153          1           0       15.389744   -4.897178    2.563389
    154          1           0       15.776776   -3.696929    3.902033
    155          1           0       13.291089   -0.510166    0.006490
    156          1           0       11.009216   -2.182379   -3.138303
    157          1           0       12.645952   -2.492927   -3.896588
    158          1           0       11.808015   -0.867958   -3.840921
 ---------------------------------------------------------------------

 SCF Done:  E(RwB97XD) =  -4070.61274956     A.U. after   19 cycles

 Excitation energies and oscillator strengths:

 Excited State   1:      Singlet-A      1.5874 eV  781.06 nm  f=0.3954  <S**2>=0.000
     309 -> 316       -0.17574
     312 -> 313        0.68654
     309 <- 316       -0.11663
 This state for optimization and/or second-order correction.
 Total Energy, E(TD-HF/TD-DFT) =  -4070.55441421
 Copying the excited state density for this state as the 1-particle RhoCI density.

 Excited State   2:      Singlet-A      1.6724 eV  741.34 nm  f=0.3842  <S**2>=0.000
     310 -> 315        0.17579
     311 -> 314        0.68536
     310 <- 315        0.11222

 Excited State   3:      Singlet-A      2.1691 eV  571.58 nm  f=0.1103  <S**2>=0.000
     309 -> 313        0.63605
     312 -> 316        0.29405

 Excited State   4:      Singlet-A      2.2043 eV  562.47 nm  f=0.1138  <S**2>=0.000
     310 -> 314        0.63531
     311 -> 315       -0.29119

 Excited State   5:      Singlet-A      3.2885 eV  377.02 nm  f=0.0022  <S**2>=0.000
     301 -> 314        0.11880
     308 -> 314        0.66479

 The electronic state is 1-A.
 Alpha  occ. eigenvalues --  -46.94858 -46.93502 -19.31683 -19.30365 -19.24690
 Alpha  occ. eigenvalues --  -19.24570 -19.24277 -19.23758 -19.23689 -19.23548
 Alpha  occ. eigenvalues --  -14.47459 -14.47168 -14.46772 -14.46294 -14.44158
 Alpha  occ. eigenvalues --  -14.44104 -14.43399 -14.43034 -10.43312 -10.42412
 Alpha  occ. eigenvalues --  -10.39472 -10.39390 -10.39216 -10.39169 -10.36557
 Alpha  occ. eigenvalues --  -10.35807 -10.35700 -10.35502 -10.35377 -10.35092
 Alpha  occ. eigenvalues --  -10.34946 -10.34713 -10.34593 -10.34513 -10.34505
 Alpha  occ. eigenvalues --  -10.34117 -10.33892 -10.33688 -10.33321 -10.32984
 Alpha  occ. eigenvalues --  -10.32958 -10.32888 -10.32831 -10.32626 -10.32403
 Alpha  occ. eigenvalues --  -10.32397 -10.32299 -10.32184 -10.32183 -10.32093
 Alpha  occ. eigenvalues --  -10.31958 -10.31956 -10.31908 -10.31904 -10.31801
 Alpha  occ. eigenvalues --  -10.31796 -10.31754 -10.31637 -10.31594 -10.31586
 Alpha  occ. eigenvalues --  -10.31538 -10.31325 -10.31270 -10.31138 -10.31123
 Alpha  occ. eigenvalues --  -10.31042 -10.30978 -10.30954 -10.30673 -10.30308
 Alpha  occ. eigenvalues --  -10.30266 -10.30232 -10.30044 -10.29966 -10.29708
 Alpha  occ. eigenvalues --  -10.29687 -10.29649 -10.29626 -10.29494 -10.29438
 Alpha  occ. eigenvalues --  -10.29324 -10.29277 -10.29255 -10.28967 -10.28914
 Alpha  occ. eigenvalues --  -10.28843  -3.20898  -3.19752  -1.94464  -1.94002
 Alpha  occ. eigenvalues --   -1.93890  -1.93342  -1.92866  -1.92774  -1.19471
 Alpha  occ. eigenvalues --   -1.18786  -1.14219  -1.12382  -1.10862  -1.09620
 Alpha  occ. eigenvalues --   -1.09537  -1.09446  -1.06515  -1.06140  -1.05598
 Alpha  occ. eigenvalues --   -1.05228  -1.04834  -1.04723  -1.03750  -1.03419
 Alpha  occ. eigenvalues --   -0.95353  -0.94148  -0.91579  -0.91506  -0.91193
 Alpha  occ. eigenvalues --   -0.90723  -0.90670  -0.90439  -0.89591  -0.89275
 Alpha  occ. eigenvalues --   -0.89166  -0.88620  -0.88409  -0.88356  -0.86704
 Alpha  occ. eigenvalues --   -0.86232  -0.86112  -0.85716  -0.85170  -0.84374
 Alpha  occ. eigenvalues --   -0.83821  -0.83584  -0.83092  -0.82998  -0.82460
 Alpha  occ. eigenvalues --   -0.82249  -0.80304  -0.79704  -0.79638  -0.79321
 Alpha  occ. eigenvalues --   -0.79266  -0.78597  -0.78457  -0.78150  -0.77152
 Alpha  occ. eigenvalues --   -0.77086  -0.74873  -0.74715  -0.73811  -0.73696
 Alpha  occ. eigenvalues --   -0.71229  -0.71071  -0.70587  -0.70508  -0.70137
 Alpha  occ. eigenvalues --   -0.69699  -0.69224  -0.68675  -0.67783  -0.67638
 Alpha  occ. eigenvalues --   -0.67485  -0.67298  -0.66991  -0.66770  -0.66547
 Alpha  occ. eigenvalues --   -0.66078  -0.64323  -0.64199  -0.62328  -0.62173
 Alpha  occ. eigenvalues --   -0.61883  -0.61596  -0.61371  -0.60932  -0.60443
 Alpha  occ. eigenvalues --   -0.60360  -0.60181  -0.59960  -0.59716  -0.59132
 Alpha  occ. eigenvalues --   -0.58365  -0.58074  -0.57976  -0.57351  -0.57151
 Alpha  occ. eigenvalues --   -0.56983  -0.56951  -0.56605  -0.56188  -0.55853
 Alpha  occ. eigenvalues --   -0.55754  -0.55276  -0.55085  -0.54953  -0.54810
 Alpha  occ. eigenvalues --   -0.54805  -0.54450  -0.54414  -0.54359  -0.54345
 Alpha  occ. eigenvalues --   -0.54102  -0.53900  -0.53616  -0.53375  -0.53242
 Alpha  occ. eigenvalues --   -0.53129  -0.53079  -0.52443  -0.52254  -0.52234
 Alpha  occ. eigenvalues --   -0.52065  -0.52010  -0.51923  -0.51919  -0.51734
 Alpha  occ. eigenvalues --   -0.51594  -0.51158  -0.50940  -0.50868  -0.50791
 Alpha  occ. eigenvalues --   -0.50372  -0.50305  -0.50152  -0.50129  -0.49953
 Alpha  occ. eigenvalues --   -0.49899  -0.49748  -0.49445  -0.49405  -0.49250
 Alpha  occ. eigenvalues --   -0.49123  -0.48879  -0.48628  -0.48538  -0.48351
 Alpha  occ. eigenvalues --   -0.48294  -0.48223  -0.48015  -0.47836  -0.47560
 Alpha  occ. eigenvalues --   -0.47228  -0.47141  -0.47036  -0.46866  -0.46846
 Alpha  occ. eigenvalues --   -0.46705  -0.46668  -0.46471  -0.46225  -0.46055
 Alpha  occ. eigenvalues --   -0.45991  -0.45822  -0.45731  -0.45458  -0.45421
 Alpha  occ. eigenvalues --   -0.45233  -0.45203  -0.45117  -0.44977  -0.44700
 Alpha  occ. eigenvalues --   -0.44499  -0.44361  -0.44248  -0.44212  -0.43975
 Alpha  occ. eigenvalues --   -0.43835  -0.43819  -0.43561  -0.43538  -0.43324
 Alpha  occ. eigenvalues --   -0.42950  -0.42829  -0.42496  -0.42491  -0.42319
 Alpha  occ. eigenvalues --   -0.42272  -0.42096  -0.41987  -0.41920  -0.41074
 Alpha  occ. eigenvalues --   -0.40370  -0.40200  -0.40112  -0.39879  -0.39628
 Alpha  occ. eigenvalues --   -0.39561  -0.39227  -0.39165  -0.38981  -0.38754
 Alpha  occ. eigenvalues --   -0.38638  -0.37916  -0.36616  -0.36216  -0.36202
 Alpha  occ. eigenvalues --   -0.36130  -0.35426  -0.35182  -0.34008  -0.33678
 Alpha  occ. eigenvalues --   -0.32970  -0.32812  -0.32720  -0.32648  -0.32639
 Alpha  occ. eigenvalues --   -0.32131  -0.31751  -0.31049  -0.26228  -0.26196
 Alpha  occ. eigenvalues --   -0.23052  -0.22832
 Alpha virt. eigenvalues --   -0.07319  -0.07079   0.00240   0.00301   0.02172
 Alpha virt. eigenvalues --    0.02670   0.04342   0.04803   0.05460   0.06129
 Alpha virt. eigenvalues --    0.06778   0.07246   0.07446   0.07854   0.08035

 Mulliken charges:
               1
     1  Mg   0.985697
     2  C    0.012761
     3  C   -0.095403
     4  C   -0.062363
     5  C   -0.128127
     6  N   -0.378534
     7  C   -0.008492
     8  C   -0.043462
     9  C   -0.121990
    10  C    0.058095
    11  C    0.021180
    12  C    0.005423
    13  C   -0.092483
    14  H    0.043449
    15  N   -0.389466
    16  C    0.163902
    17  C   -0.155378
    18  C   -0.073767
    19  C    0.099959
    20  C    0.064817
    21  C    0.052858
    22  O   -0.274751
    23  C   -0.022073
    24  N   -0.392127
    25  C    0.057896
    26  C   -0.092109
    27  C   -0.027231
    28  C    0.109017
    29  C    0.008964
    30  C   -0.008508
    31  C   -0.062951
    32  N   -0.527617
    33  C    0.189904
    34  C   -0.191426
    35  C   -0.055050
    36  C    0.141588
    37  C    0.072759
    38  C    0.153117
    39  O   -0.183133
    40  C   -0.107224
    41  C    0.224602
    42  O   -0.229936
    43  O   -0.358821
    44  C    0.140860
    45  H   -0.003547
    46  H    0.017259
    47  H   -0.016896
    48  H    0.024567
    49  H    0.035467
    50  H    0.042327
    51  H    0.048407
    52  H    0.037262
    53  H    0.035725
    54  H    0.041482
    55  H    0.044294
    56  H    0.060637
    57  H    0.073864
    58  H    0.034861
    59  H    0.031902
    60  H    0.066644
    61  H    0.059184
    62  H    0.050429
    63  H    0.056051
    64  H    0.035240
    65  H    0.060716
    66  H    0.037219
    67  H    0.041382
    68  H    0.033246
    69  H    0.028297
    70  H    0.043809
    71  H    0.022291
    72  H    0.037625
    73  H    0.026920
    74  H    0.061450
    75  H    0.068408
    76  H    0.069271
    77  H    0.070803
    78  H    0.058530
    79  H    0.040444
    80  Mg   0.984569
    81  C   -0.043524
    82  C   -0.132047
    83  C   -0.102626
    84  C   -0.063489
    85  N   -0.377712
    86  C    0.011563
    87  C   -0.047594
    88  C   -0.123595
    89  C    0.121206
    90  C    0.014115
    91  C    0.012413
    92  C   -0.135881
    93  H    0.034118
    94  N   -0.504905
    95  C    0.212805
    96  C   -0.172163
    97  C   -0.054846
    98  C    0.150011
    99  C    0.105782
   100  C    0.008315
   101  O   -0.195273
   102  C   -0.028056
   103  N   -0.393543
   104  C    0.110744
   105  C   -0.081160
   106  C   -0.082621
   107  C    0.108013
   108  C    0.029372
   109  C   -0.045272
   110  C   -0.025552
   111  N   -0.385826
   112  C    0.093489
   113  C   -0.223150
   114  C    0.000623
   115  C    0.116522
   116  C    0.079659
   117  C    0.128983
   118  O   -0.222392
   119  C   -0.072352
   120  C    0.292596
   121  O   -0.280033
   122  O   -0.349496
   123  C    0.124634
   124  H   -0.016724
   125  H   -0.040269
   126  H   -0.012828
   127  H    0.028419
   128  H    0.045461
   129  H    0.027674
   130  H    0.042880
   131  H    0.043020
   132  H    0.041076
   133  H    0.048414
   134  H    0.069484
   135  H    0.033059
   136  H    0.061803
   137  H    0.011533
   138  H    0.062680
   139  H    0.058153
   140  H    0.066245
   141  H    0.068552
   142  H    0.046800
   143  H    0.038395
   144  H    0.041298
   145  H    0.031638
   146  H    0.038547
   147  H    0.030410
   148  H    0.021495
   149  H    0.036047
   150  H    0.030054
   151  H    0.032922
   152  H    0.030570
   153  H    0.066787
   154  H    0.060777
   155  H    0.055766
   156  H    0.061807
   157  H    0.085109
   158  H    0.056519
 Sum of Mulliken charges =  -0.00000

 Dipole moment (field-independent basis, Debye):
    X=             -0.1203    Y=             -2.3901    Z=              2.8546  Tot=              3.7250
 Quadrupole moment (field-independent basis, Debye-Ang):
   XX=           -459.5604   YY=           -485.3052   ZZ=           -499.1657
   XY=             73.5034   XZ=              4.0072   YZ=             14.1342

 Normal termination of Gaussian 16 at Sun Sep 19 23:46:48 2021.
