 Gaussian 16, Revision A.03,
 Gaussian 16:  ES64L-G16RevA.03 25-Dec-2016

 --------------------------------
 #p wB97XD/Def2SVP td=(nstates=5)
 --------------------------------

 --------------------------------
 TDDFT excited states in gaussian
 --------------------------------
 Symbolic Z-matrix:
 Charge =  0 Multiplicity = 1

                         Standard orientation:
 ---------------------------------------------------------------------
 Center     Atomic      Atomic             Coordinates (Angstroms)
 Number     Number       Type             X           Y           Z
 ---------------------------------------------------------------------
      1         12           0      -29.655501    0.378492   -0.591699
      2          6           0      -29.141235   -2.151662    1.741336
      3          6           0      -29.234072    2.702560    1.810910
      4          6           0      -30.610989    2.726902   -2.827208
      5          6           0      -30.550761   -2.052729   -2.867103
      6          7           0      -29.243542    0.243517    1.581646
      7          6           0      -28.866978   -0.887073    2.260998
      8          6           0      -28.453419   -0.545611    3.641970
      9          6           0      -28.513850    0.982533    3.749170
     10          6           0      -29.010163    1.401535    2.298634
     11          6           0      -29.307570    1.610558    4.884292
     12          6           0      -26.993312   -1.181532    4.002237
     13          6           0      -26.921134   -2.205808    5.158917
     14          1           0      -25.766256   -2.196426    6.130035
     15          7           0      -29.774113    2.430576   -0.558244
     16          6           0      -29.573462    3.236612    0.552291
     17          6           0      -29.814928    4.590233    0.206972
     18          6           0      -30.227032    4.631215   -1.152620
     19          6           0      -30.197907    3.227526   -1.576222
     20          6           0      -29.481817    5.705848    1.273218
     21          6           0      -30.667690    5.886742   -1.903182
     22          8           0      -31.101563    5.913699   -3.064836
     23          6           0      -30.511906    7.199962   -1.271747
     24          7           0      -30.706671    0.397465   -2.503358
     25          6           0      -30.878958    1.456115   -3.267573
     26          6           0      -31.604626    1.080146   -4.579128
     27          6           0      -31.080625   -0.405959   -4.687502
     28          6           0      -30.719548   -0.728158   -3.240898
     29          6           0      -33.175128    1.121082   -4.669205
     30          6           0      -29.850211   -0.673320   -5.680491
     31          6           0      -28.586775    0.043472   -5.431478
     32          7           0      -29.889749   -1.756467   -0.642571
     33          6           0      -30.260007   -2.634432   -1.680108
     34          6           0      -30.226757   -3.978051   -1.197040
     35          6           0      -29.867529   -3.859047    0.130749
     36          6           0      -29.568030   -2.481724    0.391298
     37          6           0      -30.751709   -5.149419   -1.871587
     38          6           0      -29.461841   -4.588589    1.238271
     39          8           0      -29.430147   -5.804278    1.455375
     40          6           0      -29.061052   -3.552540    2.384978
     41          6           0      -30.129505   -3.675152    3.420561
     42          8           0      -31.330097   -3.509411    3.367191
     43          8           0      -29.493874   -4.067792    4.525944
     44          6           0      -30.345553   -4.240016    5.748186
     45          1           0      -28.858745    3.349924    2.606178
     46          1           0      -30.759207    3.524780   -3.556914
     47          1           0      -30.773046   -2.813656   -3.617845
     48          1           0      -29.208438   -1.005545    4.278340
     49          1           0      -27.498501    1.370419    3.828066
     50          1           0      -30.229350    1.748348    4.320333
     51          1           0      -28.872590    2.506486    5.327601
     52          1           0      -29.554101    1.017556    5.764594
     53          1           0      -26.297096   -0.366267    4.196793
     54          1           0      -26.571832   -1.790102    3.201780
     55          1           0      -26.827654   -3.183684    4.685675
     56          1           0      -27.858211   -2.266685    5.710746
     57          1           0      -30.358119    6.343450    1.388539
     58          1           0      -28.734402    6.231187    0.678542
     59          1           0      -29.256356    5.397087    2.294019
     60          1           0      -31.046396    7.244537   -0.323847
     61          1           0      -31.125459    7.880357   -1.861794
     62          1           0      -29.488839    7.573178   -1.218796
     63          1           0      -31.092198    1.575090   -5.404203
     64          1           0      -31.940487   -0.949626   -5.078139
     65          1           0      -33.709238    0.764189   -3.789426
     66          1           0      -33.370950    0.509599   -5.550760
     67          1           0      -33.524863    2.138976   -4.843499
     68          1           0      -30.072859   -0.426778   -6.718926
     69          1           0      -29.452135   -1.679782   -5.551698
     70          1           0      -28.118692   -0.550152   -4.647483
     71          1           0      -28.618680    1.070487   -5.066444
     72          1           0      -27.850164    0.092151   -6.232763
     73          1           0      -31.819558   -5.111559   -1.652984
     74          1           0      -30.353380   -6.104856   -1.531379
     75          1           0      -30.512485   -5.181277   -2.935099
     76          1           0      -28.046886   -3.692086    2.759425
     77          1           0      -30.100834   -3.377832    6.368956
     78          1           0      -30.119684   -5.195396    6.221283
     79          1           0      -31.427089   -4.199207    5.615874
     80         12           0       30.292811   -0.663368    0.350393
     81          6           0       28.210559    2.226046    0.147397
     82          6           0       28.008344   -2.188338   -1.511773
     83          6           0       32.568436   -3.054116   -0.375800
     84          6           0       32.841996    1.568676    1.454855
     85          7           0       28.354130   -0.108004   -0.440007
     86          6           0       27.627575    1.098591   -0.343776
     87          6           0       26.238959    1.037055   -1.054628
     88          6           0       26.207786   -0.443867   -1.527810
     89          6           0       27.570593   -0.997740   -1.060965
     90          6           0       24.948802   -1.092909   -0.929127
     91          6           0       25.974745    2.054796   -2.246784
     92          6           0       24.898307    3.110286   -2.021516
     93          1           0       23.746089    3.179070   -3.044517
     94          7           0       30.293312   -2.398333   -0.677269
     95          6           0       29.202578   -2.862807   -1.411998
     96          6           0       29.453833   -4.156894   -1.903790
     97          6           0       30.714255   -4.538199   -1.482189
     98          6           0       31.270782   -3.365104   -0.839153
     99          6           0       28.510441   -5.091349   -2.748591
    100          6           0       31.292361   -5.908276   -1.748601
    101          8           0       30.681324   -6.812690   -2.235249
    102          6           0       32.783842   -6.147234   -1.198994
    103          7           0       32.415067   -0.724858    0.441876
    104          6           0       33.106051   -1.859974    0.116125
    105          6           0       34.646355   -1.507075    0.217274
    106          6           0       34.759697   -0.133614    0.899609
    107          6           0       33.242913    0.294287    0.929003
    108          6           0       35.509457   -2.597770    0.785099
    109          6           0       35.534729    0.819108   -0.002110
    110          6           0       36.200845    2.000613    0.651582
    111          7           0       30.451931    1.422480    0.971776
    112          6           0       31.531900    2.149959    1.411839
    113          6           0       31.132222    3.468936    1.744501
    114          6           0       29.780846    3.594710    1.344276
    115          6           0       29.475064    2.329188    0.768665
    116          6           0       31.981814    4.567924    2.243673
    117          6           0       28.584464    4.434935    1.199012
    118          8           0       28.405944    5.597517    1.586381
    119          6           0       27.492362    3.588707    0.438840
    120          6           0       26.415412    3.286865    1.343681
    121          8           0       26.544536    2.417415    2.237749
    122          8           0       25.396012    4.115916    1.044793
    123          6           0       24.078568    3.889931    1.699994
    124          1           0       27.260915   -2.733826   -2.092243
    125          1           0       33.261064   -3.876491   -0.567245
    126          1           0       33.549770    2.264836    1.908967
    127          1           0       25.445401    1.195581   -0.324464
    128          1           0       26.183310   -0.554236   -2.611507
    129          1           0       25.022247   -2.161769   -1.127642
    130          1           0       23.996598   -0.741562   -1.326346
    131          1           0       24.882222   -0.951737    0.150225
    132          1           0       25.550762    1.428921   -3.032063
    133          1           0       26.914432    2.499588   -2.574454
    134          1           0       25.399898    4.077330   -1.971449
    135          1           0       24.408605    2.922487   -1.065342
    136          1           0       29.091441   -5.377083   -3.625696
    137          1           0       27.604508   -4.576007   -3.067289
    138          1           0       28.090250   -5.946753   -2.219670
    139          1           0       32.992162   -7.203080   -1.369291
    140          1           0       32.705213   -5.858813   -0.150520
    141          1           0       33.360038   -5.450117   -1.807299
    142          1           0       34.945356   -1.409828   -0.826990
    143          1           0       35.218390   -0.111173    1.888093
    144          1           0       36.360226   -2.134871    1.284372
    145          1           0       35.817701   -3.206065   -0.065465
    146          1           0       34.980988   -3.305337    1.422916
    147          1           0       34.937449    1.208870   -0.826904
    148          1           0       36.309930    0.306651   -0.571768
    149          1           0       36.213596    1.932837    1.739246
    150          1           0       35.647958    2.894665    0.362615
    151          1           0       37.178549    2.186889    0.207283
    152          1           0       32.831238    4.193046    2.815557
    153          1           0       31.332290    5.171829    2.877793
    154          1           0       32.353982    5.072583    1.351801
    155          1           0       27.166236    4.011731   -0.511326
    156          1           0       23.729471    4.920345    1.781277
    157          1           0       24.140621    3.363766    2.652115
    158          1           0       23.353623    3.466308    1.004123
 ---------------------------------------------------------------------

 SCF Done:  E(RwB97XD) =  -4070.58897907     A.U. after   19 cycles

 Excitation energies and oscillator strengths:

 Excited State   1:      Singlet-A      1.6463 eV  753.12 nm  f=0.3675  <S**2>=0.000
     310 -> 316        0.18126
     311 -> 313        0.68365
     310 <- 316        0.11553
 This state for optimization and/or second-order correction.
 Total Energy, E(TD-HF/TD-DFT) =  -4070.52847964
 Copying the excited state density for this state as the 1-particle RhoCI density.

 Excited State   2:      Singlet-A      1.6724 eV  741.37 nm  f=0.3915  <S**2>=0.000
     309 -> 315        0.17579
     312 -> 314        0.68536
     309 <- 315        0.11223

 Excited State   3:      Singlet-A      2.1205 eV  584.70 nm  f=0.1347  <S**2>=0.000
     310 -> 313        0.64942
     311 -> 316       -0.26628

 Excited State   4:      Singlet-A      2.2043 eV  562.47 nm  f=0.1141  <S**2>=0.000
     309 -> 314        0.63532
     312 -> 315       -0.29120

 Excited State   5:      Singlet-A      3.2885 eV  377.03 nm  f=0.0022  <S**2>=0.000
     301 -> 314       -0.11907
     308 -> 314        0.66482

 The electronic state is 1-A.
 Alpha  occ. eigenvalues --  -46.95696 -46.94886 -19.31717 -19.30293 -19.24714
 Alpha  occ. eigenvalues --  -19.24601 -19.24048 -19.23785 -19.23716 -19.23331
 Alpha  occ. eigenvalues --  -14.47194 -14.46793 -14.46601 -14.46443 -14.44330
 Alpha  occ. eigenvalues --  -14.44183 -14.43595 -14.43057 -10.43343 -10.42472
 Alpha  occ. eigenvalues --  -10.39495 -10.39417 -10.39056 -10.38217 -10.36594
 Alpha  occ. eigenvalues --  -10.35722 -10.35524 -10.35489 -10.35488 -10.35255
 Alpha  occ. eigenvalues --  -10.35115 -10.34649 -10.34620 -10.34532 -10.34320
 Alpha  occ. eigenvalues --  -10.34121 -10.33836 -10.33713 -10.33142 -10.33022
 Alpha  occ. eigenvalues --  -10.33019 -10.32826 -10.32650 -10.32629 -10.32593
 Alpha  occ. eigenvalues --  -10.32429 -10.32427 -10.32311 -10.32305 -10.32214
 Alpha  occ. eigenvalues --  -10.32025 -10.31986 -10.31983 -10.31972 -10.31865
 Alpha  occ. eigenvalues --  -10.31816 -10.31658 -10.31621 -10.31563 -10.31493
 Alpha  occ. eigenvalues --  -10.31482 -10.31349 -10.31296 -10.31212 -10.31148
 Alpha  occ. eigenvalues --  -10.31076 -10.31002 -10.30979 -10.30550 -10.30342
 Alpha  occ. eigenvalues --  -10.30340 -10.30336 -10.30287 -10.30257 -10.30133
 Alpha  occ. eigenvalues --  -10.30069 -10.29947 -10.29871 -10.29706 -10.29667
 Alpha  occ. eigenvalues --  -10.29467 -10.29277 -10.28984 -10.28868 -10.28722
 Alpha  occ. eigenvalues --  -10.28564  -3.21560  -3.20925  -1.95150  -1.94658
 Alpha  occ. eigenvalues --   -1.94545  -1.94490  -1.94029  -1.93917  -1.19210
 Alpha  occ. eigenvalues --   -1.18819  -1.14243  -1.11353  -1.10889  -1.10842
 Alpha  occ. eigenvalues --   -1.09578  -1.09568  -1.07451  -1.06325  -1.06165
 Alpha  occ. eigenvalues --   -1.05420  -1.05253  -1.04859  -1.04677  -1.03773
 Alpha  occ. eigenvalues --   -0.94217  -0.94175  -0.91527  -0.91225  -0.91143
 Alpha  occ. eigenvalues --   -0.90694  -0.90638  -0.90336  -0.89906  -0.89546
 Alpha  occ. eigenvalues --   -0.89299  -0.88827  -0.88644  -0.88433  -0.86731
 Alpha  occ. eigenvalues --   -0.86587  -0.86171  -0.86139  -0.85199  -0.85009
 Alpha  occ. eigenvalues --   -0.83955  -0.83847  -0.83533  -0.83117  -0.82720
 Alpha  occ. eigenvalues --   -0.82274  -0.80734  -0.79661  -0.79618  -0.79346
 Alpha  occ. eigenvalues --   -0.79329  -0.78625  -0.78179  -0.77915  -0.77314
 Alpha  occ. eigenvalues --   -0.77111  -0.75500  -0.74740  -0.73721  -0.73682
 Alpha  occ. eigenvalues --   -0.71361  -0.71257  -0.71061  -0.70528  -0.69752
 Alpha  occ. eigenvalues --   -0.69728  -0.69250  -0.69189  -0.67750  -0.67666
 Alpha  occ. eigenvalues --   -0.67507  -0.67399  -0.67016  -0.66797  -0.66575
 Alpha  occ. eigenvalues --   -0.65976  -0.64227  -0.64069  -0.62447  -0.62197
 Alpha  occ. eigenvalues --   -0.61934  -0.61623  -0.61400  -0.61329  -0.60618
 Alpha  occ. eigenvalues --   -0.60472  -0.60270  -0.60206  -0.59912  -0.59157
 Alpha  occ. eigenvalues --   -0.58441  -0.58390  -0.58004  -0.57714  -0.57498
 Alpha  occ. eigenvalues --   -0.57013  -0.56977  -0.56791  -0.56664  -0.56635
 Alpha  occ. eigenvalues --   -0.56212  -0.55782  -0.55314  -0.55185  -0.55112
 Alpha  occ. eigenvalues --   -0.54966  -0.54834  -0.54665  -0.54440  -0.54369
 Alpha  occ. eigenvalues --   -0.54158  -0.53867  -0.53641  -0.53405  -0.53156
 Alpha  occ. eigenvalues --   -0.53142  -0.53039  -0.52462  -0.52349  -0.52282
 Alpha  occ. eigenvalues --   -0.52091  -0.51943  -0.51763  -0.51747  -0.51680
 Alpha  occ. eigenvalues --   -0.51406  -0.51182  -0.51151  -0.50980  -0.50896
 Alpha  occ. eigenvalues --   -0.50461  -0.50396  -0.50297  -0.50174  -0.50047
 Alpha  occ. eigenvalues --   -0.49982  -0.49470  -0.49425  -0.49331  -0.49119
 Alpha  occ. eigenvalues --   -0.48903  -0.48783  -0.48631  -0.48377  -0.48250
 Alpha  occ. eigenvalues --   -0.48196  -0.48041  -0.47935  -0.47777  -0.47587
 Alpha  occ. eigenvalues --   -0.47254  -0.47196  -0.47064  -0.46894  -0.46693
 Alpha  occ. eigenvalues --   -0.46582  -0.46411  -0.46253  -0.46100  -0.46079
 Alpha  occ. eigenvalues --   -0.46052  -0.45754  -0.45641  -0.45449  -0.45314
 Alpha  occ. eigenvalues --   -0.45261  -0.45166  -0.45000  -0.44948  -0.44726
 Alpha  occ. eigenvalues --   -0.44526  -0.44485  -0.44237  -0.44163  -0.44080
 Alpha  occ. eigenvalues --   -0.43843  -0.43766  -0.43635  -0.43591  -0.43563
 Alpha  occ. eigenvalues --   -0.43030  -0.42857  -0.42662  -0.42519  -0.42117
 Alpha  occ. eigenvalues --   -0.42105  -0.42009  -0.41424  -0.41101  -0.40870
 Alpha  occ. eigenvalues --   -0.40401  -0.40133  -0.40056  -0.39995  -0.39657
 Alpha  occ. eigenvalues --   -0.39587  -0.39259  -0.39102  -0.38783  -0.38449
 Alpha  occ. eigenvalues --   -0.38069  -0.37946  -0.36493  -0.36271  -0.36245
 Alpha  occ. eigenvalues --   -0.36154  -0.35765  -0.35207  -0.34033  -0.33706
 Alpha  occ. eigenvalues --   -0.32995  -0.32989  -0.32745  -0.32728  -0.32674
 Alpha  occ. eigenvalues --   -0.32528  -0.32169  -0.31073  -0.26221  -0.25951
 Alpha  occ. eigenvalues --   -0.23276  -0.23076
 Alpha virt. eigenvalues --   -0.07362  -0.07104   0.00216   0.00269   0.02313
 Alpha virt. eigenvalues --    0.02644   0.04332   0.04778   0.05279   0.05436
 Alpha virt. eigenvalues --    0.06748   0.07214   0.07726   0.08088   0.08601

 Mulliken charges:
               1
     1  Mg   0.939071
     2  C   -0.014639
     3  C   -0.073860
     4  C   -0.062207
     5  C   -0.108224
     6  N   -0.378526
     7  C    0.014490
     8  C   -0.066801
     9  C   -0.052569
    10  C   -0.019178
    11  C    0.003411
    12  C    0.003925
    13  C   -0.135795
    14  H    0.038448
    15  N   -0.463542
    16  C    0.198448
    17  C   -0.182613
    18  C   -0.073536
    19  C    0.131079
    20  C    0.083020
    21  C    0.052636
    22  O   -0.248052
    23  C   -0.009828
    24  N   -0.296476
    25  C    0.020246
    26  C   -0.042548
    27  C   -0.112653
    28  C    0.095912
    29  C    0.041903
    30  C    0.013790
    31  C   -0.088574
    32  N   -0.408933
    33  C    0.114943
    34  C   -0.133392
    35  C    0.022764
    36  C    0.108217
    37  C    0.062410
    38  C    0.079742
    39  O   -0.226675
    40  C   -0.091692
    41  C    0.269390
    42  O   -0.244551
    43  O   -0.346917
    44  C    0.120663
    45  H   -0.007303
    46  H    0.014670
    47  H   -0.002405
    48  H    0.047181
    49  H    0.033944
    50  H    0.048103
    51  H    0.042015
    52  H    0.040864
    53  H    0.041751
    54  H    0.042542
    55  H    0.057934
    56  H    0.038106
    57  H    0.037972
    58  H    0.060547
    59  H    0.052880
    60  H    0.039015
    61  H    0.045904
    62  H    0.075387
    63  H    0.019730
    64  H    0.023018
    65  H    0.050116
    66  H    0.040567
    67  H    0.051590
    68  H    0.036077
    69  H    0.028684
    70  H    0.022186
    71  H    0.034929
    72  H    0.039565
    73  H    0.074341
    74  H    0.055807
    75  H    0.035984
    76  H    0.056724
    77  H    0.046822
    78  H    0.068349
    79  H    0.073677
    80  Mg   0.984646
    81  C   -0.043451
    82  C   -0.132091
    83  C   -0.102645
    84  C   -0.063496
    85  N   -0.377796
    86  C    0.011467
    87  C   -0.047479
    88  C   -0.123607
    89  C    0.121341
    90  C    0.014132
    91  C    0.012340
    92  C   -0.135658
    93  H    0.033912
    94  N   -0.504988
    95  C    0.212653
    96  C   -0.172266
    97  C   -0.054780
    98  C    0.150164
    99  C    0.106044
   100  C    0.008163
   101  O   -0.195248
   102  C   -0.027868
   103  N   -0.393412
   104  C    0.110801
   105  C   -0.081223
   106  C   -0.082627
   107  C    0.108010
   108  C    0.029374
   109  C   -0.045301
   110  C   -0.025452
   111  N   -0.385686
   112  C    0.093568
   113  C   -0.223083
   114  C    0.000580
   115  C    0.116276
   116  C    0.079632
   117  C    0.128988
   118  O   -0.222382
   119  C   -0.072482
   120  C    0.292596
   121  O   -0.279993
   122  O   -0.349487
   123  C    0.124681
   124  H   -0.016757
   125  H   -0.040268
   126  H   -0.012813
   127  H    0.028355
   128  H    0.045439
   129  H    0.027681
   130  H    0.042788
   131  H    0.043023
   132  H    0.041044
   133  H    0.048460
   134  H    0.069472
   135  H    0.032958
   136  H    0.061746
   137  H    0.011481
   138  H    0.062625
   139  H    0.058167
   140  H    0.066201
   141  H    0.068524
   142  H    0.046811
   143  H    0.038432
   144  H    0.041333
   145  H    0.031648
   146  H    0.038550
   147  H    0.030396
   148  H    0.021522
   149  H    0.036048
   150  H    0.030017
   151  H    0.032949
   152  H    0.030640
   153  H    0.066797
   154  H    0.060803
   155  H    0.055749
   156  H    0.061745
   157  H    0.085142
   158  H    0.056421
 Sum of Mulliken charges =  -0.00000

 Dipole moment (field-independent basis, Debye):
    X=              2.3574    Y=              1.6691    Z=             -0.1489  Tot=              2.8923
 Quadrupole moment (field-independent basis, Debye-Ang):
   XX=           -566.3136   YY=           -571.8627   ZZ=           -486.3093
   XY=           -123.9869   XZ=            -60.2027   YZ=             11.8519

 Normal termination of Gaussian 16 at Sat Sep 18 20:24:42 2021.
