 Gaussian 16, Revision A.03,
 Gaussian 16:  ES64L-G16RevA.03 25-Dec-2016

 --------------------------------
 #p wB97XD/Def2SVP td=(nstates=5)
 --------------------------------

 --------------------------------
 TDDFT excited states in gaussian
 --------------------------------
 Symbolic Z-matrix:
 Charge =  0 Multiplicity = 1

                         Standard orientation:
 ---------------------------------------------------------------------
 Center     Atomic      Atomic             Coordinates (Angstroms)
 Number     Number       Type             X           Y           Z
 ---------------------------------------------------------------------
      1         12           0       19.771976    0.440864    0.435478
      2          6           0       17.285208   -1.455809   -1.207232
      3          6           0       20.416850    2.065714   -2.360670
      4          6           0       22.676335    1.509803    1.882855
      5          6           0       19.645733   -2.139652    3.081266
      6          7           0       18.947392    0.242099   -1.569750
      7          6           0       17.817024   -0.393559   -1.940553
      8          6           0       17.374080    0.128284   -3.321514
      9          6           0       18.325583    1.230126   -3.661993
     10          6           0       19.344959    1.181085   -2.483805
     11          6           0       18.874469    1.135905   -5.144263
     12          6           0       15.871266    0.515438   -3.526507
     13          6           0       15.420978    1.722950   -4.455574
     14          1           0       14.241992    1.507681   -5.415818
     15          7           0       21.190503    1.822493   -0.093611
     16          6           0       21.276541    2.402486   -1.339110
     17          6           0       22.362117    3.340924   -1.308254
     18          6           0       23.108062    3.197380   -0.073976
     19          6           0       22.365407    2.112890    0.605334
     20          6           0       22.630876    4.131158   -2.524414
     21          6           0       24.318922    3.991500    0.475234
     22          8           0       24.817505    3.682604    1.506979
     23          6           0       24.713644    5.291977   -0.145338
     24          7           0       21.001776   -0.289602    2.216127
     25          6           0       22.058598    0.463960    2.594394
     26          6           0       22.696619   -0.046184    3.925996
     27          6           0       21.721084   -1.187089    4.348099
     28          6           0       20.724141   -1.252672    3.164626
     29          6           0       24.121333   -0.522542    3.825450
     30          6           0       20.960386   -1.043364    5.712531
     31          6           0       19.780765   -0.134781    5.796513
     32          7           0       18.740804   -1.416024    0.960549
     33          6           0       18.773695   -2.251888    2.039776
     34          6           0       17.718830   -3.228527    1.919374
     35          6           0       17.086296   -2.989959    0.670901
     36          6           0       17.781951   -1.900905    0.107656
     37          6           0       17.448511   -4.392605    2.805953
     38          6           0       16.077331   -3.428513   -0.250546
     39          8           0       15.226727   -4.310085   -0.210881
     40          6           0       16.124008   -2.425912   -1.489486
     41          6           0       16.167615   -3.140157   -2.829811
     42          8           0       17.085514   -3.828929   -3.193945
     43          8           0       15.024616   -2.829456   -3.549176
     44          6           0       14.958005   -3.502273   -4.846958
     45          1           0       20.563969    2.786975   -3.167744
     46          1           0       23.586610    1.940311    2.304733
     47          1           0       19.535358   -2.840254    3.911470
     48          1           0       17.526991   -0.789601   -3.889165
     49          1           0       17.759215    2.161837   -3.661085
     50          1           0       18.338075    0.352310   -5.679140
     51          1           0       19.959735    1.051868   -5.088049
     52          1           0       18.604200    2.019501   -5.722760
     53          1           0       15.471606    0.737721   -2.536776
     54          1           0       15.276247   -0.332784   -3.866005
     55          1           0       16.318686    1.975424   -5.020268
     56          1           0       15.187844    2.583553   -3.828473
     57          1           0       23.715467    4.222544   -2.578322
     58          1           0       22.222693    5.126577   -2.353457
     59          1           0       22.274038    3.819955   -3.506349
     60          1           0       25.456422    4.980342   -0.878522
     61          1           0       25.027292    5.980069    0.640276
     62          1           0       23.938681    5.774321   -0.741462
     63          1           0       22.604553    0.687245    4.727313
     64          1           0       22.071552   -2.218663    4.360172
     65          1           0       24.564641   -0.254989    2.865407
     66          1           0       24.198683   -1.608364    3.887168
     67          1           0       24.650821   -0.030481    4.640927
     68          1           0       21.655909   -0.718792    6.486558
     69          1           0       20.729942   -2.048179    6.067292
     70          1           0       19.837867    0.615892    5.008032
     71          1           0       19.611797    0.490053    6.673799
     72          1           0       18.915194   -0.796065    5.745523
     73          1           0       18.271953   -5.100413    2.896626
     74          1           0       16.762501   -5.026788    2.243878
     75          1           0       17.068099   -4.081410    3.779251
     76          1           0       15.219941   -1.821645   -1.411830
     77          1           0       15.083947   -2.545612   -5.353002
     78          1           0       13.938592   -3.886318   -4.876097
     79          1           0       15.748425   -4.239297   -4.990478
     80         12           0      -19.613666   -0.598847   -0.614696
     81          6           0      -19.054221    2.872121   -0.126987
     82          6           0      -16.165280   -1.041710   -0.332521
     83          6           0      -20.267530   -3.740842    0.117748
     84          6           0      -23.185590    0.200803   -0.537934
     85          7           0      -17.809646    0.802249   -0.007857
     86          6           0      -17.833409    2.151637   -0.140910
     87          6           0      -16.409985    2.678859   -0.168456
     88          6           0      -15.604877    1.540721   -0.795881
     89          6           0      -16.552588    0.329505   -0.308232
     90          6           0      -15.462623    1.499512   -2.318513
     91          6           0      -15.986015    3.146729    1.291745
     92          6           0      -15.293730    4.452725    1.285163
     93          1           0      -14.067965    4.615248    2.204976
     94          7           0      -18.386765   -2.235672   -0.106857
     95          6           0      -16.969937   -2.222683   -0.127406
     96          6           0      -16.547183   -3.570568    0.158349
     97          6           0      -17.676031   -4.430517    0.213290
     98          6           0      -18.861849   -3.508481    0.101247
     99          6           0      -15.066034   -3.908499    0.295950
    100          6           0      -17.655877   -5.883320    0.482571
    101          8           0      -16.577656   -6.434287    0.666972
    102          6           0      -18.834963   -6.784127    0.652423
    103          7           0      -21.558971   -1.603970   -0.157108
    104          6           0      -21.469206   -2.947637   -0.099944
    105          6           0      -22.869106   -3.587670   -0.121849
    106          6           0      -23.846700   -2.335594   -0.491702
    107          6           0      -22.831654   -1.164354   -0.442680
    108          6           0      -22.990125   -4.886141   -1.039944
    109          6           0      -25.092587   -2.159215    0.431740
    110          6           0      -25.002797   -1.100630    1.583343
    111          7           0      -20.852262    1.080193   -0.398930
    112          6           0      -22.266476    1.236354   -0.457864
    113          6           0      -22.586344    2.727668   -0.544129
    114          6           0      -21.350865    3.329565   -0.366525
    115          6           0      -20.348871    2.296004   -0.304089
    116          6           0      -23.908007    3.502474   -0.708777
    117          6           0      -20.680036    4.589323   -0.306543
    118          8           0      -21.115319    5.732986   -0.450264
    119          6           0      -19.259297    4.271578   -0.003591
    120          6           0      -19.108810    4.723915    1.466899
    121          8           0      -19.479854    4.122264    2.472540
    122          8           0      -18.520920    6.019191    1.448966
    123          6           0      -18.387425    6.706858    2.668652
    124          1           0      -15.091819   -1.242199   -0.346795
    125          1           0      -20.372924   -4.825039    0.191458
    126          1           0      -24.214400    0.543429   -0.661359
    127          1           0      -16.272524    3.513780   -0.855396
    128          1           0      -14.571126    1.366463   -0.499608
    129          1           0      -15.662260    2.453828   -2.805027
    130          1           0      -15.954413    0.624663   -2.744521
    131          1           0      -14.391782    1.334414   -2.442981
    132          1           0      -15.284569    2.418488    1.699001
    133          1           0      -16.785594    3.088472    2.030319
    134          1           0      -16.103415    5.129395    1.555990
    135          1           0      -14.959266    4.655977    0.267962
    136          1           0      -14.668973   -4.437571   -0.570160
    137          1           0      -14.916932   -4.446274    1.231114
    138          1           0      -14.476682   -2.995492    0.381928
    139          1           0      -19.334514   -6.875080   -0.312398
    140          1           0      -19.565056   -6.476633    1.402099
    141          1           0      -18.530829   -7.821653    0.785354
    142          1           0      -23.037611   -3.835974    0.925815
    143          1           0      -24.132409   -2.418825   -1.539751
    144          1           0      -22.020035   -5.365119   -1.171913
    145          1           0      -23.518393   -4.815682   -1.991510
    146          1           0      -23.740192   -5.475640   -0.510374
    147          1           0      -25.416214   -3.099797    0.876728
    148          1           0      -25.847085   -1.808484   -0.271990
    149          1           0      -25.652793   -1.639098    2.273420
    150          1           0      -25.412872   -0.107012    1.401296
    151          1           0      -23.972529   -1.089714    1.939644
    152          1           0      -23.882533    4.134721   -1.595624
    153          1           0      -23.761179    4.180193    0.131658
    154          1           0      -24.723623    2.796161   -0.555422
    155          1           0      -18.609077    4.882664   -0.629703
    156          1           0      -17.941374    7.698687    2.585210
    157          1           0      -17.744705    6.106198    3.311014
    158          1           0      -19.403487    6.789774    3.055494
 ---------------------------------------------------------------------

 SCF Done:  E(RwB97XD) =  -4070.55018607     A.U. after   20 cycles

 Excitation energies and oscillator strengths:

 Excited State   1:      Singlet-A      1.6240 eV  763.46 nm  f=0.3450  <S**2>=0.000
     309 -> 315        0.20415
     312 -> 314        0.67736
     309 <- 315        0.12278
 This state for optimization and/or second-order correction.
 Total Energy, E(TD-HF/TD-DFT) =  -4070.49050630
 Copying the excited state density for this state as the 1-particle RhoCI density.

 Excited State   2:      Singlet-A      1.6418 eV  755.19 nm  f=0.3917  <S**2>=0.000
     310 -> 316       -0.19286
     311 -> 313        0.68100
     310 <- 316       -0.11992

 Excited State   3:      Singlet-A      2.1320 eV  581.55 nm  f=0.1086  <S**2>=0.000
     310 -> 313        0.63964
     311 -> 316        0.28510

 Excited State   4:      Singlet-A      2.1336 eV  581.09 nm  f=0.0516  <S**2>=0.000
     309 -> 314        0.61220
     312 -> 315       -0.34193

 Excited State   5:      Singlet-A      3.3484 eV  370.28 nm  f=0.0010  <S**2>=0.000
     306 -> 313        0.21605
     308 -> 313        0.65081

 The electronic state is 1-A.
 Alpha  occ. eigenvalues --  -46.97654 -46.96321 -19.29973 -19.29954 -19.26345
 Alpha  occ. eigenvalues --  -19.24944 -19.24593 -19.23993 -19.23669 -19.22565
 Alpha  occ. eigenvalues --  -14.46987 -14.46786 -14.46513 -14.46365 -14.44835
 Alpha  occ. eigenvalues --  -14.44342 -14.44101 -14.43383 -10.44503 -10.42954
 Alpha  occ. eigenvalues --  -10.39682 -10.38803 -10.38584 -10.38053 -10.35847
 Alpha  occ. eigenvalues --  -10.35669 -10.35457 -10.35455 -10.35356 -10.35135
 Alpha  occ. eigenvalues --  -10.35044 -10.34985 -10.34959 -10.34862 -10.34776
 Alpha  occ. eigenvalues --  -10.34734 -10.34341 -10.34115 -10.33603 -10.33570
 Alpha  occ. eigenvalues --  -10.33489 -10.33473 -10.33021 -10.32831 -10.32820
 Alpha  occ. eigenvalues --  -10.32570 -10.32547 -10.32454 -10.32441 -10.32310
 Alpha  occ. eigenvalues --  -10.32257 -10.32168 -10.32074 -10.32060 -10.31943
 Alpha  occ. eigenvalues --  -10.31868 -10.31776 -10.31688 -10.31662 -10.31642
 Alpha  occ. eigenvalues --  -10.31610 -10.31455 -10.31391 -10.31306 -10.31171
 Alpha  occ. eigenvalues --  -10.31070 -10.31037 -10.30959 -10.30752 -10.30744
 Alpha  occ. eigenvalues --  -10.30663 -10.30437 -10.30428 -10.30412 -10.30248
 Alpha  occ. eigenvalues --  -10.30221 -10.30168 -10.30038 -10.29618 -10.29509
 Alpha  occ. eigenvalues --  -10.29254 -10.29172 -10.29039 -10.28936 -10.28903
 Alpha  occ. eigenvalues --  -10.28762  -3.23359  -3.22115  -1.96875  -1.96521
 Alpha  occ. eigenvalues --   -1.96271  -1.95668  -1.95239  -1.95064  -1.18446
 Alpha  occ. eigenvalues --   -1.17990  -1.15120  -1.11848  -1.11539  -1.11431
 Alpha  occ. eigenvalues --   -1.10859  -1.10732  -1.06207  -1.06206  -1.05440
 Alpha  occ. eigenvalues --   -1.05125  -1.04864  -1.04506  -1.03863  -1.03292
 Alpha  occ. eigenvalues --   -0.96403  -0.93563  -0.91152  -0.91030  -0.90727
 Alpha  occ. eigenvalues --   -0.90620  -0.90179  -0.89678  -0.89296  -0.89203
 Alpha  occ. eigenvalues --   -0.89105  -0.88785  -0.88023  -0.87501  -0.86690
 Alpha  occ. eigenvalues --   -0.85869  -0.85585  -0.85567  -0.84607  -0.84443
 Alpha  occ. eigenvalues --   -0.83894  -0.83552  -0.82804  -0.82772  -0.82355
 Alpha  occ. eigenvalues --   -0.82233  -0.80255  -0.79982  -0.79190  -0.79051
 Alpha  occ. eigenvalues --   -0.79002  -0.78797  -0.77961  -0.77795  -0.77147
 Alpha  occ. eigenvalues --   -0.76588  -0.74740  -0.74308  -0.73824  -0.73421
 Alpha  occ. eigenvalues --   -0.71833  -0.71717  -0.71179  -0.70714  -0.70200
 Alpha  occ. eigenvalues --   -0.69250  -0.68925  -0.68816  -0.67305  -0.66919
 Alpha  occ. eigenvalues --   -0.66911  -0.66691  -0.66547  -0.66218  -0.66079
 Alpha  occ. eigenvalues --   -0.65995  -0.64217  -0.63677  -0.62035  -0.61920
 Alpha  occ. eigenvalues --   -0.61761  -0.61498  -0.61267  -0.60860  -0.60792
 Alpha  occ. eigenvalues --   -0.60307  -0.60264  -0.59967  -0.59377  -0.59006
 Alpha  occ. eigenvalues --   -0.58093  -0.58038  -0.57932  -0.57836  -0.57614
 Alpha  occ. eigenvalues --   -0.57322  -0.56980  -0.56849  -0.56518  -0.56507
 Alpha  occ. eigenvalues --   -0.55986  -0.55664  -0.55634  -0.55295  -0.55287
 Alpha  occ. eigenvalues --   -0.54971  -0.54700  -0.54566  -0.54281  -0.54088
 Alpha  occ. eigenvalues --   -0.53884  -0.53665  -0.53603  -0.53328  -0.53244
 Alpha  occ. eigenvalues --   -0.53131  -0.52867  -0.52750  -0.52509  -0.52475
 Alpha  occ. eigenvalues --   -0.52224  -0.52082  -0.51944  -0.51897  -0.51420
 Alpha  occ. eigenvalues --   -0.51395  -0.51158  -0.51096  -0.50925  -0.50899
 Alpha  occ. eigenvalues --   -0.50656  -0.50511  -0.50417  -0.50284  -0.50173
 Alpha  occ. eigenvalues --   -0.49698  -0.49636  -0.49395  -0.49167  -0.49109
 Alpha  occ. eigenvalues --   -0.49061  -0.48769  -0.48716  -0.48006  -0.47957
 Alpha  occ. eigenvalues --   -0.47893  -0.47824  -0.47792  -0.47743  -0.47452
 Alpha  occ. eigenvalues --   -0.47360  -0.47357  -0.47225  -0.47057  -0.46546
 Alpha  occ. eigenvalues --   -0.46501  -0.46483  -0.46362  -0.46238  -0.46019
 Alpha  occ. eigenvalues --   -0.45996  -0.45795  -0.45636  -0.45560  -0.45437
 Alpha  occ. eigenvalues --   -0.45210  -0.45204  -0.44984  -0.44970  -0.44897
 Alpha  occ. eigenvalues --   -0.44509  -0.44340  -0.44321  -0.43963  -0.43954
 Alpha  occ. eigenvalues --   -0.43760  -0.43487  -0.43410  -0.43298  -0.42960
 Alpha  occ. eigenvalues --   -0.42869  -0.42797  -0.42473  -0.42322  -0.42011
 Alpha  occ. eigenvalues --   -0.41948  -0.41091  -0.41057  -0.40833  -0.40496
 Alpha  occ. eigenvalues --   -0.40171  -0.40032  -0.39877  -0.39836  -0.39623
 Alpha  occ. eigenvalues --   -0.39326  -0.38989  -0.38594  -0.38312  -0.37908
 Alpha  occ. eigenvalues --   -0.37717  -0.37657  -0.37177  -0.36587  -0.36220
 Alpha  occ. eigenvalues --   -0.35607  -0.35551  -0.35363  -0.33746  -0.33527
 Alpha  occ. eigenvalues --   -0.33022  -0.32978  -0.32707  -0.32620  -0.32133
 Alpha  occ. eigenvalues --   -0.32006  -0.31623  -0.31497  -0.25958  -0.25728
 Alpha  occ. eigenvalues --   -0.22841  -0.22826
 Alpha virt. eigenvalues --   -0.06991  -0.06875  -0.00723   0.00302   0.01858
 Alpha virt. eigenvalues --    0.02478   0.02932   0.04258   0.04323   0.04646
 Alpha virt. eigenvalues --    0.06855   0.07016   0.07576   0.07806   0.08415

 Mulliken charges:
               1
     1  Mg   0.948240
     2  C   -0.025667
     3  C   -0.065337
     4  C   -0.063952
     5  C   -0.102263
     6  N   -0.370802
     7  C   -0.015810
     8  C   -0.028394
     9  C   -0.134523
    10  C    0.098501
    11  C    0.020660
    12  C   -0.030077
    13  C   -0.123645
    14  H    0.053498
    15  N   -0.508403
    16  C    0.144466
    17  C   -0.142150
    18  C   -0.082553
    19  C    0.113058
    20  C    0.033258
    21  C    0.056568
    22  O   -0.199127
    23  C   -0.018025
    24  N   -0.306589
    25  C    0.065671
    26  C   -0.068778
    27  C   -0.048017
    28  C    0.007208
    29  C    0.036418
    30  C   -0.047585
    31  C   -0.031068
    32  N   -0.393434
    33  C    0.166278
    34  C   -0.184852
    35  C   -0.031412
    36  C    0.106000
    37  C    0.061913
    38  C    0.130835
    39  O   -0.210195
    40  C   -0.060577
    41  C    0.252725
    42  O   -0.228672
    43  O   -0.379408
    44  C    0.117869
    45  H   -0.017369
    46  H    0.026209
    47  H   -0.005145
    48  H    0.048826
    49  H    0.042197
    50  H    0.042672
    51  H    0.050109
    52  H    0.032095
    53  H    0.030222
    54  H    0.046382
    55  H    0.034866
    56  H    0.055835
    57  H    0.037099
    58  H    0.055327
    59  H    0.058250
    60  H    0.064552
    61  H    0.073674
    62  H    0.037378
    63  H    0.039934
    64  H    0.035225
    65  H    0.044165
    66  H    0.034857
    67  H    0.041317
    68  H    0.023726
    69  H    0.022437
    70  H    0.035739
    71  H    0.033360
    72  H    0.037210
    73  H    0.045469
    74  H    0.051396
    75  H    0.052668
    76  H    0.070889
    77  H    0.051467
    78  H    0.068796
    79  H    0.086314
    80  Mg   0.936646
    81  C    0.010925
    82  C   -0.075326
    83  C   -0.029843
    84  C   -0.064549
    85  N   -0.298248
    86  C   -0.021713
    87  C   -0.051819
    88  C   -0.134246
    89  C    0.044014
    90  C    0.038292
    91  C    0.033681
    92  C   -0.117031
    93  H    0.034881
    94  N   -0.490387
    95  C    0.145831
    96  C   -0.165432
    97  C   -0.025058
    98  C    0.111820
    99  C    0.096116
   100  C   -0.006977
   101  O   -0.246367
   102  C    0.013991
   103  N   -0.325793
   104  C    0.063040
   105  C   -0.098269
   106  C   -0.020477
   107  C    0.007563
   108  C    0.005940
   109  C   -0.047067
   110  C   -0.048086
   111  N   -0.422709
   112  C    0.106901
   113  C   -0.210791
   114  C   -0.023461
   115  C    0.161608
   116  C    0.090936
   117  C    0.075731
   118  O   -0.216332
   119  C   -0.054922
   120  C    0.276390
   121  O   -0.229426
   122  O   -0.374843
   123  C    0.144851
   124  H    0.004613
   125  H   -0.047382
   126  H   -0.000931
   127  H    0.012646
   128  H    0.029603
   129  H    0.042104
   130  H    0.047034
   131  H    0.028414
   132  H    0.032690
   133  H    0.056497
   134  H    0.045296
   135  H    0.046246
   136  H    0.058413
   137  H    0.061446
   138  H    0.009493
   139  H    0.040884
   140  H    0.071646
   141  H    0.046964
   142  H    0.050776
   143  H    0.037810
   144  H    0.052422
   145  H    0.033861
   146  H    0.031539
   147  H    0.040221
   148  H    0.030965
   149  H    0.035604
   150  H    0.046439
   151  H    0.060480
   152  H    0.072894
   153  H    0.067974
   154  H    0.038962
   155  H    0.060968
   156  H    0.057989
   157  H    0.041807
   158  H    0.053624
 Sum of Mulliken charges =  -0.00000

 Dipole moment (field-independent basis, Debye):
    X=             -1.4542    Y=              4.5173    Z=             -4.2401  Tot=              6.3639
 Quadrupole moment (field-independent basis, Debye-Ang):
   XX=           -387.7945   YY=           -540.1143   ZZ=           -478.8386
   XY=            144.0472   XZ=             46.3604   YZ=             -9.5906

 Normal termination of Gaussian 16 at Sun Sep 19 01:46:31 2021.
