 Gaussian 16, Revision A.03,
 Gaussian 16:  ES64L-G16RevA.03 25-Dec-2016

 --------------------------------
 #p wB97XD/Def2SVP td=(nstates=5)
 --------------------------------

 --------------------------------
 TDDFT excited states in gaussian
 --------------------------------
 Symbolic Z-matrix:
 Charge =  0 Multiplicity = 1

                         Standard orientation:
 ---------------------------------------------------------------------
 Center     Atomic      Atomic             Coordinates (Angstroms)
 Number     Number       Type             X           Y           Z
 ---------------------------------------------------------------------
      1         12           0       -9.554759   -0.936382    0.527155
      2          6           0       -9.779243    2.469542   -0.213307
      3          6           0       -7.397109   -0.042600    3.142519
      4          6           0       -8.793449   -4.157490    1.020968
      5          6           0      -10.790620   -1.636457   -2.607465
      6          7           0       -8.736430    1.043609    1.475520
      7          6           0       -8.969315    2.251982    0.897568
      8          6           0       -8.218898    3.397305    1.686187
      9          6           0       -7.244559    2.517037    2.620483
     10          6           0       -7.764192    1.087874    2.390934
     11          6           0       -5.801815    2.609999    2.008232
     12          6           0       -9.294665    4.155150    2.547838
     13          6           0       -8.786310    5.251418    3.523330
     14          1           0       -9.188443    5.508520    4.945140
     15          7           0       -8.447301   -1.924312    2.001246
     16          6           0       -7.645007   -1.414875    3.035891
     17          6           0       -7.089196   -2.503407    3.723709
     18          6           0       -7.625026   -3.693620    3.250293
     19          6           0       -8.334824   -3.288843    2.048081
     20          6           0       -6.221823   -2.273133    4.917707
     21          6           0       -7.406110   -5.171664    3.713594
     22          8           0       -7.954543   -6.150170    3.217927
     23          6           0       -6.635067   -5.517347    4.990440
     24          7           0       -9.665905   -2.611158   -0.691740
     25          6           0       -9.422200   -3.843086   -0.191539
     26          6           0       -9.900239   -4.987422   -1.106604
     27          6           0      -10.412476   -4.180582   -2.331916
     28          6           0      -10.412611   -2.741873   -1.847237
     29          6           0       -8.845558   -6.120355   -1.336230
     30          6           0      -11.760095   -4.625803   -2.963177
     31          6           0      -12.979865   -4.272488   -2.223100
     32          7           0      -10.259774    0.138020   -1.072718
     33          6           0      -10.717525   -0.250056   -2.240388
     34          6           0      -11.225186    0.875014   -3.032304
     35          6           0      -10.852216    1.983464   -2.206764
     36          6           0      -10.244837    1.499551   -1.064591
     37          6           0      -12.213723    0.874090   -4.102757
     38          6           0      -10.921930    3.432344   -2.132558
     39          8           0      -11.469588    4.234303   -2.854634
     40          6           0      -10.150400    3.776670   -0.852792
     41          6           0       -8.984615    4.731217   -1.131540
     42          8           0       -7.927782    4.394020   -1.598391
     43          8           0       -9.369840    6.017279   -0.837112
     44          6           0       -8.288493    7.001344   -1.073519
     45          1           0       -6.834396    0.254102    4.029122
     46          1           0       -8.753716   -5.224658    1.250201
     47          1           0      -11.262834   -2.126679   -3.460583
     48          1           0       -7.616360    4.029167    1.033158
     49          1           0       -7.229625    2.814872    3.669638
     50          1           0       -5.439754    1.729482    1.478445
     51          1           0       -5.037143    2.597305    2.785291
     52          1           0       -5.657021    3.461988    1.344274
     53          1           0       -9.859146    3.400073    3.094270
     54          1           0      -10.020883    4.572894    1.850034
     55          1           0       -8.878416    6.172172    2.946537
     56          1           0       -7.741486    4.958146    3.617706
     57          1           0       -6.011583   -1.229967    5.155237
     58          1           0       -5.349264   -2.921263    4.825263
     59          1           0       -6.825052   -2.645776    5.746023
     60          1           0       -5.570247   -5.290632    4.935852
     61          1           0       -6.797817   -6.529845    5.360192
     62          1           0       -7.087223   -4.926273    5.787081
     63          1           0      -10.704455   -5.347634   -0.465662
     64          1           0       -9.603679   -4.264531   -3.057799
     65          1           0       -8.183849   -6.217699   -0.476189
     66          1           0       -8.237964   -5.873048   -2.207125
     67          1           0       -9.301896   -7.101547   -1.468700
     68          1           0      -11.634611   -5.707768   -2.990016
     69          1           0      -11.801652   -4.304674   -4.004149
     70          1           0      -13.268490   -3.250174   -2.466860
     71          1           0      -12.848497   -4.428184   -1.152483
     72          1           0      -13.836897   -4.864901   -2.544857
     73          1           0      -12.800232   -0.029700   -3.935930
     74          1           0      -11.892650    0.757727   -5.137997
     75          1           0      -12.781176    1.798351   -3.999215
     76          1           0      -10.852565    4.239422   -0.158521
     77          1           0       -8.740025    7.928379   -1.426324
     78          1           0       -7.622601    6.791335   -1.910796
     79          1           0       -7.763250    7.234126   -0.147787
     80         12           0        9.440732   -0.475513   -0.498538
     81          6           0        7.444378    2.324409   -0.745456
     82          6           0       11.975630    1.701084    0.791662
     83          6           0       11.549275   -2.966792   -0.525706
     84          6           0        7.026010   -2.393958   -2.065026
     85          7           0        9.710647    1.852894   -0.233690
     86          6           0        8.683803    2.685385   -0.195625
     87          6           0        9.039214    3.972297    0.601329
     88          6           0       10.604974    3.902665    0.534297
     89          6           0       10.841777    2.394476    0.355666
     90          6           0       11.191430    4.744931   -0.653933
     91          6           0        8.455784    3.773331    2.017956
     92          6           0        8.543446    4.973954    2.969926
     93          1           0        9.390332    6.176451    2.604427
     94          7           0       11.408977   -0.725375    0.122352
     95          6           0       12.258024    0.302817    0.658896
     96          6           0       13.455461   -0.376182    1.134878
     97          6           0       13.285479   -1.766989    0.849376
     98          6           0       12.048609   -1.887138    0.078826
     99          6           0       14.654115    0.328406    1.873096
    100          6           0       14.217862   -2.941842    1.294271
    101          8           0       13.987658   -4.038586    0.863713
    102          6           0       15.381403   -2.689114    2.197075
    103          7           0        9.268953   -2.454821   -1.122770
    104          6           0       10.292401   -3.334025   -1.034410
    105          6           0        9.967840   -4.700455   -1.636923
    106          6           0        8.472762   -4.541773   -1.998312
    107          6           0        8.232764   -3.004779   -1.706628
    108          6           0       10.854751   -5.132678   -2.861883
    109          6           0        7.502294   -5.513997   -1.377562
    110          6           0        7.546775   -5.840080    0.134808
    111          7           0        7.606347   -0.188272   -1.288844
    112          6           0        6.722069   -1.041256   -1.884799
    113          6           0        5.499988   -0.298770   -2.110815
    114          6           0        5.684126    1.052436   -1.656658
    115          6           0        7.020991    1.047471   -1.172641
    116          6           0        4.269170   -0.881127   -2.732571
    117          6           0        5.124949    2.358224   -1.552052
    118          8           0        4.022893    2.842103   -1.890670
    119          6           0        6.411800    3.281041   -1.188034
    120          6           0        5.914151    4.355000   -0.219245
    121          8           0        5.330248    4.157332    0.776873
    122          8           0        6.231749    5.574804   -0.745392
    123          6           0        6.195147    6.725192    0.133984
    124          1           0       12.763642    2.380881    1.120992
    125          1           0       12.227531   -3.818917   -0.605329
    126          1           0        6.231069   -2.938424   -2.577451
    127          1           0        8.714386    4.877935    0.089282
    128          1           0       10.914646    4.250920    1.519946
    129          1           0       11.625953    5.664714   -0.264352
    130          1           0       10.378036    4.947667   -1.350897
    131          1           0       12.012698    4.251189   -1.173469
    132          1           0        9.042027    2.992357    2.501514
    133          1           0        7.454678    3.344034    1.992379
    134          1           0        8.634962    4.685168    4.017222
    135          1           0        7.518007    5.338987    3.030591
    136          1           0       15.618746    0.078137    1.430565
    137          1           0       14.567641    0.030822    2.917992
    138          1           0       14.491826    1.406901    1.881433
    139          1           0       15.479211   -3.648290    2.706006
    140          1           0       15.153423   -1.974558    2.987156
    141          1           0       16.277864   -2.195527    1.821900
    142          1           0       10.112530   -5.407589   -0.820450
    143          1           0        8.289289   -4.570853   -3.072343
    144          1           0       10.189367   -5.691701   -3.519264
    145          1           0       11.594253   -5.781691   -2.392358
    146          1           0       11.368971   -4.269237   -3.283843
    147          1           0        7.884063   -6.446965   -1.790839
    148          1           0        6.443806   -5.388467   -1.607933
    149          1           0        7.753782   -6.866349    0.435250
    150          1           0        6.566843   -5.718026    0.596201
    151          1           0        8.309158   -5.223325    0.610937
    152          1           0        3.564623   -0.053879   -2.813584
    153          1           0        3.821341   -1.612680   -2.058641
    154          1           0        4.431664   -1.441260   -3.652941
    155          1           0        6.760443    3.660896   -2.148600
    156          1           0        5.538901    7.260110   -0.552681
    157          1           0        7.179886    7.124775    0.377243
    158          1           0        5.655946    6.562259    1.067523
 ---------------------------------------------------------------------

 SCF Done:  E(RwB97XD) =  -4070.62096869     A.U. after   19 cycles

 Excitation energies and oscillator strengths:

 Excited State   1:      Singlet-A      1.6762 eV  739.66 nm  f=0.4142  <S**2>=0.000
     309 -> 315       -0.20139
     311 -> 313        0.67748
     309 <- 315       -0.12016
 This state for optimization and/or second-order correction.
 Total Energy, E(TD-HF/TD-DFT) =  -4070.55936849
 Copying the excited state density for this state as the 1-particle RhoCI density.

 Excited State   2:      Singlet-A      1.6936 eV  732.09 nm  f=0.3510  <S**2>=0.000
     310 -> 316       -0.19006
     312 -> 314        0.68014
     310 <- 316       -0.11498

 Excited State   3:      Singlet-A      2.1631 eV  573.18 nm  f=0.0822  <S**2>=0.000
     309 -> 313        0.63295
     311 -> 315        0.30186

 Excited State   4:      Singlet-A      2.2139 eV  560.03 nm  f=0.1142  <S**2>=0.000
     310 -> 314        0.64255
     312 -> 316        0.27774

 Excited State   5:      Singlet-A      3.5372 eV  350.51 nm  f=0.0000  <S**2>=0.000
     312 -> 313        0.70664

 The electronic state is 1-A.
 Alpha  occ. eigenvalues --  -46.94873 -46.94643 -19.30800 -19.29682 -19.25246
 Alpha  occ. eigenvalues --  -19.25115 -19.24353 -19.24157 -19.24097 -19.23673
 Alpha  occ. eigenvalues --  -14.46674 -14.46357 -14.46318 -14.45449 -14.43934
 Alpha  occ. eigenvalues --  -14.43930 -14.43608 -14.43515 -10.43416 -10.42826
 Alpha  occ. eigenvalues --  -10.40056 -10.39229 -10.39170 -10.38308 -10.35332
 Alpha  occ. eigenvalues --  -10.35262 -10.34936 -10.34779 -10.34661 -10.34611
 Alpha  occ. eigenvalues --  -10.34519 -10.34474 -10.34379 -10.34339 -10.34292
 Alpha  occ. eigenvalues --  -10.33777 -10.33711 -10.33560 -10.33409 -10.33398
 Alpha  occ. eigenvalues --  -10.32988 -10.32825 -10.32806 -10.32606 -10.32522
 Alpha  occ. eigenvalues --  -10.32480 -10.32432 -10.32406 -10.32197 -10.31884
 Alpha  occ. eigenvalues --  -10.31830 -10.31810 -10.31802 -10.31761 -10.31735
 Alpha  occ. eigenvalues --  -10.31648 -10.31575 -10.31547 -10.31546 -10.31471
 Alpha  occ. eigenvalues --  -10.31402 -10.31382 -10.31192 -10.30978 -10.30840
 Alpha  occ. eigenvalues --  -10.30759 -10.30713 -10.30614 -10.30550 -10.30417
 Alpha  occ. eigenvalues --  -10.30151 -10.30145 -10.30122 -10.30084 -10.29970
 Alpha  occ. eigenvalues --  -10.29879 -10.29810 -10.29744 -10.29713 -10.29408
 Alpha  occ. eigenvalues --  -10.29156 -10.29110 -10.28958 -10.28949 -10.28809
 Alpha  occ. eigenvalues --  -10.28129  -3.20879  -3.20708  -1.94454  -1.94300
 Alpha  occ. eigenvalues --   -1.94016  -1.93851  -1.93834  -1.93669  -1.19838
 Alpha  occ. eigenvalues --   -1.18773  -1.13729  -1.12511  -1.12330  -1.12070
 Alpha  occ. eigenvalues --   -1.10745  -1.10318  -1.07252  -1.06785  -1.06120
 Alpha  occ. eigenvalues --   -1.05615  -1.05190  -1.05143  -1.04332  -1.04121
 Alpha  occ. eigenvalues --   -0.95614  -0.95074  -0.91239  -0.91137  -0.90624
 Alpha  occ. eigenvalues --   -0.90435  -0.90350  -0.89884  -0.89281  -0.89278
 Alpha  occ. eigenvalues --   -0.88969  -0.88424  -0.87942  -0.87625  -0.86023
 Alpha  occ. eigenvalues --   -0.85793  -0.85643  -0.85352  -0.84356  -0.84113
 Alpha  occ. eigenvalues --   -0.83687  -0.83413  -0.83303  -0.82687  -0.82281
 Alpha  occ. eigenvalues --   -0.82193  -0.80335  -0.79969  -0.79351  -0.79297
 Alpha  occ. eigenvalues --   -0.78773  -0.78332  -0.77863  -0.77861  -0.77469
 Alpha  occ. eigenvalues --   -0.76605  -0.74706  -0.74277  -0.74014  -0.73581
 Alpha  occ. eigenvalues --   -0.72205  -0.71797  -0.70947  -0.70900  -0.70127
 Alpha  occ. eigenvalues --   -0.70125  -0.68859  -0.68219  -0.67193  -0.67149
 Alpha  occ. eigenvalues --   -0.66892  -0.66589  -0.66317  -0.66242  -0.66162
 Alpha  occ. eigenvalues --   -0.65805  -0.64393  -0.64285  -0.62509  -0.61938
 Alpha  occ. eigenvalues --   -0.61659  -0.61274  -0.61180  -0.61145  -0.60857
 Alpha  occ. eigenvalues --   -0.60362  -0.60186  -0.60053  -0.59913  -0.59183
 Alpha  occ. eigenvalues --   -0.58311  -0.58160  -0.58141  -0.57664  -0.57406
 Alpha  occ. eigenvalues --   -0.57313  -0.57292  -0.57071  -0.56343  -0.56234
 Alpha  occ. eigenvalues --   -0.55729  -0.55663  -0.55505  -0.55066  -0.54928
 Alpha  occ. eigenvalues --   -0.54880  -0.54445  -0.54356  -0.54349  -0.54237
 Alpha  occ. eigenvalues --   -0.54034  -0.53853  -0.53753  -0.52875  -0.52746
 Alpha  occ. eigenvalues --   -0.52706  -0.52682  -0.52339  -0.52115  -0.52094
 Alpha  occ. eigenvalues --   -0.51936  -0.51694  -0.51650  -0.51524  -0.51460
 Alpha  occ. eigenvalues --   -0.51287  -0.51242  -0.51216  -0.50973  -0.50785
 Alpha  occ. eigenvalues --   -0.50719  -0.50549  -0.50301  -0.50209  -0.50109
 Alpha  occ. eigenvalues --   -0.49933  -0.49665  -0.49594  -0.49233  -0.48880
 Alpha  occ. eigenvalues --   -0.48848  -0.48578  -0.48504  -0.48436  -0.47943
 Alpha  occ. eigenvalues --   -0.47875  -0.47784  -0.47735  -0.47557  -0.47464
 Alpha  occ. eigenvalues --   -0.47204  -0.47103  -0.46977  -0.46823  -0.46713
 Alpha  occ. eigenvalues --   -0.46649  -0.46461  -0.46173  -0.45931  -0.45833
 Alpha  occ. eigenvalues --   -0.45805  -0.45601  -0.45449  -0.45325  -0.45236
 Alpha  occ. eigenvalues --   -0.45084  -0.45004  -0.44941  -0.44882  -0.44662
 Alpha  occ. eigenvalues --   -0.44610  -0.44328  -0.44301  -0.44259  -0.44134
 Alpha  occ. eigenvalues --   -0.44087  -0.43983  -0.43823  -0.43642  -0.43609
 Alpha  occ. eigenvalues --   -0.43468  -0.43377  -0.42881  -0.42457  -0.42154
 Alpha  occ. eigenvalues --   -0.41933  -0.41550  -0.41360  -0.41353  -0.40589
 Alpha  occ. eigenvalues --   -0.40329  -0.40181  -0.39905  -0.39626  -0.39597
 Alpha  occ. eigenvalues --   -0.39491  -0.39199  -0.39105  -0.38628  -0.38430
 Alpha  occ. eigenvalues --   -0.38090  -0.37789  -0.37223  -0.36689  -0.36079
 Alpha  occ. eigenvalues --   -0.35977  -0.35605  -0.35227  -0.33700  -0.33450
 Alpha  occ. eigenvalues --   -0.33050  -0.32954  -0.32596  -0.32533  -0.32086
 Alpha  occ. eigenvalues --   -0.32049  -0.31540  -0.31155  -0.25763  -0.25554
 Alpha  occ. eigenvalues --   -0.22935  -0.22713
 Alpha virt. eigenvalues --   -0.06819  -0.06551  -0.00007   0.00774   0.02207
 Alpha virt. eigenvalues --    0.02655   0.04520   0.04684   0.05549   0.06058
 Alpha virt. eigenvalues --    0.07562   0.07948   0.08173   0.08257   0.08473

 Mulliken charges:
               1
     1  Mg   0.973240
     2  C   -0.006901
     3  C   -0.073636
     4  C   -0.111684
     5  C   -0.060563
     6  N   -0.282189
     7  C   -0.051166
     8  C   -0.080944
     9  C   -0.121644
    10  C    0.038322
    11  C    0.008764
    12  C   -0.013253
    13  C   -0.096410
    14  H    0.057905
    15  N   -0.474466
    16  C    0.176181
    17  C   -0.164038
    18  C   -0.081670
    19  C    0.151230
    20  C    0.070974
    21  C    0.085282
    22  O   -0.234203
    23  C   -0.021098
    24  N   -0.406278
    25  C    0.076067
    26  C   -0.112187
    27  C   -0.035647
    28  C   -0.010191
    29  C    0.035750
    30  C   -0.020818
    31  C   -0.015265
    32  N   -0.411348
    33  C    0.152358
    34  C   -0.157255
    35  C   -0.070529
    36  C    0.151435
    37  C    0.070616
    38  C    0.116388
    39  O   -0.187856
    40  C   -0.074544
    41  C    0.263539
    42  O   -0.226738
    43  O   -0.360960
    44  C    0.124733
    45  H   -0.012391
    46  H    0.022014
    47  H   -0.019793
    48  H    0.048083
    49  H    0.048487
    50  H    0.043375
    51  H    0.026810
    52  H    0.051661
    53  H    0.035089
    54  H    0.031899
    55  H    0.051105
    56  H    0.036843
    57  H    0.044921
    58  H    0.048810
    59  H    0.049849
    60  H    0.058249
    61  H    0.054266
    62  H    0.041117
    63  H    0.040778
    64  H    0.042802
    65  H    0.048951
    66  H    0.031710
    67  H    0.039641
    68  H    0.022460
    69  H    0.034822
    70  H    0.032086
    71  H    0.032762
    72  H    0.035072
    73  H    0.029252
    74  H    0.041738
    75  H    0.063804
    76  H    0.078901
    77  H    0.049506
    78  H    0.069733
    79  H    0.056283
    80  Mg   0.965769
    81  C   -0.025860
    82  C   -0.077239
    83  C   -0.087980
    84  C   -0.117673
    85  N   -0.288287
    86  C   -0.035963
    87  C   -0.084184
    88  C   -0.089525
    89  C    0.019541
    90  C    0.040474
    91  C    0.000343
    92  C   -0.089263
    93  H    0.044275
    94  N   -0.478727
    95  C    0.175962
    96  C   -0.189359
    97  C   -0.081195
    98  C    0.188749
    99  C    0.062406
   100  C    0.064866
   101  O   -0.213691
   102  C   -0.007233
   103  N   -0.341984
   104  C    0.014524
   105  C   -0.099379
   106  C   -0.054332
   107  C    0.091070
   108  C    0.035518
   109  C   -0.010015
   110  C   -0.072454
   111  N   -0.486741
   112  C    0.144572
   113  C   -0.184388
   114  C   -0.031076
   115  C    0.180477
   116  C    0.067912
   117  C    0.153252
   118  O   -0.233403
   119  C   -0.147572
   120  C    0.242900
   121  O   -0.186207
   122  O   -0.368461
   123  C    0.110558
   124  H    0.003763
   125  H    0.009670
   126  H   -0.005277
   127  H    0.019551
   128  H    0.022818
   129  H    0.039807
   130  H    0.043958
   131  H    0.040453
   132  H    0.025724
   133  H    0.065727
   134  H    0.042497
   135  H    0.037914
   136  H    0.059112
   137  H    0.057670
   138  H    0.030195
   139  H    0.058124
   140  H    0.020493
   141  H    0.069295
   142  H    0.047894
   143  H    0.031417
   144  H    0.046418
   145  H    0.047897
   146  H    0.054290
   147  H    0.029315
   148  H    0.040792
   149  H    0.032763
   150  H    0.032656
   151  H    0.039470
   152  H    0.062675
   153  H    0.042825
   154  H    0.047749
   155  H    0.085934
   156  H    0.070236
   157  H    0.062644
   158  H    0.062554
 Sum of Mulliken charges =  -0.00000

 Dipole moment (field-independent basis, Debye):
    X=              5.8231    Y=             -0.9861    Z=              5.1704  Tot=              7.8494
 Quadrupole moment (field-independent basis, Debye-Ang):
   XX=           -476.4578   YY=           -488.3612   ZZ=           -492.7585
   XY=             54.9313   XZ=             -5.6657   YZ=             35.1162

 Normal termination of Gaussian 16 at Sat Sep 18 16:45:28 2021.
