 Gaussian 16, Revision A.03,
 Gaussian 16:  ES64L-G16RevA.03 25-Dec-2016

 --------------------------------
 #p wB97XD/Def2SVP td=(nstates=5)
 --------------------------------

 --------------------------------
 TDDFT excited states in gaussian
 --------------------------------
 Symbolic Z-matrix:
 Charge =  0 Multiplicity = 1

                         Standard orientation:
 ---------------------------------------------------------------------
 Center     Atomic      Atomic             Coordinates (Angstroms)
 Number     Number       Type             X           Y           Z
 ---------------------------------------------------------------------
      1         12           0       30.525760    0.191297   -0.395518
      2          6           0       28.026587   -1.309082    1.910238
      3          6           0       30.111649    2.965607    1.490120
      4          6           0       32.438235    1.449162   -2.588197
      5          6           0       29.958745   -2.645715   -2.470073
      6          7           0       29.181220    0.736786    1.431813
      7          6           0       28.426668   -0.070887    2.265772
      8          6           0       28.010311    0.587077    3.586283
      9          6           0       28.299034    2.072989    3.209387
     10          6           0       29.255961    1.963930    1.959823
     11          6           0       27.089795    2.900601    2.906557
     12          6           0       28.697931    0.067151    4.893097
     13          6           0       27.920996    0.123493    6.165857
     14          1           0       28.732302    0.468906    7.410561
     15          7           0       31.254675    2.000972   -0.527588
     16          6           0       31.027447    3.046656    0.391505
     17          6           0       31.906252    4.127055    0.047553
     18          6           0       32.695945    3.595110   -1.062441
     19          6           0       32.139956    2.334971   -1.401198
     20          6           0       32.056798    5.465166    0.861581
     21          6           0       33.860300    4.286125   -1.703607
     22          8           0       34.458076    3.802613   -2.695718
     23          6           0       34.431630    5.559248   -1.195339
     24          7           0       31.018000   -0.372934   -2.326675
     25          6           0       31.880469    0.324722   -3.068547
     26          6           0       32.217327   -0.339714   -4.441906
     27          6           0       31.756681   -1.808886   -4.114333
     28          6           0       30.801597   -1.610201   -2.905669
     29          6           0       31.389763    0.276197   -5.615616
     30          6           0       32.970264   -2.743133   -3.700679
     31          6           0       34.193318   -2.855565   -4.634966
     32          7           0       29.303736   -1.633474   -0.310152
     33          6           0       29.259447   -2.691932   -1.210394
     34          6           0       28.312623   -3.680579   -0.750153
     35          6           0       27.840278   -3.199442    0.477609
     36          6           0       28.397903   -1.906905    0.678559
     37          6           0       28.026829   -5.005322   -1.373619
     38          6           0       26.961204   -3.512430    1.596613
     39          8           0       26.274855   -4.481498    1.892903
     40          6           0       27.170321   -2.265727    2.603291
     41          6           0       25.833591   -1.802210    2.933467
     42          8           0       24.993605   -1.331140    2.150653
     43          8           0       25.484399   -2.361325    4.129281
     44          6           0       24.181688   -2.119967    4.661401
     45          1           0       30.041155    3.771655    2.223691
     46          1           0       33.094978    1.842235   -3.366827
     47          1           0       29.839204   -3.499101   -3.141388
     48          1           0       26.933070    0.451498    3.684904
     49          1           0       28.927102    2.543980    3.964982
     50          1           0       27.071325    3.051924    1.827251
     51          1           0       27.197865    3.886906    3.357575
     52          1           0       26.120825    2.496011    3.198309
     53          1           0       29.570001    0.698469    5.061083
     54          1           0       29.063836   -0.938402    4.687286
     55          1           0       27.527694   -0.887821    6.267120
     56          1           0       26.988699    0.679089    6.063747
     57          1           0       32.966937    5.555205    1.453835
     58          1           0       31.179045    5.655750    1.478518
     59          1           0       32.044102    6.202745    0.058176
     60          1           0       33.760737    6.370934   -1.477872
     61          1           0       35.394962    5.667436   -1.694469
     62          1           0       34.583801    5.423512   -0.125098
     63          1           0       33.288071   -0.192775   -4.587343
     64          1           0       31.192418   -2.312859   -4.898425
     65          1           0       32.103255    0.800410   -6.251897
     66          1           0       30.556658    0.916159   -5.326768
     67          1           0       31.034738   -0.621589   -6.123606
     68          1           0       32.606344   -3.767944   -3.630969
     69          1           0       33.240896   -2.451487   -2.686043
     70          1           0       35.036021   -2.532869   -4.023742
     71          1           0       34.000698   -2.115872   -5.412574
     72          1           0       34.359111   -3.873012   -4.988788
     73          1           0       28.833034   -5.141627   -2.094786
     74          1           0       27.067114   -4.897999   -1.879041
     75          1           0       27.928095   -5.822079   -0.658617
     76          1           0       27.696560   -2.603020    3.496082
     77          1           0       23.601541   -1.452236    4.024101
     78          1           0       24.354943   -1.609083    5.608627
     79          1           0       23.679078   -3.052052    4.915711
     80         12           0      -30.053336    0.697780    0.459752
     81          6           0      -28.555729   -2.493615    0.486977
     82          6           0      -27.003258    1.982073   -0.349432
     83          6           0      -31.627051    3.632822   -0.308627
     84          6           0      -33.168929   -1.000272    0.790981
     85          7           0      -28.006476   -0.200203   -0.036039
     86          6           0      -27.559037   -1.472532    0.177103
     87          6           0      -26.094134   -1.655629   -0.255813
     88          6           0      -25.652912   -0.116162   -0.122076
     89          6           0      -26.973399    0.611645   -0.169037
     90          6           0      -24.852838    0.246670    1.157676
     91          6           0      -25.904131   -2.184103   -1.748459
     92          6           0      -24.617092   -2.907007   -2.114583
     93          1           0      -23.564177   -2.285113   -3.056465
     94          7           0      -29.452743    2.647488   -0.219601
     95          6           0      -28.131495    2.964309   -0.346673
     96          6           0      -27.959244    4.337510   -0.528784
     97          6           0      -29.296063    4.887231   -0.498806
     98          6           0      -30.227705    3.731252   -0.369553
     99          6           0      -26.615515    5.039024   -0.685883
    100          6           0      -29.568655    6.369586   -0.618747
    101          8           0      -28.605717    7.169895   -0.741097
    102          6           0      -30.997462    7.005468   -0.488796
    103          7           0      -32.072648    1.170463    0.290887
    104          6           0      -32.481183    2.497704   -0.011345
    105          6           0      -33.946554    2.662262    0.281756
    106          6           0      -34.500367    1.220907    0.288632
    107          6           0      -33.207438    0.394223    0.548975
    108          6           0      -34.397102    3.330366    1.600480
    109          6           0      -35.147700    0.803530   -1.135040
    110          6           0      -36.590586    1.193021   -1.418978
    111          7           0      -30.691341   -1.331178    0.792679
    112          6           0      -31.969594   -1.854940    0.915004
    113          6           0      -31.949171   -3.232842    1.021480
    114          6           0      -30.586602   -3.559573    0.912555
    115          6           0      -29.869896   -2.361995    0.750038
    116          6           0      -33.152629   -4.102425    1.205888
    117          6           0      -29.688356   -4.586076    1.001261
    118          8           0      -29.856484   -5.750340    1.306253
    119          6           0      -28.375316   -3.970182    0.473983
    120          6           0      -28.182399   -4.578430   -0.883072
    121          8           0      -28.972796   -4.494769   -1.770961
    122          8           0      -26.993917   -5.309894   -0.919312
    123          6           0      -26.848272   -6.042988   -2.128581
    124          1           0      -26.022367    2.459460   -0.403176
    125          1           0      -32.168691    4.580874   -0.343091
    126          1           0      -34.143544   -1.431177    1.028579
    127          1           0      -25.503359   -2.189599    0.487723
    128          1           0      -24.987947    0.085042   -0.961521
    129          1           0      -23.822794    0.236834    0.800183
    130          1           0      -24.953188   -0.509145    1.936541
    131          1           0      -25.097087    1.247681    1.513610
    132          1           0      -25.931724   -1.351922   -2.451952
    133          1           0      -26.788285   -2.779308   -1.977754
    134          1           0      -24.960871   -3.847025   -2.548621
    135          1           0      -24.115779   -3.161368   -1.180865
    136          1           0      -26.469489    6.029918   -0.254568
    137          1           0      -26.549477    4.994975   -1.772738
    138          1           0      -25.841051    4.478665   -0.162099
    139          1           0      -31.391363    6.810240    0.508248
    140          1           0      -31.542353    6.511844   -1.293251
    141          1           0      -31.080806    8.059223   -0.754464
    142          1           0      -34.372218    3.180924   -0.576642
    143          1           0      -35.246456    1.067809    1.068470
    144          1           0      -34.902816    2.670486    2.305181
    145          1           0      -34.737467    4.352190    1.431483
    146          1           0      -33.460306    3.528418    2.121090
    147          1           0      -35.034080   -0.278855   -1.078230
    148          1           0      -34.548625    1.188154   -1.960650
    149          1           0      -36.637415    1.717130   -2.373174
    150          1           0      -36.946631    1.852808   -0.627281
    151          1           0      -37.226520    0.313538   -1.523249
    152          1           0      -33.067762   -4.890919    0.458669
    153          1           0      -34.085492   -3.582197    0.985077
    154          1           0      -33.192750   -4.568160    2.190713
    155          1           0      -27.570399   -4.271179    1.143628
    156          1           0      -27.251014   -7.047022   -1.997926
    157          1           0      -25.810741   -6.269332   -2.377271
    158          1           0      -27.355728   -5.567990   -2.966468
 ---------------------------------------------------------------------

 SCF Done:  E(RwB97XD) =  -4070.58158365     A.U. after   20 cycles

 Excitation energies and oscillator strengths:

 Excited State   1:      Singlet-A      1.6008 eV  774.51 nm  f=0.3856  <S**2>=0.000
     310 -> 316       -0.16170
     312 -> 313        0.68932
     310 <- 316       -0.11299
 This state for optimization and/or second-order correction.
 Total Energy, E(TD-HF/TD-DFT) =  -4070.52275525
 Copying the excited state density for this state as the 1-particle RhoCI density.

 Excited State   2:      Singlet-A      1.6461 eV  753.18 nm  f=0.4031  <S**2>=0.000
     309 -> 315       -0.19125
     311 -> 314        0.68053
     309 <- 315       -0.11799

 Excited State   3:      Singlet-A      2.0912 eV  592.88 nm  f=0.1265  <S**2>=0.000
     309 -> 314        0.64854
     311 -> 315        0.26305

 Excited State   4:      Singlet-A      2.1246 eV  583.56 nm  f=0.2113  <S**2>=0.000
     310 -> 313        0.66541
     312 -> 316        0.22056

 Excited State   5:      Singlet-A      3.1834 eV  389.47 nm  f=0.0052  <S**2>=0.000
     303 -> 313        0.18212
     305 -> 313        0.66095

 The electronic state is 1-A.
 Alpha  occ. eigenvalues --  -46.96655 -46.95245 -19.30632 -19.30061 -19.25845
 Alpha  occ. eigenvalues --  -19.25003 -19.24407 -19.23169 -19.22928 -19.22451
 Alpha  occ. eigenvalues --  -14.47782 -14.47275 -14.46942 -14.46008 -14.44409
 Alpha  occ. eigenvalues --  -14.44283 -14.44203 -14.43821 -10.43561 -10.43025
 Alpha  occ. eigenvalues --  -10.40061 -10.39024 -10.37931 -10.37356 -10.36474
 Alpha  occ. eigenvalues --  -10.36369 -10.35692 -10.35464 -10.34995 -10.34860
 Alpha  occ. eigenvalues --  -10.34800 -10.34781 -10.34744 -10.34730 -10.34699
 Alpha  occ. eigenvalues --  -10.34488 -10.34452 -10.34289 -10.33981 -10.33849
 Alpha  occ. eigenvalues --  -10.33323 -10.33215 -10.33124 -10.33081 -10.32920
 Alpha  occ. eigenvalues --  -10.32476 -10.32401 -10.32377 -10.32371 -10.32276
 Alpha  occ. eigenvalues --  -10.32189 -10.32171 -10.32110 -10.32095 -10.32067
 Alpha  occ. eigenvalues --  -10.32049 -10.32038 -10.32005 -10.31903 -10.31869
 Alpha  occ. eigenvalues --  -10.31713 -10.31712 -10.31651 -10.31548 -10.31532
 Alpha  occ. eigenvalues --  -10.31498 -10.31420 -10.31305 -10.30999 -10.30777
 Alpha  occ. eigenvalues --  -10.30473 -10.30433 -10.30351 -10.30331 -10.30235
 Alpha  occ. eigenvalues --  -10.30096 -10.29965 -10.29794 -10.29790 -10.29648
 Alpha  occ. eigenvalues --  -10.29626 -10.29565 -10.29466 -10.29441 -10.29384
 Alpha  occ. eigenvalues --  -10.28197  -3.22426  -3.21347  -1.96006  -1.95535
 Alpha  occ. eigenvalues --   -1.95384  -1.94906  -1.94469  -1.94334  -1.19801
 Alpha  occ. eigenvalues --   -1.18746  -1.12522  -1.12264  -1.11744  -1.09643
 Alpha  occ. eigenvalues --   -1.09532  -1.09236  -1.07782  -1.06934  -1.06717
 Alpha  occ. eigenvalues --   -1.06063  -1.05982  -1.05672  -1.04602  -1.03908
 Alpha  occ. eigenvalues --   -0.96376  -0.95719  -0.91424  -0.90869  -0.90686
 Alpha  occ. eigenvalues --   -0.90636  -0.90563  -0.89963  -0.89528  -0.89399
 Alpha  occ. eigenvalues --   -0.89032  -0.88796  -0.88187  -0.87870  -0.86640
 Alpha  occ. eigenvalues --   -0.86304  -0.85985  -0.85535  -0.85031  -0.84837
 Alpha  occ. eigenvalues --   -0.84026  -0.83820  -0.83040  -0.82788  -0.82655
 Alpha  occ. eigenvalues --   -0.82305  -0.80516  -0.80023  -0.79426  -0.79311
 Alpha  occ. eigenvalues --   -0.79223  -0.78899  -0.78178  -0.77909  -0.77651
 Alpha  occ. eigenvalues --   -0.77391  -0.75612  -0.75369  -0.74245  -0.72906
 Alpha  occ. eigenvalues --   -0.71481  -0.71221  -0.70601  -0.70421  -0.70394
 Alpha  occ. eigenvalues --   -0.70184  -0.69168  -0.68921  -0.68256  -0.67662
 Alpha  occ. eigenvalues --   -0.67328  -0.67093  -0.66906  -0.66716  -0.66467
 Alpha  occ. eigenvalues --   -0.66241  -0.64809  -0.64060  -0.62742  -0.62508
 Alpha  occ. eigenvalues --   -0.62164  -0.61791  -0.61588  -0.61506  -0.61194
 Alpha  occ. eigenvalues --   -0.61035  -0.60848  -0.60396  -0.60091  -0.59706
 Alpha  occ. eigenvalues --   -0.58499  -0.57865  -0.57695  -0.57612  -0.57285
 Alpha  occ. eigenvalues --   -0.57081  -0.56868  -0.56622  -0.56105  -0.55813
 Alpha  occ. eigenvalues --   -0.55671  -0.55513  -0.55191  -0.55127  -0.54780
 Alpha  occ. eigenvalues --   -0.54739  -0.54530  -0.54475  -0.54359  -0.54222
 Alpha  occ. eigenvalues --   -0.53787  -0.53705  -0.53358  -0.53356  -0.53192
 Alpha  occ. eigenvalues --   -0.53155  -0.52942  -0.52793  -0.52552  -0.52226
 Alpha  occ. eigenvalues --   -0.52071  -0.51851  -0.51827  -0.51785  -0.51668
 Alpha  occ. eigenvalues --   -0.51645  -0.51457  -0.51339  -0.51164  -0.50937
 Alpha  occ. eigenvalues --   -0.50745  -0.50658  -0.50421  -0.50261  -0.50080
 Alpha  occ. eigenvalues --   -0.49873  -0.49792  -0.49523  -0.49281  -0.49176
 Alpha  occ. eigenvalues --   -0.49159  -0.48967  -0.48546  -0.48460  -0.48361
 Alpha  occ. eigenvalues --   -0.48348  -0.48261  -0.48150  -0.47975  -0.47902
 Alpha  occ. eigenvalues --   -0.47726  -0.47385  -0.47238  -0.47042  -0.47008
 Alpha  occ. eigenvalues --   -0.46927  -0.46748  -0.46668  -0.46517  -0.46301
 Alpha  occ. eigenvalues --   -0.45926  -0.45821  -0.45720  -0.45676  -0.45290
 Alpha  occ. eigenvalues --   -0.45187  -0.45176  -0.45067  -0.44899  -0.44770
 Alpha  occ. eigenvalues --   -0.44602  -0.44557  -0.44441  -0.44159  -0.44043
 Alpha  occ. eigenvalues --   -0.43921  -0.43609  -0.43453  -0.43296  -0.43245
 Alpha  occ. eigenvalues --   -0.43177  -0.42918  -0.42662  -0.42594  -0.42398
 Alpha  occ. eigenvalues --   -0.42207  -0.41750  -0.41380  -0.41361  -0.41239
 Alpha  occ. eigenvalues --   -0.40483  -0.40443  -0.40171  -0.39826  -0.39694
 Alpha  occ. eigenvalues --   -0.39583  -0.39238  -0.39135  -0.38900  -0.38635
 Alpha  occ. eigenvalues --   -0.38412  -0.37868  -0.37494  -0.37064  -0.36632
 Alpha  occ. eigenvalues --   -0.36279  -0.35675  -0.35404  -0.33789  -0.33659
 Alpha  occ. eigenvalues --   -0.33450  -0.32465  -0.32253  -0.32161  -0.32080
 Alpha  occ. eigenvalues --   -0.31984  -0.31776  -0.31641  -0.26239  -0.26182
 Alpha  occ. eigenvalues --   -0.23841  -0.23556
 Alpha virt. eigenvalues --   -0.08032  -0.07958  -0.00585   0.01132   0.02002
 Alpha virt. eigenvalues --    0.02349   0.04273   0.04560   0.04693   0.04934
 Alpha virt. eigenvalues --    0.06094   0.06750   0.07438   0.07638   0.07991

 Mulliken charges:
               1
     1  Mg   0.983632
     2  C   -0.013809
     3  C   -0.065961
     4  C   -0.042960
     5  C   -0.082944
     6  N   -0.296737
     7  C   -0.036613
     8  C   -0.083975
     9  C   -0.102471
    10  C   -0.016541
    11  C    0.047892
    12  C    0.043144
    13  C   -0.116546
    14  H    0.053884
    15  N   -0.496803
    16  C    0.190312
    17  C   -0.170646
    18  C   -0.082144
    19  C    0.148033
    20  C    0.071680
    21  C    0.008615
    22  O   -0.274930
    23  C    0.009937
    24  N   -0.391852
    25  C    0.045274
    26  C   -0.110519
    27  C   -0.102388
    28  C    0.088825
    29  C    0.051761
    30  C   -0.033933
    31  C   -0.032705
    32  N   -0.400039
    33  C    0.123031
    34  C   -0.202536
    35  C   -0.040124
    36  C    0.129377
    37  C    0.087856
    38  C    0.156465
    39  O   -0.192259
    40  C   -0.059954
    41  C    0.245553
    42  O   -0.268763
    43  O   -0.350393
    44  C    0.133675
    45  H   -0.007710
    46  H    0.013689
    47  H    0.004993
    48  H    0.033355
    49  H    0.025428
    50  H    0.044487
    51  H    0.034251
    52  H    0.048403
    53  H    0.032036
    54  H    0.031259
    55  H    0.048003
    56  H    0.042918
    57  H    0.068034
    58  H    0.040306
    59  H    0.043083
    60  H    0.063985
    61  H    0.055083
    62  H    0.045489
    63  H    0.047128
    64  H    0.025415
    65  H    0.046384
    66  H    0.060249
    67  H    0.027966
    68  H    0.024661
    69  H    0.033425
    70  H    0.042559
    71  H    0.036213
    72  H    0.048604
    73  H    0.031180
    74  H    0.060014
    75  H    0.065023
    76  H    0.071919
    77  H    0.066086
    78  H    0.033734
    79  H    0.061947
    80  Mg   0.948310
    81  C    0.000500
    82  C   -0.064782
    83  C   -0.087385
    84  C   -0.085756
    85  N   -0.297937
    86  C   -0.037947
    87  C   -0.036630
    88  C   -0.151841
    89  C    0.082317
    90  C    0.029907
    91  C   -0.001067
    92  C   -0.097719
    93  H    0.043780
    94  N   -0.425984
    95  C    0.122514
    96  C   -0.157833
    97  C   -0.085172
    98  C    0.169022
    99  C    0.086533
   100  C    0.032060
   101  O   -0.271695
   102  C   -0.011490
   103  N   -0.428107
   104  C    0.087176
   105  C   -0.092057
   106  C   -0.113412
   107  C    0.082517
   108  C    0.055279
   109  C   -0.033202
   110  C   -0.022712
   111  N   -0.388389
   112  C    0.120807
   113  C   -0.174853
   114  C    0.039022
   115  C    0.121243
   116  C    0.098380
   117  C    0.025905
   118  O   -0.206340
   119  C   -0.074415
   120  C    0.254128
   121  O   -0.209755
   122  O   -0.358111
   123  C    0.118637
   124  H   -0.004317
   125  H   -0.015933
   126  H    0.009943
   127  H    0.028216
   128  H    0.041465
   129  H    0.039151
   130  H    0.042956
   131  H    0.043387
   132  H    0.044050
   133  H    0.047722
   134  H    0.049682
   135  H    0.043082
   136  H    0.069564
   137  H    0.065453
   138  H    0.029117
   139  H    0.067719
   140  H    0.050372
   141  H    0.051444
   142  H    0.031769
   143  H    0.027911
   144  H    0.049146
   145  H    0.044392
   146  H    0.015814
   147  H    0.024915
   148  H    0.037001
   149  H    0.036028
   150  H    0.032848
   151  H    0.043093
   152  H    0.055732
   153  H    0.023761
   154  H    0.063713
   155  H    0.047910
   156  H    0.048941
   157  H    0.048458
   158  H    0.062050
 Sum of Mulliken charges =  -0.00000

 Dipole moment (field-independent basis, Debye):
    X=              0.8530    Y=              2.8109    Z=              3.0980  Tot=              4.2692
 Quadrupole moment (field-independent basis, Debye-Ang):
   XX=           -326.0554   YY=           -549.5817   ZZ=           -489.7038
   XY=            -23.9528   XZ=             39.8875   YZ=             39.5343

 Normal termination of Gaussian 16 at Sat Sep 18 17:45:23 2021.
