 Gaussian 16, Revision A.03,
 Gaussian 16:  ES64L-G16RevA.03 25-Dec-2016

 --------------------------------
 #p wB97XD/Def2SVP td=(nstates=5)
 --------------------------------

 --------------------------------
 TDDFT excited states in gaussian
 --------------------------------
 Symbolic Z-matrix:
 Charge =  0 Multiplicity = 1

                         Standard orientation:
 ---------------------------------------------------------------------
 Center     Atomic      Atomic             Coordinates (Angstroms)
 Number     Number       Type             X           Y           Z
 ---------------------------------------------------------------------
      1         12           0      -27.343013   -0.737340   -0.018326
      2          6           0      -28.053991    2.573391    0.590921
      3          6           0      -24.680983    0.311170   -2.036446
      4          6           0      -26.632918   -3.956603   -0.743926
      5          6           0      -30.153173   -1.668804    1.640779
      6          7           0      -26.644299    1.267694   -0.852348
      7          6           0      -26.969783    2.484684   -0.240581
      8          6           0      -25.977006    3.603673   -0.612697
      9          6           0      -24.987912    2.814868   -1.547645
     10          6           0      -25.392529    1.358366   -1.471002
     11          6           0      -24.974131    3.336602   -2.978921
     12          6           0      -25.224775    4.381769    0.524307
     13          6           0      -25.594829    5.951381    0.716820
     14          1           0      -24.360180    6.839152    0.532423
     15          7           0      -25.965052   -1.683257   -1.273475
     16          6           0      -24.871959   -1.076051   -1.912531
     17          6           0      -23.927260   -2.076364   -2.420371
     18          6           0      -24.515238   -3.422315   -2.125170
     19          6           0      -25.736185   -3.091336   -1.287206
     20          6           0      -22.646946   -1.714676   -3.140467
     21          6           0      -24.068401   -4.765693   -2.463943
     22          8           0      -24.784989   -5.739684   -2.189869
     23          6           0      -22.776417   -5.045527   -3.211463
     24          7           0      -28.303056   -2.464452    0.324435
     25          6           0      -27.768536   -3.737324    0.051896
     26          6           0      -28.578437   -4.948748    0.667983
     27          6           0      -29.745171   -4.118925    1.415412
     28          6           0      -29.360180   -2.651899    1.118653
     29          6           0      -29.132389   -6.001344   -0.413878
     30          6           0      -29.800658   -4.447599    2.947000
     31          6           0      -31.145254   -4.527145    3.599454
     32          7           0      -28.885676    0.288437    0.851339
     33          6           0      -29.968448   -0.243404    1.557512
     34          6           0      -30.699377    0.783870    2.217410
     35          6           0      -29.895177    1.948259    1.930263
     36          6           0      -28.878250    1.566861    1.045866
     37          6           0      -31.880272    0.727379    3.092801
     38          6           0      -29.855630    3.369937    2.073659
     39          8           0      -30.521142    4.205179    2.695805
     40          6           0      -28.714225    3.846395    1.065115
     41          6           0      -29.332993    4.685682    0.005095
     42          8           0      -29.637164    4.381319   -1.080699
     43          8           0      -29.415104    6.010405    0.427713
     44          6           0      -29.433784    6.993152   -0.635771
     45          1           0      -23.800867    0.643481   -2.590957
     46          1           0      -26.473997   -5.032060   -0.846200
     47          1           0      -30.970140   -1.971563    2.299019
     48          1           0      -26.498287    4.339695   -1.223827
     49          1           0      -23.949916    2.948997   -1.241956
     50          1           0      -25.375181    2.565191   -3.635786
     51          1           0      -23.910829    3.476361   -3.169966
     52          1           0      -25.454132    4.302057   -3.137501
     53          1           0      -24.154932    4.303254    0.329379
     54          1           0      -25.430606    3.948239    1.503072
     55          1           0      -25.875498    5.990014    1.769506
     56          1           0      -26.385874    6.243254    0.026414
     57          1           0      -22.937204   -1.359952   -4.130192
     58          1           0      -22.046821   -2.618690   -3.231827
     59          1           0      -22.121555   -0.869623   -2.695028
     60          1           0      -22.877769   -6.060941   -3.595107
     61          1           0      -21.880434   -4.934096   -2.599916
     62          1           0      -22.617869   -4.517330   -4.151453
     63          1           0      -27.991196   -5.423265    1.453497
     64          1           0      -30.757272   -4.343322    1.077893
     65          1           0      -30.128742   -6.318097   -0.104874
     66          1           0      -28.617474   -6.959412   -0.473798
     67          1           0      -29.169067   -5.594624   -1.424684
     68          1           0      -29.178984   -3.796841    3.561711
     69          1           0      -29.427268   -5.446317    3.172555
     70          1           0      -31.169514   -3.674710    4.278138
     71          1           0      -31.367509   -5.319498    4.314218
     72          1           0      -31.927035   -4.438445    2.844390
     73          1           0      -31.899628   -0.248163    3.579422
     74          1           0      -32.721741    0.796626    2.403533
     75          1           0      -31.901293    1.627623    3.707276
     76          1           0      -27.973405    4.444200    1.595482
     77          1           0      -30.451489    6.939479   -1.020916
     78          1           0      -28.726801    6.629888   -1.381464
     79          1           0      -29.235008    7.996745   -0.258661
     80         12           0       28.194043    0.287698    0.243311
     81          6           0       24.840649   -0.333822   -0.476419
     82          6           0       27.654054   -0.774572    3.478210
     83          6           0       31.399562    0.844133    0.671482
     84          6           0       28.835187    0.337113   -3.344032
     85          7           0       26.328053   -0.431665    1.382268
     86          6           0       25.072172   -0.637810    0.884381
     87          6           0       24.141805   -1.084121    1.955812
     88          6           0       25.069470   -1.266143    3.222718
     89          6           0       26.482713   -0.792936    2.702488
     90          6           0       24.532815   -0.608274    4.518887
     91          6           0       23.390839   -2.390551    1.601236
     92          6           0       21.884675   -2.217548    1.789375
     93          1           0       21.146333   -3.262496    2.679284
     94          7           0       29.363183    0.092538    1.875322
     95          6           0       28.974663   -0.317359    3.149906
     96          6           0       30.164209   -0.180871    3.980439
     97          6           0       31.287991    0.333598    3.181339
     98          6           0       30.696288    0.524472    1.819455
     99          6           0       30.228491   -0.669840    5.340078
    100          6           0       32.659657    0.414050    3.710777
    101          8           0       32.969066    0.136097    4.850487
    102          6           0       33.850443    0.751648    2.883176
    103          7           0       29.803606    0.496341   -1.109366
    104          6           0       30.991828    1.005137   -0.649678
    105          6           0       31.954064    1.203994   -1.801710
    106          6           0       31.272161    0.574943   -2.958656
    107          6           0       29.923033    0.386337   -2.468902
    108          6           0       32.458619    2.690951   -2.007139
    109          6           0       31.827431   -0.849708   -3.302823
    110          6           0       31.749195   -1.263363   -4.699450
    111          7           0       27.093675    0.084265   -1.590364
    112          6           0       27.456537    0.191371   -2.939349
    113          6           0       26.272303    0.284254   -3.734230
    114          6           0       25.229728    0.045571   -2.846651
    115          6           0       25.786047   -0.114321   -1.527524
    116          6           0       26.273997    0.520930   -5.199419
    117          6           0       23.836297   -0.136949   -2.748502
    118          8           0       22.983140   -0.103045   -3.606992
    119          6           0       23.522435   -0.328079   -1.247847
    120          6           0       22.555661    0.697618   -0.825055
    121          8           0       22.838595    1.845766   -0.443341
    122          8           0       21.276548    0.251294   -1.066172
    123          6           0       20.131891    1.041425   -0.642826
    124          1           0       27.396226   -1.063495    4.498701
    125          1           0       32.481098    1.000524    0.657908
    126          1           0       29.070988    0.385128   -4.409204
    127          1           0       23.584764   -0.183678    2.216196
    128          1           0       25.183079   -2.304200    3.533661
    129          1           0       23.475016   -0.474654    4.289165
    130          1           0       25.046946    0.290259    4.860235
    131          1           0       24.609523   -1.310245    5.348863
    132          1           0       23.615614   -3.226052    2.263940
    133          1           0       23.658646   -2.623825    0.570880
    134          1           0       21.557466   -2.431066    0.771914
    135          1           0       21.711001   -1.177735    2.062420
    136          1           0       29.245198   -1.059805    5.603934
    137          1           0       30.417917    0.079464    6.109273
    138          1           0       30.941728   -1.493101    5.393669
    139          1           0       33.458298    1.629136    2.369006
    140          1           0       34.033154   -0.066602    2.186125
    141          1           0       34.708966    1.000342    3.507402
    142          1           0       32.832084    0.642518   -1.484581
    143          1           0       31.135807    1.174926   -3.858452
    144          1           0       32.169260    3.312870   -1.159827
    145          1           0       32.223612    3.126445   -2.978961
    146          1           0       33.539118    2.793779   -1.910810
    147          1           0       31.329504   -1.588445   -2.674661
    148          1           0       32.882401   -0.924365   -3.039540
    149          1           0       32.639439   -0.906155   -5.218246
    150          1           0       30.832744   -0.921904   -5.181856
    151          1           0       31.915129   -2.338657   -4.772607
    152          1           0       27.047972    1.234229   -5.482410
    153          1           0       25.308679    0.832408   -5.598794
    154          1           0       26.613058   -0.430235   -5.609922
    155          1           0       22.953089   -1.235487   -1.046016
    156          1           0       19.891158    1.957528   -1.182279
    157          1           0       20.212819    1.256035    0.422577
    158          1           0       19.278531    0.397286   -0.851599
 ---------------------------------------------------------------------

 SCF Done:  E(RwB97XD) =  -4070.56637873     A.U. after   20 cycles

 Excitation energies and oscillator strengths:

 Excited State   1:      Singlet-A      1.6144 eV  768.00 nm  f=0.3666  <S**2>=0.000
     310 -> 315       -0.19416
     311 -> 314        0.68087
     310 <- 315       -0.12108
 This state for optimization and/or second-order correction.
 Total Energy, E(TD-HF/TD-DFT) =  -4070.50705121
 Copying the excited state density for this state as the 1-particle RhoCI density.

 Excited State   2:      Singlet-A      1.6222 eV  764.31 nm  f=0.4083  <S**2>=0.000
     309 -> 316        0.16220
     312 -> 313        0.68566
     309 <- 316        0.10559

 Excited State   3:      Singlet-A      2.1299 eV  582.11 nm  f=0.0998  <S**2>=0.000
     310 -> 314        0.63363
     311 -> 315        0.29999

 Excited State   4:      Singlet-A      2.1350 eV  580.72 nm  f=0.1227  <S**2>=0.000
     309 -> 313        0.64280
     312 -> 316       -0.25987

 Excited State   5:      Singlet-A      3.2693 eV  379.24 nm  f=0.0024  <S**2>=0.000
     304 -> 314       -0.24435
     306 -> 314        0.52660
     307 -> 314       -0.35015

 The electronic state is 1-A.
 Alpha  occ. eigenvalues --  -46.95310 -46.94320 -19.30128 -19.27383 -19.24449
 Alpha  occ. eigenvalues --  -19.24347 -19.23957 -19.23425 -19.22971 -19.22431
 Alpha  occ. eigenvalues --  -14.47196 -14.46950 -14.46621 -14.46574 -14.44957
 Alpha  occ. eigenvalues --  -14.44935 -14.43793 -14.43149 -10.42971 -10.41899
 Alpha  occ. eigenvalues --  -10.39356 -10.38228 -10.38193 -10.37675 -10.35935
 Alpha  occ. eigenvalues --  -10.35706 -10.35677 -10.35614 -10.35439 -10.35365
 Alpha  occ. eigenvalues --  -10.35180 -10.35174 -10.35168 -10.35110 -10.34757
 Alpha  occ. eigenvalues --  -10.34748 -10.34482 -10.34342 -10.34231 -10.33916
 Alpha  occ. eigenvalues --  -10.33527 -10.33332 -10.33255 -10.33123 -10.32995
 Alpha  occ. eigenvalues --  -10.32758 -10.32735 -10.32730 -10.32456 -10.32404
 Alpha  occ. eigenvalues --  -10.32319 -10.32316 -10.32295 -10.32230 -10.32095
 Alpha  occ. eigenvalues --  -10.31885 -10.31863 -10.31815 -10.31660 -10.31623
 Alpha  occ. eigenvalues --  -10.31436 -10.31435 -10.31382 -10.31368 -10.31346
 Alpha  occ. eigenvalues --  -10.31230 -10.31181 -10.31155 -10.30695 -10.30598
 Alpha  occ. eigenvalues --  -10.30510 -10.30381 -10.30375 -10.30373 -10.30360
 Alpha  occ. eigenvalues --  -10.30119 -10.30114 -10.29885 -10.29812 -10.29751
 Alpha  occ. eigenvalues --  -10.29384 -10.29149 -10.29085 -10.28811 -10.28779
 Alpha  occ. eigenvalues --  -10.28489  -3.21248  -3.20487  -1.94839  -1.94380
 Alpha  occ. eigenvalues --   -1.94203  -1.94050  -1.93624  -1.93483  -1.18886
 Alpha  occ. eigenvalues --   -1.17659  -1.12315  -1.12084  -1.11833  -1.10307
 Alpha  occ. eigenvalues --   -1.09907  -1.08928  -1.07013  -1.06631  -1.05843
 Alpha  occ. eigenvalues --   -1.05456  -1.05034  -1.04075  -1.03655  -1.02716
 Alpha  occ. eigenvalues --   -0.94662  -0.94545  -0.92674  -0.91486  -0.91118
 Alpha  occ. eigenvalues --   -0.91017  -0.90505  -0.90397  -0.89672  -0.89286
 Alpha  occ. eigenvalues --   -0.89214  -0.89141  -0.88668  -0.88297  -0.87192
 Alpha  occ. eigenvalues --   -0.86478  -0.86157  -0.85404  -0.85364  -0.84526
 Alpha  occ. eigenvalues --   -0.84348  -0.83847  -0.83405  -0.82816  -0.82801
 Alpha  occ. eigenvalues --   -0.82193  -0.80779  -0.80615  -0.79942  -0.79333
 Alpha  occ. eigenvalues --   -0.79093  -0.78609  -0.78272  -0.77367  -0.77219
 Alpha  occ. eigenvalues --   -0.77161  -0.75427  -0.75067  -0.74052  -0.73684
 Alpha  occ. eigenvalues --   -0.71358  -0.71344  -0.71054  -0.70607  -0.69972
 Alpha  occ. eigenvalues --   -0.69898  -0.69555  -0.69501  -0.68434  -0.67920
 Alpha  occ. eigenvalues --   -0.67603  -0.67317  -0.67251  -0.67013  -0.66722
 Alpha  occ. eigenvalues --   -0.65904  -0.64049  -0.62845  -0.62743  -0.62227
 Alpha  occ. eigenvalues --   -0.61501  -0.61481  -0.61351  -0.61009  -0.61001
 Alpha  occ. eigenvalues --   -0.60438  -0.60257  -0.59958  -0.59660  -0.59410
 Alpha  occ. eigenvalues --   -0.58520  -0.58426  -0.57850  -0.57502  -0.57440
 Alpha  occ. eigenvalues --   -0.57255  -0.57162  -0.56397  -0.56201  -0.55859
 Alpha  occ. eigenvalues --   -0.55579  -0.55256  -0.55170  -0.54934  -0.54771
 Alpha  occ. eigenvalues --   -0.54599  -0.54520  -0.54259  -0.54259  -0.54089
 Alpha  occ. eigenvalues --   -0.54058  -0.53708  -0.53613  -0.53518  -0.53275
 Alpha  occ. eigenvalues --   -0.53242  -0.53215  -0.53097  -0.52676  -0.52505
 Alpha  occ. eigenvalues --   -0.52386  -0.52139  -0.51991  -0.51964  -0.51692
 Alpha  occ. eigenvalues --   -0.51644  -0.51581  -0.51376  -0.51088  -0.50938
 Alpha  occ. eigenvalues --   -0.50802  -0.50572  -0.50508  -0.50467  -0.50440
 Alpha  occ. eigenvalues --   -0.50008  -0.49943  -0.49539  -0.49231  -0.49105
 Alpha  occ. eigenvalues --   -0.48969  -0.48959  -0.48771  -0.48748  -0.48595
 Alpha  occ. eigenvalues --   -0.48405  -0.48271  -0.48194  -0.48066  -0.47920
 Alpha  occ. eigenvalues --   -0.47699  -0.47337  -0.47268  -0.47216  -0.46912
 Alpha  occ. eigenvalues --   -0.46892  -0.46627  -0.46549  -0.46490  -0.46087
 Alpha  occ. eigenvalues --   -0.46000  -0.45625  -0.45618  -0.45480  -0.45445
 Alpha  occ. eigenvalues --   -0.45289  -0.45192  -0.45010  -0.45006  -0.44886
 Alpha  occ. eigenvalues --   -0.44863  -0.44551  -0.44495  -0.44013  -0.43983
 Alpha  occ. eigenvalues --   -0.43675  -0.43627  -0.43570  -0.43394  -0.43318
 Alpha  occ. eigenvalues --   -0.43112  -0.43076  -0.42916  -0.42615  -0.42591
 Alpha  occ. eigenvalues --   -0.42192  -0.42057  -0.41832  -0.41135  -0.41018
 Alpha  occ. eigenvalues --   -0.40627  -0.40479  -0.39798  -0.39678  -0.39617
 Alpha  occ. eigenvalues --   -0.39328  -0.39250  -0.39097  -0.38401  -0.38329
 Alpha  occ. eigenvalues --   -0.38033  -0.36875  -0.36444  -0.36375  -0.36059
 Alpha  occ. eigenvalues --   -0.35766  -0.35402  -0.35228  -0.33677  -0.33627
 Alpha  occ. eigenvalues --   -0.33518  -0.32691  -0.32210  -0.32070  -0.31843
 Alpha  occ. eigenvalues --   -0.31717  -0.31565  -0.31382  -0.26316  -0.26256
 Alpha  occ. eigenvalues --   -0.23403  -0.23280
 Alpha virt. eigenvalues --   -0.07648  -0.07546  -0.00624  -0.00241   0.01783
 Alpha virt. eigenvalues --    0.02287   0.04301   0.04435   0.05242   0.05808
 Alpha virt. eigenvalues --    0.06462   0.07424   0.07541   0.07900   0.07907

 Mulliken charges:
               1
     1  Mg   0.967261
     2  C    0.011735
     3  C   -0.103325
     4  C   -0.069900
     5  C   -0.098363
     6  N   -0.364230
     7  C   -0.034106
     8  C   -0.002765
     9  C   -0.138109
    10  C    0.093045
    11  C    0.019359
    12  C   -0.009130
    13  C   -0.148516
    14  H    0.036416
    15  N   -0.481682
    16  C    0.200937
    17  C   -0.180120
    18  C   -0.027878
    19  C    0.193731
    20  C    0.079951
    21  C    0.021728
    22  O   -0.252881
    23  C   -0.034334
    24  N   -0.410853
    25  C    0.038881
    26  C   -0.045311
    27  C   -0.088411
    28  C    0.134042
    29  C   -0.000909
    30  C   -0.040886
    31  C   -0.058046
    32  N   -0.418685
    33  C    0.119589
    34  C   -0.179184
    35  C   -0.042504
    36  C    0.138574
    37  C    0.103215
    38  C    0.092982
    39  O   -0.217677
    40  C   -0.114373
    41  C    0.257072
    42  O   -0.187467
    43  O   -0.389633
    44  C    0.148348
    45  H   -0.010809
    46  H    0.025948
    47  H   -0.021917
    48  H    0.032313
    49  H    0.032490
    50  H    0.050124
    51  H    0.027207
    52  H    0.046210
    53  H    0.042860
    54  H    0.040627
    55  H    0.074244
    56  H    0.060398
    57  H    0.058497
    58  H    0.036774
    59  H    0.054044
    60  H    0.050798
    61  H    0.073275
    62  H    0.053585
    63  H    0.052009
    64  H    0.039612
    65  H    0.033977
    66  H    0.046060
    67  H    0.057352
    68  H    0.033680
    69  H    0.029690
    70  H    0.026194
    71  H    0.038826
    72  H    0.035108
    73  H    0.041474
    74  H    0.054379
    75  H    0.067136
    76  H    0.052251
    77  H    0.050834
    78  H    0.037004
    79  H    0.060160
    80  Mg   0.953325
    81  C    0.048381
    82  C   -0.057384
    83  C   -0.121949
    84  C   -0.096245
    85  N   -0.342718
    86  C   -0.024314
    87  C   -0.029497
    88  C   -0.145894
    89  C    0.045788
    90  C    0.012159
    91  C    0.023723
    92  C   -0.137300
    93  H    0.039181
    94  N   -0.537379
    95  C    0.202018
    96  C   -0.171416
    97  C   -0.063990
    98  C    0.269869
    99  C    0.097403
   100  C   -0.011495
   101  O   -0.239005
   102  C    0.006780
   103  N   -0.368789
   104  C    0.069659
   105  C   -0.083401
   106  C   -0.081693
   107  C    0.063008
   108  C    0.032039
   109  C    0.003072
   110  C   -0.018640
   111  N   -0.407224
   112  C    0.111864
   113  C   -0.185458
   114  C   -0.015180
   115  C    0.112784
   116  C    0.089651
   117  C    0.108503
   118  O   -0.187648
   119  C   -0.127716
   120  C    0.253708
   121  O   -0.269049
   122  O   -0.361204
   123  C    0.149009
   124  H    0.001495
   125  H   -0.005730
   126  H   -0.002728
   127  H    0.049514
   128  H    0.042578
   129  H    0.038416
   130  H    0.051716
   131  H    0.032388
   132  H    0.051890
   133  H    0.051990
   134  H    0.064231
   135  H    0.053268
   136  H    0.001033
   137  H    0.057513
   138  H    0.064876
   139  H    0.039545
   140  H    0.062502
   141  H    0.058233
   142  H    0.032806
   143  H    0.027092
   144  H    0.034029
   145  H    0.045470
   146  H    0.027843
   147  H    0.039409
   148  H    0.020004
   149  H    0.027141
   150  H    0.029208
   151  H    0.034569
   152  H    0.036191
   153  H    0.067926
   154  H    0.051125
   155  H    0.050896
   156  H    0.058128
   157  H    0.047288
   158  H    0.050807
 Sum of Mulliken charges =  -0.00000

 Dipole moment (field-independent basis, Debye):
    X=              6.7769    Y=             -3.2053    Z=             -1.5809  Tot=              7.6616
 Quadrupole moment (field-independent basis, Debye-Ang):
   XX=           -681.3398   YY=           -514.7015   ZZ=           -515.4617
   XY=             77.2679   XZ=            -63.6196   YZ=            -29.1592

 Normal termination of Gaussian 16 at Mon Sep 20 14:15:31 2021.
