 Gaussian 16, Revision A.03,
 Gaussian 16:  ES64L-G16RevA.03 25-Dec-2016

 --------------------------------
 #p wB97XD/Def2SVP td=(nstates=5)
 --------------------------------

 --------------------------------
 TDDFT excited states in gaussian
 --------------------------------
 Symbolic Z-matrix:
 Charge =  0 Multiplicity = 1

                         Standard orientation:
 ---------------------------------------------------------------------
 Center     Atomic      Atomic             Coordinates (Angstroms)
 Number     Number       Type             X           Y           Z
 ---------------------------------------------------------------------
      1         12           0      -27.335470   -0.854187    0.060895
      2          6           0      -28.036823    2.629762    0.637445
      3          6           0      -24.653163    0.162432   -1.789932
      4          6           0      -26.868978   -4.082797   -0.720082
      5          6           0      -30.309187   -1.595649    1.530044
      6          7           0      -26.402193    1.266883   -0.475495
      7          6           0      -26.882155    2.475987   -0.063020
      8          6           0      -25.882591    3.498376   -0.451519
      9          6           0      -24.859458    2.750815   -1.350809
     10          6           0      -25.304438    1.264090   -1.286660
     11          6           0      -24.886515    3.273801   -2.822274
     12          6           0      -25.233751    4.250088    0.683686
     13          6           0      -24.379841    5.469068    0.374063
     14          1           0      -24.660177    6.689643    1.145774
     15          7           0      -25.907933   -1.818332   -0.987385
     16          6           0      -24.905340   -1.203541   -1.787151
     17          6           0      -24.051021   -2.292368   -2.297257
     18          6           0      -24.750898   -3.471614   -2.055486
     19          6           0      -25.950967   -3.142542   -1.265106
     20          6           0      -22.791915   -1.998488   -3.085790
     21          6           0      -24.381993   -4.927139   -2.415038
     22          8           0      -25.176784   -5.883921   -2.355066
     23          6           0      -22.988295   -5.179004   -2.824325
     24          7           0      -28.464917   -2.631032    0.298559
     25          6           0      -28.107694   -3.844770   -0.067964
     26          6           0      -29.163903   -4.930301    0.277159
     27          6           0      -30.095419   -4.136256    1.195566
     28          6           0      -29.576778   -2.725071    1.039713
     29          6           0      -29.883078   -5.463262   -1.007797
     30          6           0      -30.158641   -4.567365    2.643505
     31          6           0      -31.554446   -4.610927    3.290379
     32          7           0      -28.797027    0.265366    0.980744
     33          6           0      -29.961245   -0.204878    1.547958
     34          6           0      -30.747703    0.901904    2.171478
     35          6           0      -29.979952    1.978691    1.776044
     36          6           0      -28.862217    1.583559    1.031173
     37          6           0      -31.925536    0.809219    3.087512
     38          6           0      -29.929677    3.430615    1.864707
     39          8           0      -30.699439    4.170141    2.467428
     40          6           0      -28.664517    3.933896    1.132634
     41          6           0      -29.098424    4.970625    0.231278
     42          8           0      -29.690185    4.818492   -0.864531
     43          8           0      -28.627556    6.180355    0.642742
     44          6           0      -28.717839    7.305207   -0.262387
     45          1           0      -23.744326    0.467199   -2.312498
     46          1           0      -26.812168   -5.102145   -1.107186
     47          1           0      -31.328676   -1.910374    1.761698
     48          1           0      -26.468777    4.185998   -1.059750
     49          1           0      -23.835248    2.857790   -0.993104
     50          1           0      -23.993938    3.580950   -3.368227
     51          1           0      -25.531160    4.151471   -2.777822
     52          1           0      -25.446280    2.653650   -3.522916
     53          1           0      -24.521782    3.620391    1.217510
     54          1           0      -25.919407    4.400853    1.517041
     55          1           0      -24.486810    5.758435   -0.670295
     56          1           0      -23.390572    5.228823    0.762721
     57          1           0      -22.686843   -2.586351   -3.997406
     58          1           0      -21.871792   -2.123963   -2.515419
     59          1           0      -22.726994   -0.986464   -3.486167
     60          1           0      -22.326099   -4.742325   -2.076588
     61          1           0      -22.921868   -4.630520   -3.763283
     62          1           0      -22.846295   -6.258085   -2.777787
     63          1           0      -28.625598   -5.716423    0.807734
     64          1           0      -31.138258   -4.076831    0.885337
     65          1           0      -30.930849   -5.165398   -1.033883
     66          1           0      -29.893674   -6.552947   -1.032330
     67          1           0      -29.349344   -5.010513   -1.843548
     68          1           0      -29.514013   -3.957763    3.275905
     69          1           0      -29.555942   -5.474566    2.671644
     70          1           0      -31.511030   -5.365717    4.074956
     71          1           0      -32.359349   -4.727004    2.563943
     72          1           0      -31.632393   -3.596986    3.682177
     73          1           0      -31.682800    0.929704    4.143453
     74          1           0      -32.438833   -0.107834    2.799712
     75          1           0      -32.686637    1.519642    2.762445
     76          1           0      -28.107009    4.471518    1.899555
     77          1           0      -29.065248    7.055365   -1.265231
     78          1           0      -27.780899    7.861287   -0.278869
     79          1           0      -29.423102    8.057955    0.090827
     80         12           0       28.315191    0.634358    0.380126
     81          6           0       24.946877    0.645247   -0.739159
     82          6           0       27.089729    0.026580    3.588859
     83          6           0       31.312127   -0.520849    1.101252
     84          6           0       29.246182    0.952761   -3.146324
     85          7           0       26.187239    0.115100    1.267823
     86          6           0       25.021783    0.455517    0.663718
     87          6           0       23.904502    0.455727    1.691600
     88          6           0       24.601772    0.837722    2.997401
     89          6           0       26.056267    0.242930    2.631792
     90          6           0       24.728280    2.320663    3.351270
     91          6           0       23.147499   -0.943054    1.657013
     92          6           0       21.677809   -0.788244    1.688200
     93          1           0       20.876285   -1.762447    2.573331
     94          7           0       29.142061   -0.210797    2.124943
     95          6           0       28.480591   -0.296066    3.375215
     96          6           0       29.445472   -0.816968    4.310542
     97          6           0       30.717795   -0.917693    3.687742
     98          6           0       30.461914   -0.575521    2.243334
     99          6           0       29.047700   -1.116896    5.752330
    100          6           0       31.962187   -1.407950    4.315986
    101          8           0       31.932956   -1.756174    5.489874
    102          6           0       33.281918   -1.624356    3.651136
    103          7           0       30.050167    0.176577   -0.955601
    104          6           0       31.187958   -0.093203   -0.285215
    105          6           0       32.398953   -0.063831   -1.235201
    106          6           0       31.782533    0.567291   -2.607020
    107          6           0       30.277442    0.622104   -2.237938
    108          6           0       33.693592    0.650145   -0.637104
    109          6           0       32.106033   -0.220804   -3.914822
    110          6           0       31.013448   -1.199351   -4.465782
    111          7           0       27.382510    0.774007   -1.493495
    112          6           0       27.901732    0.963398   -2.805898
    113          6           0       26.742617    1.302016   -3.741614
    114          6           0       25.625017    1.125863   -2.941508
    115          6           0       26.068926    0.829360   -1.603163
    116          6           0       26.684478    1.683678   -5.233317
    117          6           0       24.199175    1.209613   -2.917857
    118          8           0       23.405641    1.560127   -3.792807
    119          6           0       23.794503    0.754472   -1.561270
    120          6           0       23.176022   -0.636083   -1.832257
    121          8           0       23.774587   -1.691201   -2.030790
    122          8           0       21.764995   -0.463816   -1.887069
    123          6           0       20.972440   -1.569800   -2.243432
    124          1           0       26.773919   -0.071648    4.629692
    125          1           0       32.309231   -0.752214    1.481092
    126          1           0       29.430168    1.205121   -4.192048
    127          1           0       23.175153    1.250468    1.535670
    128          1           0       24.249362    0.440594    3.948654
    129          1           0       24.028307    2.961889    2.816353
    130          1           0       25.769689    2.643128    3.364840
    131          1           0       24.393729    2.336637    4.389187
    132          1           0       23.425239   -1.509505    2.545952
    133          1           0       23.491396   -1.618972    0.874017
    134          1           0       21.426055   -0.889548    0.633128
    135          1           0       21.448601    0.219767    2.033532
    136          1           0       29.420057   -0.375117    6.458613
    137          1           0       29.357734   -2.132227    5.995118
    138          1           0       27.962493   -1.105903    5.854874
    139          1           0       33.690676   -0.649910    3.382664
    140          1           0       33.270151   -2.260232    2.765063
    141          1           0       34.043319   -1.937964    4.364260
    142          1           0       32.588392   -1.121375   -1.417852
    143          1           0       32.094565    1.608691   -2.678321
    144          1           0       33.682983    0.632881    0.452620
    145          1           0       33.971867    1.638535   -1.004742
    146          1           0       34.504555    0.094674   -1.110755
    147          1           0       33.038978   -0.779300   -3.843151
    148          1           0       32.215934    0.583695   -4.641608
    149          1           0       31.716942   -1.912696   -4.895763
    150          1           0       30.344550   -0.836068   -5.246282
    151          1           0       30.493204   -1.626874   -3.608406
    152          1           0       26.205842    2.652691   -5.370446
    153          1           0       25.933326    0.948784   -5.521228
    154          1           0       27.667084    1.485857   -5.661078
    155          1           0       23.020327    1.415952   -1.172264
    156          1           0       19.900996   -1.368901   -2.279441
    157          1           0       21.140666   -2.343796   -1.495675
    158          1           0       21.327433   -1.861059   -3.232398
 ---------------------------------------------------------------------

 SCF Done:  E(RwB97XD) =  -4070.57278383     A.U. after   20 cycles

 Excitation energies and oscillator strengths:

 Excited State   1:      Singlet-A      1.6240 eV  763.47 nm  f=0.3520  <S**2>=0.000
     310 -> 315       -0.20444
     311 -> 313        0.67799
     310 <- 315       -0.12291
 This state for optimization and/or second-order correction.
 Total Energy, E(TD-HF/TD-DFT) =  -4070.51310474
 Copying the excited state density for this state as the 1-particle RhoCI density.

 Excited State   2:      Singlet-A      1.6935 eV  732.14 nm  f=0.3767  <S**2>=0.000
     309 -> 316       -0.20453
     312 -> 314        0.67932
     309 <- 316       -0.12254

 Excited State   3:      Singlet-A      2.1336 eV  581.10 nm  f=0.0542  <S**2>=0.000
     310 -> 313        0.61275
     311 -> 315        0.34222

 Excited State   4:      Singlet-A      2.2626 eV  547.96 nm  f=0.0703  <S**2>=0.000
     309 -> 314        0.61591
     312 -> 316        0.33994

 Excited State   5:      Singlet-A      3.3537 eV  369.69 nm  f=0.4740  <S**2>=0.000
     308 -> 313       -0.33358
     310 -> 313       -0.26889
     311 -> 315        0.53261
     310 <- 313        0.10361

 The electronic state is 1-A.
 Alpha  occ. eigenvalues --  -46.97682 -46.94847 -19.30412 -19.29980 -19.26372
 Alpha  occ. eigenvalues --  -19.24082 -19.24019 -19.23829 -19.23679 -19.22594
 Alpha  occ. eigenvalues --  -14.47015 -14.46541 -14.46478 -14.45717 -14.44860
 Alpha  occ. eigenvalues --  -14.44396 -14.44368 -14.44194 -10.44529 -10.43003
 Alpha  occ. eigenvalues --  -10.39227 -10.38610 -10.38485 -10.38082 -10.35874
 Alpha  occ. eigenvalues --  -10.35484 -10.35483 -10.35384 -10.35072 -10.34961
 Alpha  occ. eigenvalues --  -10.34888 -10.34802 -10.34796 -10.34610 -10.34590
 Alpha  occ. eigenvalues --  -10.34565 -10.34467 -10.34443 -10.34141 -10.34090
 Alpha  occ. eigenvalues --  -10.33597 -10.33515 -10.33202 -10.32858 -10.32596
 Alpha  occ. eigenvalues --  -10.32543 -10.32482 -10.32469 -10.32381 -10.32285
 Alpha  occ. eigenvalues --  -10.32196 -10.32175 -10.32143 -10.32039 -10.32022
 Alpha  occ. eigenvalues --  -10.31969 -10.31804 -10.31725 -10.31669 -10.31637
 Alpha  occ. eigenvalues --  -10.31501 -10.31482 -10.31436 -10.31262 -10.31198
 Alpha  occ. eigenvalues --  -10.31116 -10.31095 -10.31063 -10.31035 -10.30968
 Alpha  occ. eigenvalues --  -10.30690 -10.30248 -10.30231 -10.30196 -10.30095
 Alpha  occ. eigenvalues --  -10.29965 -10.29849 -10.29843 -10.29841 -10.29772
 Alpha  occ. eigenvalues --  -10.29647 -10.29567 -10.29534 -10.29204 -10.29066
 Alpha  occ. eigenvalues --  -10.28649  -3.23386  -3.20884  -1.96902  -1.96548
 Alpha  occ. eigenvalues --   -1.96298  -1.94484  -1.94002  -1.93865  -1.18316
 Alpha  occ. eigenvalues --   -1.18016  -1.11875  -1.11720  -1.11568  -1.11284
 Alpha  occ. eigenvalues --   -1.10886  -1.08163  -1.07774  -1.06621  -1.06233
 Alpha  occ. eigenvalues --   -1.05467  -1.05093  -1.04891  -1.04240  -1.03319
 Alpha  occ. eigenvalues --   -0.96430  -0.95165  -0.91955  -0.91194  -0.91057
 Alpha  occ. eigenvalues --   -0.90647  -0.90419  -0.89705  -0.89545  -0.89230
 Alpha  occ. eigenvalues --   -0.89013  -0.88812  -0.88582  -0.87529  -0.86717
 Alpha  occ. eigenvalues --   -0.86633  -0.85959  -0.85594  -0.84824  -0.84635
 Alpha  occ. eigenvalues --   -0.84533  -0.83579  -0.83203  -0.82867  -0.82831
 Alpha  occ. eigenvalues --   -0.82260  -0.80638  -0.80009  -0.79651  -0.79378
 Alpha  occ. eigenvalues --   -0.79217  -0.78826  -0.78488  -0.77988  -0.77186
 Alpha  occ. eigenvalues --   -0.77174  -0.74993  -0.74767  -0.73934  -0.73851
 Alpha  occ. eigenvalues --   -0.71860  -0.71460  -0.71231  -0.70741  -0.70046
 Alpha  occ. eigenvalues --   -0.69277  -0.68844  -0.68535  -0.68333  -0.67377
 Alpha  occ. eigenvalues --   -0.67332  -0.67113  -0.66938  -0.66718  -0.66574
 Alpha  occ. eigenvalues --   -0.66571  -0.64541  -0.64243  -0.62396  -0.61947
 Alpha  occ. eigenvalues --   -0.61904  -0.61788  -0.61497  -0.61294  -0.60887
 Alpha  occ. eigenvalues --   -0.60766  -0.60369  -0.60291  -0.59629  -0.59033
 Alpha  occ. eigenvalues --   -0.58477  -0.58120  -0.57959  -0.57703  -0.57641
 Alpha  occ. eigenvalues --   -0.57526  -0.56875  -0.56533  -0.56376  -0.55966
 Alpha  occ. eigenvalues --   -0.55833  -0.55661  -0.55423  -0.55321  -0.55132
 Alpha  occ. eigenvalues --   -0.54998  -0.54887  -0.54593  -0.54115  -0.53915
 Alpha  occ. eigenvalues --   -0.53913  -0.53804  -0.53643  -0.53631  -0.53355
 Alpha  occ. eigenvalues --   -0.53271  -0.53132  -0.52723  -0.52502  -0.52455
 Alpha  occ. eigenvalues --   -0.52225  -0.52108  -0.51923  -0.51868  -0.51589
 Alpha  occ. eigenvalues --   -0.51422  -0.51187  -0.51011  -0.50927  -0.50606
 Alpha  occ. eigenvalues --   -0.50445  -0.50317  -0.50272  -0.50199  -0.49885
 Alpha  occ. eigenvalues --   -0.49764  -0.49725  -0.49422  -0.49299  -0.49167
 Alpha  occ. eigenvalues --   -0.49136  -0.48981  -0.48796  -0.48472  -0.48161
 Alpha  occ. eigenvalues --   -0.48033  -0.47972  -0.47921  -0.47851  -0.47819
 Alpha  occ. eigenvalues --   -0.47517  -0.47384  -0.47253  -0.47095  -0.47084
 Alpha  occ. eigenvalues --   -0.47017  -0.46509  -0.46469  -0.46389  -0.46047
 Alpha  occ. eigenvalues --   -0.45882  -0.45837  -0.45822  -0.45635  -0.45464
 Alpha  occ. eigenvalues --   -0.45343  -0.45233  -0.45070  -0.45011  -0.44469
 Alpha  occ. eigenvalues --   -0.44367  -0.44356  -0.43991  -0.43985  -0.43677
 Alpha  occ. eigenvalues --   -0.43651  -0.43515  -0.43512  -0.43327  -0.43217
 Alpha  occ. eigenvalues --   -0.42986  -0.42983  -0.42896  -0.42770  -0.42348
 Alpha  occ. eigenvalues --   -0.42049  -0.41975  -0.41816  -0.41083  -0.40715
 Alpha  occ. eigenvalues --   -0.40523  -0.40198  -0.39904  -0.39846  -0.39649
 Alpha  occ. eigenvalues --   -0.39227  -0.38620  -0.38339  -0.38023  -0.37917
 Alpha  occ. eigenvalues --   -0.37744  -0.37671  -0.37203  -0.36248  -0.35888
 Alpha  occ. eigenvalues --   -0.35634  -0.35499  -0.35171  -0.33784  -0.33554
 Alpha  occ. eigenvalues --   -0.33004  -0.32994  -0.32761  -0.32734  -0.32537
 Alpha  occ. eigenvalues --   -0.32442  -0.32162  -0.31651  -0.26009  -0.25985
 Alpha  occ. eigenvalues --   -0.22853  -0.22729
 Alpha virt. eigenvalues --   -0.06902  -0.06514  -0.00750   0.00094   0.01831
 Alpha virt. eigenvalues --    0.02783   0.02906   0.04295   0.04615   0.06124
 Alpha virt. eigenvalues --    0.06676   0.06829   0.07548   0.08125   0.08387

 Mulliken charges:
               1
     1  Mg   0.974531
     2  C    0.002769
     3  C   -0.073995
     4  C   -0.058820
     5  C   -0.108720
     6  N   -0.330685
     7  C   -0.063330
     8  C    0.015653
     9  C   -0.121717
    10  C    0.063831
    11  C    0.011242
    12  C    0.011744
    13  C   -0.119999
    14  H    0.035306
    15  N   -0.515839
    16  C    0.189919
    17  C   -0.128806
    18  C   -0.091757
    19  C    0.167222
    20  C    0.036468
    21  C    0.055288
    22  O   -0.254773
    23  C    0.008605
    24  N   -0.326236
    25  C   -0.014210
    26  C   -0.060037
    27  C   -0.104878
    28  C    0.037604
    29  C    0.034229
    30  C    0.005179
    31  C   -0.035288
    32  N   -0.421146
    33  C    0.133245
    34  C   -0.209197
    35  C   -0.009043
    36  C    0.152775
    37  C    0.108964
    38  C    0.073401
    39  O   -0.209192
    40  C   -0.032027
    41  C    0.264669
    42  O   -0.283645
    43  O   -0.351476
    44  C    0.134915
    45  H   -0.012371
    46  H    0.030638
    47  H    0.003594
    48  H    0.033956
    49  H    0.037522
    50  H    0.041026
    51  H    0.017662
    52  H    0.035933
    53  H    0.014284
    54  H    0.025724
    55  H    0.056595
    56  H    0.056715
    57  H    0.040402
    58  H    0.054047
    59  H    0.038999
    60  H    0.053182
    61  H    0.060470
    62  H    0.061934
    63  H    0.043772
    64  H    0.028147
    65  H    0.033572
    66  H    0.048032
    67  H    0.054514
    68  H    0.023066
    69  H    0.008871
    70  H    0.052200
    71  H    0.038550
    72  H    0.041134
    73  H    0.077465
    74  H    0.017100
    75  H    0.049453
    76  H    0.080819
    77  H    0.066824
    78  H    0.047333
    79  H    0.046094
    80  Mg   0.936492
    81  C    0.010811
    82  C   -0.075293
    83  C   -0.029854
    84  C   -0.064479
    85  N   -0.298170
    86  C   -0.021768
    87  C   -0.051755
    88  C   -0.134229
    89  C    0.044061
    90  C    0.038293
    91  C    0.033697
    92  C   -0.117023
    93  H    0.034865
    94  N   -0.490223
    95  C    0.145796
    96  C   -0.165527
    97  C   -0.025016
    98  C    0.111698
    99  C    0.096237
   100  C   -0.007024
   101  O   -0.246422
   102  C    0.014045
   103  N   -0.325769
   104  C    0.062896
   105  C   -0.098250
   106  C   -0.020555
   107  C    0.007617
   108  C    0.005948
   109  C   -0.047038
   110  C   -0.048155
   111  N   -0.422818
   112  C    0.106688
   113  C   -0.210738
   114  C   -0.023483
   115  C    0.162043
   116  C    0.090954
   117  C    0.075712
   118  O   -0.216304
   119  C   -0.054987
   120  C    0.276479
   121  O   -0.229440
   122  O   -0.374839
   123  C    0.144847
   124  H    0.004566
   125  H   -0.047365
   126  H   -0.000881
   127  H    0.012654
   128  H    0.029567
   129  H    0.042126
   130  H    0.047035
   131  H    0.028396
   132  H    0.032671
   133  H    0.056463
   134  H    0.045300
   135  H    0.046262
   136  H    0.058338
   137  H    0.061393
   138  H    0.009461
   139  H    0.040882
   140  H    0.071639
   141  H    0.046929
   142  H    0.050775
   143  H    0.037833
   144  H    0.052400
   145  H    0.033883
   146  H    0.031546
   147  H    0.040233
   148  H    0.030990
   149  H    0.035623
   150  H    0.046445
   151  H    0.060502
   152  H    0.072915
   153  H    0.067983
   154  H    0.038990
   155  H    0.060994
   156  H    0.057998
   157  H    0.041797
   158  H    0.053634
 Sum of Mulliken charges =  -0.00000

 Dipole moment (field-independent basis, Debye):
    X=              6.4212    Y=              1.8668    Z=             -1.2015  Tot=              6.7941
 Quadrupole moment (field-independent basis, Debye-Ang):
   XX=           -606.0455   YY=           -517.3635   ZZ=           -523.6215
   XY=            166.7064   XZ=            -76.6672   YZ=             -5.8365

 Normal termination of Gaussian 16 at Mon Sep 20 03:10:25 2021.
