 Gaussian 16, Revision A.03,
 Gaussian 16:  ES64L-G16RevA.03 25-Dec-2016

 --------------------------------
 #p wB97XD/Def2SVP td=(nstates=5)
 --------------------------------

 --------------------------------
 TDDFT excited states in gaussian
 --------------------------------
 Symbolic Z-matrix:
 Charge =  0 Multiplicity = 1

                         Standard orientation:
 ---------------------------------------------------------------------
 Center     Atomic      Atomic             Coordinates (Angstroms)
 Number     Number       Type             X           Y           Z
 ---------------------------------------------------------------------
      1         12           0      -26.260130    0.311926   -0.566116
      2          6           0      -24.639441   -2.257594    1.485306
      3          6           0      -25.674208    2.508750    2.099704
      4          6           0      -27.996132    2.556772   -2.170656
      5          6           0      -26.562802   -1.963541   -3.114168
      6          7           0      -25.471891    0.097325    1.596343
      7          6           0      -24.736190   -1.009510    2.195143
      8          6           0      -24.235977   -0.722624    3.627170
      9          6           0      -24.811743    0.799445    3.806889
     10          6           0      -25.382014    1.201597    2.432615
     11          6           0      -25.817332    0.944083    4.932580
     12          6           0      -22.692981   -0.922675    3.720278
     13          6           0      -22.050582   -0.392064    4.966577
     14          1           0      -21.012110   -1.221943    5.688066
     15          7           0      -26.809918    2.292235   -0.110708
     16          6           0      -26.471385    3.032838    1.027487
     17          6           0      -27.003647    4.389014    0.908448
     18          6           0      -27.701108    4.437438   -0.367536
     19          6           0      -27.540741    3.065761   -0.977362
     20          6           0      -26.752520    5.549967    1.939279
     21          6           0      -28.488198    5.517407   -1.018032
     22          8           0      -29.006222    5.439358   -2.124065
     23          6           0      -28.591818    6.840599   -0.380227
     24          7           0      -27.049945    0.335679   -2.365741
     25          6           0      -27.836306    1.327453   -2.788020
     26          6           0      -28.406581    1.076360   -4.203668
     27          6           0      -27.590835   -0.124552   -4.635420
     28          6           0      -27.061601   -0.689278   -3.260421
     29          6           0      -29.907801    0.812110   -4.209980
     30          6           0      -26.463725   -0.033591   -5.631299
     31          6           0      -25.299925    0.821945   -5.178361
     32          7           0      -25.823018   -1.713214   -0.779408
     33          6           0      -25.924203   -2.481902   -1.953007
     34          6           0      -25.434830   -3.811385   -1.683110
     35          6           0      -24.879932   -3.676718   -0.384451
     36          6           0      -25.145155   -2.397586    0.140641
     37          6           0      -25.329989   -4.979747   -2.619318
     38          6           0      -24.082060   -4.457991    0.610598
     39          8           0      -23.538225   -5.579726    0.524030
     40          6           0      -23.952094   -3.555210    1.835352
     41          6           0      -24.493810   -4.271848    3.074016
     42          8           0      -25.667326   -4.663777    3.344439
     43          8           0      -23.479046   -4.309518    3.984069
     44          6           0      -23.818667   -4.893806    5.301310
     45          1           0      -25.314286    3.230302    2.834770
     46          1           0      -28.633542    3.270230   -2.697006
     47          1           0      -26.648144   -2.746748   -3.870467
     48          1           0      -24.681192   -1.503822    4.243228
     49          1           0      -23.969630    1.481370    3.925065
     50          1           0      -25.440452    1.683767    5.639510
     51          1           0      -25.868730   -0.027450    5.422809
     52          1           0      -26.869858    1.023938    4.661567
     53          1           0      -22.293502   -0.539485    2.780658
     54          1           0      -22.480534   -1.990866    3.674617
     55          1           0      -22.707782   -0.174783    5.808271
     56          1           0      -21.475939    0.500149    4.719566
     57          1           0      -26.202982    6.304153    1.375231
     58          1           0      -26.150597    5.247411    2.796027
     59          1           0      -27.738311    5.898313    2.247715
     60          1           0      -28.782044    6.799550    0.692459
     61          1           0      -29.441464    7.299315   -0.884753
     62          1           0      -27.583532    7.245407   -0.461877
     63          1           0      -28.214802    1.976819   -4.787297
     64          1           0      -28.206054   -0.886894   -5.114202
     65          1           0      -30.344234    1.325562   -5.065937
     66          1           0      -30.379144    1.189583   -3.303165
     67          1           0      -30.104153   -0.239508   -4.421976
     68          1           0      -26.886847    0.278562   -6.586488
     69          1           0      -25.970490   -0.998025   -5.751347
     70          1           0      -24.965101    1.503073   -5.959843
     71          1           0      -24.411742    0.234999   -4.943356
     72          1           0      -25.514227    1.451748   -4.314833
     73          1           0      -24.312087   -5.368573   -2.605520
     74          1           0      -25.584790   -4.873601   -3.673762
     75          1           0      -26.000620   -5.749770   -2.237407
     76          1           0      -22.890388   -3.405671    2.033678
     77          1           0      -23.996160   -4.096404    6.022639
     78          1           0      -22.927915   -5.505567    5.444251
     79          1           0      -24.641106   -5.607755    5.241173
     80         12           0       26.194511   -0.634775    0.293804
     81          6           0       25.356103    2.843808    0.027835
     82          6           0       23.001263   -1.229712   -1.192498
     83          6           0       27.073973   -3.772248   -0.525753
     84          6           0       29.415110    0.269225    1.005725
     85          7           0       24.459323    0.676811   -0.498246
     86          6           0       24.331539    2.035010   -0.477112
     87          6           0       22.958713    2.502098   -1.075201
     88          6           0       22.133237    1.127725   -1.053229
     89          6           0       23.279038    0.130512   -0.987603
     90          6           0       21.216656    0.959374    0.136812
     91          6           0       23.095151    3.248247   -2.392120
     92          6           0       22.249063    4.534630   -2.577530
     93          1           0       20.894447    4.511825   -3.427444
     94          7           0       25.130763   -2.370140   -0.656405
     95          6           0       23.791435   -2.388501   -1.098459
     96          6           0       23.463147   -3.746938   -1.547882
     97          6           0       24.666080   -4.519994   -1.304798
     98          6           0       25.691141   -3.580041   -0.904967
     99          6           0       22.192282   -4.205089   -2.158146
    100          6           0       24.776969   -6.017226   -1.447886
    101          8           0       23.761634   -6.649533   -1.633658
    102          6           0       26.073064   -6.789779   -1.362141
    103          7           0       27.975119   -1.501670    0.151593
    104          6           0       28.045684   -2.876109   -0.057510
    105          6           0       29.518150   -3.279286    0.050134
    106          6           0       30.202378   -2.043101    0.740512
    107          6           0       29.109233   -1.030933    0.669631
    108          6           0       29.863200   -4.671802    0.694832
    109          6           0       31.575937   -1.557731    0.183723
    110          6           0       32.720513   -1.450674    1.137900
    111          7           0       27.196630    1.125650    0.605744
    112          6           0       28.511506    1.356759    0.970556
    113          6           0       28.708187    2.768579    1.352311
    114          6           0       27.468913    3.379539    0.916338
    115          6           0       26.640609    2.341650    0.478443
    116          6           0       29.907793    3.458402    1.946652
    117          6           0       26.759354    4.690315    0.836328
    118          8           0       27.145388    5.800800    1.066665
    119          6           0       25.433288    4.367911    0.155165
    120          6           0       24.331440    4.884896    1.031170
    121          8           0       24.163661    4.378573    2.119803
    122          8           0       23.492033    5.886158    0.456792
    123          6           0       22.271813    6.260022    1.234336
    124          1           0       22.013015   -1.458029   -1.597481
    125          1           0       27.515711   -4.751793   -0.716147
    126          1           0       30.401683    0.486742    1.419514
    127          1           0       22.399600    3.118871   -0.372165
    128          1           0       21.622959    0.954569   -2.000643
    129          1           0       21.814103    0.627538    0.985642
    130          1           0       20.437322    0.256456   -0.157218
    131          1           0       20.694525    1.833699    0.526835
    132          1           0       22.756119    2.557513   -3.163543
    133          1           0       24.158875    3.365445   -2.598964
    134          1           0       22.951569    5.221554   -3.050075
    135          1           0       21.950447    4.995075   -1.635686
    136          1           0       21.619264   -4.666045   -1.354183
    137          1           0       22.401939   -5.023524   -2.846915
    138          1           0       21.551960   -3.501007   -2.690870
    139          1           0       26.000312   -7.850814   -1.600106
    140          1           0       26.393699   -6.702544   -0.323953
    141          1           0       26.941364   -6.439735   -1.919146
    142          1           0       29.776924   -3.428369   -0.998556
    143          1           0       30.243264   -2.235742    1.812159
    144          1           0       29.032736   -5.029768    1.303940
    145          1           0       30.795692   -4.611763    1.255746
    146          1           0       30.075349   -5.403696   -0.084235
    147          1           0       31.437026   -0.586798   -0.291658
    148          1           0       31.821623   -2.201265   -0.660924
    149          1           0       32.918924   -0.398118    1.338947
    150          1           0       33.615205   -1.876365    0.683773
    151          1           0       32.611609   -1.926248    2.112375
    152          1           0       29.620775    4.386395    2.440748
    153          1           0       30.596368    3.642515    1.121515
    154          1           0       30.418435    2.741159    2.589490
    155          1           0       25.479542    4.774333   -0.855286
    156          1           0       22.555624    6.939418    2.038242
    157          1           0       21.836080    5.386141    1.718194
    158          1           0       21.519466    6.705051    0.583448
 ---------------------------------------------------------------------

 SCF Done:  E(RwB97XD) =  -4070.61925452     A.U. after   20 cycles

 Excitation energies and oscillator strengths:

 Excited State   1:      Singlet-A      1.6108 eV  769.72 nm  f=0.1977  <S**2>=0.000
     310 -> 315       -0.14966
     311 -> 313        0.60272
     312 -> 314       -0.32859
 This state for optimization and/or second-order correction.
 Total Energy, E(TD-HF/TD-DFT) =  -4070.56006004
 Copying the excited state density for this state as the 1-particle RhoCI density.

 Excited State   2:      Singlet-A      1.6115 eV  769.37 nm  f=0.5995  <S**2>=0.000
     309 -> 316        0.15392
     311 -> 313        0.32870
     312 -> 314        0.60244
     309 <- 316        0.10179

 Excited State   3:      Singlet-A      2.1162 eV  585.89 nm  f=0.1336  <S**2>=0.000
     310 -> 313        0.64986
     311 -> 315        0.25746

 Excited State   4:      Singlet-A      2.1827 eV  568.04 nm  f=0.1247  <S**2>=0.000
     309 -> 314        0.63923
     312 -> 316       -0.28435

 Excited State   5:      Singlet-A      3.1512 eV  393.44 nm  f=0.0019  <S**2>=0.000
     306 -> 314       -0.12182
     308 -> 314        0.66862
     312 -> 316        0.10232

 The electronic state is 1-A.
 Alpha  occ. eigenvalues --  -46.95674 -46.94111 -19.30984 -19.30523 -19.25689
 Alpha  occ. eigenvalues --  -19.24801 -19.24609 -19.23858 -19.23494 -19.22978
 Alpha  occ. eigenvalues --  -14.47411 -14.47150 -14.46779 -14.46275 -14.44619
 Alpha  occ. eigenvalues --  -14.43954 -14.43752 -14.43430 -10.44125 -10.43825
 Alpha  occ. eigenvalues --  -10.39452 -10.38743 -10.38647 -10.38455 -10.36049
 Alpha  occ. eigenvalues --  -10.36018 -10.35646 -10.35579 -10.35520 -10.35430
 Alpha  occ. eigenvalues --  -10.35342 -10.35158 -10.34806 -10.34750 -10.34712
 Alpha  occ. eigenvalues --  -10.34600 -10.34489 -10.34312 -10.34294 -10.33514
 Alpha  occ. eigenvalues --  -10.33238 -10.33218 -10.33125 -10.33036 -10.32997
 Alpha  occ. eigenvalues --  -10.32916 -10.32912 -10.32883 -10.32860 -10.32796
 Alpha  occ. eigenvalues --  -10.32705 -10.32627 -10.32606 -10.32597 -10.32452
 Alpha  occ. eigenvalues --  -10.32099 -10.32072 -10.31838 -10.31637 -10.31620
 Alpha  occ. eigenvalues --  -10.31568 -10.31423 -10.31304 -10.31052 -10.31012
 Alpha  occ. eigenvalues --  -10.30996 -10.30863 -10.30792 -10.30611 -10.30500
 Alpha  occ. eigenvalues --  -10.30400 -10.30370 -10.30299 -10.30147 -10.29915
 Alpha  occ. eigenvalues --  -10.29802 -10.29796 -10.29748 -10.29741 -10.29635
 Alpha  occ. eigenvalues --  -10.29561 -10.29547 -10.29491 -10.29283 -10.28701
 Alpha  occ. eigenvalues --  -10.28369  -3.21708  -3.20267  -1.95239  -1.94830
 Alpha  occ. eigenvalues --   -1.94679  -1.93867  -1.93405  -1.93244  -1.18183
 Alpha  occ. eigenvalues --   -1.17540  -1.14003  -1.12656  -1.12407  -1.10110
 Alpha  occ. eigenvalues --   -1.09996  -1.07952  -1.07058  -1.06588  -1.05601
 Alpha  occ. eigenvalues --   -1.04811  -1.04810  -1.04361  -1.03545  -1.02618
 Alpha  occ. eigenvalues --   -0.94764  -0.94255  -0.91556  -0.91273  -0.90826
 Alpha  occ. eigenvalues --   -0.90771  -0.90564  -0.90355  -0.89541  -0.89269
 Alpha  occ. eigenvalues --   -0.89001  -0.88181  -0.87799  -0.87595  -0.86681
 Alpha  occ. eigenvalues --   -0.86410  -0.85933  -0.85860  -0.84866  -0.84415
 Alpha  occ. eigenvalues --   -0.84285  -0.83746  -0.83372  -0.82504  -0.82184
 Alpha  occ. eigenvalues --   -0.82048  -0.80533  -0.80094  -0.79444  -0.79192
 Alpha  occ. eigenvalues --   -0.78754  -0.78713  -0.78266  -0.77893  -0.77454
 Alpha  occ. eigenvalues --   -0.77173  -0.74740  -0.74654  -0.73924  -0.73760
 Alpha  occ. eigenvalues --   -0.72217  -0.71451  -0.71411  -0.70906  -0.69926
 Alpha  occ. eigenvalues --   -0.69632  -0.69172  -0.68693  -0.67864  -0.67072
 Alpha  occ. eigenvalues --   -0.67046  -0.66665  -0.66561  -0.66329  -0.66281
 Alpha  occ. eigenvalues --   -0.65810  -0.64354  -0.63919  -0.62254  -0.61811
 Alpha  occ. eigenvalues --   -0.61513  -0.61200  -0.61153  -0.61084  -0.61053
 Alpha  occ. eigenvalues --   -0.60336  -0.60297  -0.59677  -0.59640  -0.59394
 Alpha  occ. eigenvalues --   -0.58504  -0.58306  -0.57873  -0.57610  -0.57466
 Alpha  occ. eigenvalues --   -0.57430  -0.57225  -0.56720  -0.56242  -0.56237
 Alpha  occ. eigenvalues --   -0.55841  -0.55438  -0.55320  -0.55065  -0.55046
 Alpha  occ. eigenvalues --   -0.54850  -0.54708  -0.54403  -0.54176  -0.54096
 Alpha  occ. eigenvalues --   -0.53776  -0.53679  -0.53247  -0.53084  -0.53035
 Alpha  occ. eigenvalues --   -0.52846  -0.52804  -0.52709  -0.52348  -0.52301
 Alpha  occ. eigenvalues --   -0.52105  -0.51875  -0.51818  -0.51701  -0.51683
 Alpha  occ. eigenvalues --   -0.51531  -0.51247  -0.51021  -0.50754  -0.50728
 Alpha  occ. eigenvalues --   -0.50652  -0.50546  -0.50535  -0.50427  -0.50101
 Alpha  occ. eigenvalues --   -0.50037  -0.49669  -0.49609  -0.49546  -0.49016
 Alpha  occ. eigenvalues --   -0.48940  -0.48929  -0.48701  -0.48440  -0.48377
 Alpha  occ. eigenvalues --   -0.48348  -0.48137  -0.48094  -0.47991  -0.47936
 Alpha  occ. eigenvalues --   -0.47909  -0.47757  -0.47591  -0.47388  -0.47207
 Alpha  occ. eigenvalues --   -0.46911  -0.46831  -0.46605  -0.46479  -0.46274
 Alpha  occ. eigenvalues --   -0.46113  -0.45860  -0.45726  -0.45574  -0.45409
 Alpha  occ. eigenvalues --   -0.45387  -0.45250  -0.45161  -0.44822  -0.44603
 Alpha  occ. eigenvalues --   -0.44558  -0.44493  -0.44468  -0.44401  -0.44129
 Alpha  occ. eigenvalues --   -0.43851  -0.43841  -0.43728  -0.43558  -0.43234
 Alpha  occ. eigenvalues --   -0.43026  -0.42830  -0.42737  -0.42477  -0.42403
 Alpha  occ. eigenvalues --   -0.42160  -0.41882  -0.41190  -0.41158  -0.41002
 Alpha  occ. eigenvalues --   -0.40800  -0.40424  -0.39659  -0.39360  -0.39315
 Alpha  occ. eigenvalues --   -0.39166  -0.39146  -0.38795  -0.38618  -0.38482
 Alpha  occ. eigenvalues --   -0.38113  -0.37772  -0.37005  -0.36397  -0.36307
 Alpha  occ. eigenvalues --   -0.36065  -0.35464  -0.35303  -0.33731  -0.33640
 Alpha  occ. eigenvalues --   -0.33327  -0.33263  -0.32593  -0.32404  -0.32296
 Alpha  occ. eigenvalues --   -0.31869  -0.31297  -0.30920  -0.26232  -0.26185
 Alpha  occ. eigenvalues --   -0.23287  -0.22926
 Alpha virt. eigenvalues --   -0.07656  -0.07348   0.00252   0.00428   0.02367
 Alpha virt. eigenvalues --    0.02713   0.04228   0.04294   0.04816   0.06250
 Alpha virt. eigenvalues --    0.06505   0.06681   0.06911   0.07690   0.07972

 Mulliken charges:
               1
     1  Mg   0.975113
     2  C   -0.025709
     3  C   -0.091757
     4  C   -0.091459
     5  C   -0.077662
     6  N   -0.366270
     7  C   -0.005888
     8  C   -0.064783
     9  C   -0.111877
    10  C    0.089077
    11  C    0.051909
    12  C   -0.005930
    13  C   -0.128106
    14  H    0.029133
    15  N   -0.467570
    16  C    0.163111
    17  C   -0.170397
    18  C   -0.057338
    19  C    0.152387
    20  C    0.067165
    21  C    0.021971
    22  O   -0.243503
    23  C    0.001992
    24  N   -0.422422
    25  C    0.103857
    26  C   -0.088075
    27  C   -0.066250
    28  C    0.109983
    29  C    0.042979
    30  C    0.010344
    31  C   -0.067860
    32  N   -0.449692
    33  C    0.078769
    34  C   -0.151435
    35  C   -0.101699
    36  C    0.167267
    37  C    0.064781
    38  C    0.158572
    39  O   -0.236406
    40  C   -0.063674
    41  C    0.279093
    42  O   -0.286779
    43  O   -0.366312
    44  C    0.125297
    45  H   -0.007303
    46  H    0.021591
    47  H    0.001313
    48  H    0.052046
    49  H    0.035096
    50  H    0.045580
    51  H    0.021893
    52  H    0.048111
    53  H    0.034806
    54  H    0.058218
    55  H    0.052517
    56  H    0.055219
    57  H    0.061428
    58  H    0.044223
    59  H    0.067051
    60  H    0.027160
    61  H    0.066560
    62  H    0.059724
    63  H    0.041420
    64  H    0.013873
    65  H    0.035653
    66  H    0.048284
    67  H    0.036549
    68  H    0.035163
    69  H    0.029065
    70  H    0.029074
    71  H    0.034949
    72  H    0.040808
    73  H    0.061487
    74  H    0.026476
    75  H    0.055502
    76  H    0.079617
    77  H    0.065862
    78  H    0.060842
    79  H    0.076196
    80  Mg   0.981361
    81  C   -0.076413
    82  C   -0.054037
    83  C   -0.079979
    84  C   -0.124325
    85  N   -0.313010
    86  C   -0.015851
    87  C   -0.066111
    88  C   -0.119725
    89  C    0.049039
    90  C    0.041510
    91  C    0.037384
    92  C   -0.107616
    93  H    0.023518
    94  N   -0.419602
    95  C    0.112319
    96  C   -0.143774
    97  C   -0.073782
    98  C    0.168683
    99  C    0.081234
   100  C    0.035514
   101  O   -0.234910
   102  C   -0.012043
   103  N   -0.451735
   104  C    0.092129
   105  C   -0.128658
   106  C   -0.033668
   107  C    0.089022
   108  C    0.013827
   109  C    0.000972
   110  C   -0.047250
   111  N   -0.442253
   112  C    0.135481
   113  C   -0.189474
   114  C   -0.106313
   115  C    0.178217
   116  C    0.090752
   117  C    0.132682
   118  O   -0.174086
   119  C   -0.015195
   120  C    0.278305
   121  O   -0.234431
   122  O   -0.404959
   123  C    0.133364
   124  H   -0.006110
   125  H   -0.037506
   126  H   -0.011899
   127  H    0.025615
   128  H    0.028727
   129  H    0.043274
   130  H    0.042635
   131  H    0.036701
   132  H    0.037372
   133  H    0.040612
   134  H    0.055481
   135  H    0.048120
   136  H    0.055515
   137  H    0.053858
   138  H    0.036849
   139  H    0.051253
   140  H    0.050090
   141  H    0.057954
   142  H    0.051521
   143  H    0.033586
   144  H    0.044839
   145  H    0.038346
   146  H    0.031062
   147  H    0.038647
   148  H    0.025388
   149  H    0.036245
   150  H    0.036914
   151  H    0.035847
   152  H    0.071571
   153  H    0.053871
   154  H    0.034440
   155  H    0.072713
   156  H    0.063778
   157  H    0.051499
   158  H    0.065083
 Sum of Mulliken charges =  -0.00000

 Dipole moment (field-independent basis, Debye):
    X=              2.4269    Y=              4.0921    Z=              2.1559  Tot=              5.2233
 Quadrupole moment (field-independent basis, Debye-Ang):
   XX=           -457.0309   YY=           -561.2370   ZZ=           -478.0070
   XY=           -184.4478   XZ=            -32.2033   YZ=              7.7925

 Normal termination of Gaussian 16 at Sun Sep 19 02:02:02 2021.
