 Gaussian 16, Revision A.03,
 Gaussian 16:  ES64L-G16RevA.03 25-Dec-2016

 --------------------------------
 #p wB97XD/Def2SVP td=(nstates=5)
 --------------------------------

 --------------------------------
 TDDFT excited states in gaussian
 --------------------------------
 Symbolic Z-matrix:
 Charge =  0 Multiplicity = 1

                         Standard orientation:
 ---------------------------------------------------------------------
 Center     Atomic      Atomic             Coordinates (Angstroms)
 Number     Number       Type             X           Y           Z
 ---------------------------------------------------------------------
      1         12           0        5.081389   -0.474567   -0.312295
      2          6           0        2.929189    2.062580   -1.002525
      3          6           0        7.832579    1.603406   -0.185586
      4          6           0        7.079536   -3.211784    0.175982
      5          6           0        2.363130   -2.800344   -0.853323
      6          7           0        5.354901    1.549464   -0.772446
      7          6           0        4.272712    2.492100   -0.786233
      8          6           0        4.771600    3.871229   -0.616361
      9          6           0        6.343530    3.657519   -0.776266
     10          6           0        6.576353    2.176864   -0.573675
     11          6           0        6.905298    4.133490   -2.208068
     12          6           0        4.242756    4.605708    0.653852
     13          6           0        3.791603    6.013913    0.435018
     14          1           0        4.672817    6.880970   -0.548120
     15          7           0        7.163684   -0.755720    0.030594
     16          6           0        8.076084    0.257064    0.017961
     17          6           0        9.350163   -0.311642    0.296411
     18          6           0        9.180569   -1.736118    0.504564
     19          6           0        7.713644   -1.990606    0.311619
     20          6           0       10.649506    0.522054    0.255512
     21          6           0       10.124697   -2.835292    0.879777
     22          8           0        9.906714   -4.050896    0.933164
     23          6           0       11.565713   -2.362449    1.306764
     24          7           0        4.794636   -2.758118   -0.436894
     25          6           0        5.736315   -3.603219   -0.098433
     26          6           0        5.202716   -5.019868    0.104081
     27          6           0        3.691355   -4.866497   -0.230076
     28          6           0        3.594839   -3.375893   -0.549124
     29          6           0        5.932065   -6.124085   -0.817674
     30          6           0        2.839728   -5.274098    1.052037
     31          6           0        2.882595   -4.420764    2.343741
     32          7           0        3.086792   -0.419039   -0.982891
     33          6           0        2.138010   -1.418522   -1.088065
     34          6           0        0.850928   -0.743593   -1.352035
     35          6           0        1.042184    0.605221   -1.326310
     36          6           0        2.458278    0.747660   -1.093842
     37          6           0       -0.398634   -1.453471   -1.745041
     38          6           0        0.431117    1.928306   -1.451002
     39          8           0       -0.719602    2.263908   -1.676062
     40          6           0        1.665724    2.912332   -1.249025
     41          6           0        1.830504    3.667148   -2.507899
     42          8           0        1.993877    3.216369   -3.655103
     43          8           0        1.750558    4.988894   -2.118737
     44          6           0        2.071842    5.954293   -3.177995
     45          1           0        8.719067    2.232811   -0.084859
     46          1           0        7.753533   -4.025683    0.453585
     47          1           0        1.514854   -3.481209   -0.943063
     48          1           0        4.369275    4.409979   -1.475193
     49          1           0        6.838235    4.210470    0.021663
     50          1           0        6.206605    4.756509   -2.766436
     51          1           0        6.970930    3.232929   -2.818467
     52          1           0        7.880548    4.554762   -1.967659
     53          1           0        5.024575    4.634844    1.412859
     54          1           0        3.393294    3.989286    0.947689
     55          1           0        3.820162    6.616579    1.341953
     56          1           0        2.776585    6.244667    0.111319
     57          1           0       10.826464    1.168260    1.115203
     58          1           0       10.549545    1.058190   -0.688093
     59          1           0       11.549611   -0.090664    0.300547
     60          1           0       12.109694   -2.042166    0.418131
     61          1           0       11.994176   -3.131328    1.949423
     62          1           0       11.561265   -1.538933    2.021132
     63          1           0        5.312055   -5.282411    1.156055
     64          1           0        3.361139   -5.493635   -1.058231
     65          1           0        6.577650   -6.691545   -0.146409
     66          1           0        6.550207   -5.635191   -1.571353
     67          1           0        5.337029   -6.881377   -1.326510
     68          1           0        2.978340   -6.300818    1.390374
     69          1           0        1.825467   -5.150320    0.671098
     70          1           0        1.860115   -4.049245    2.413029
     71          1           0        3.631553   -3.630937    2.301728
     72          1           0        3.124088   -4.989728    3.241520
     73          1           0       -1.174647   -0.820243   -1.316113
     74          1           0       -0.444553   -2.474201   -1.364976
     75          1           0       -0.543659   -1.283914   -2.811161
     76          1           0        1.242253    3.567480   -0.488200
     77          1           0        1.835424    6.904261   -2.697779
     78          1           0        1.341632    5.781491   -3.968590
     79          1           0        3.056142    5.847836   -3.634445
     80         12           0       -5.097123   -0.799090    0.154914
     81          6           0       -3.205890    2.251720    1.118919
     82          6           0       -7.720657    1.314075   -0.119890
     83          6           0       -6.670219   -3.500393   -0.370404
     84          6           0       -2.296546   -2.628377    1.373273
     85          7           0       -5.397275    1.485928    0.519723
     86          6           0       -4.469156    2.495039    0.713268
     87          6           0       -5.016837    3.912947    0.514261
     88          6           0       -6.541001    3.586475    0.574967
     89          6           0       -6.602114    2.031293    0.316731
     90          6           0       -7.222682    3.959728    1.853599
     91          6           0       -4.535067    4.694968   -0.753511
     92          6           0       -4.443225    6.181950   -0.668821
     93          1           0       -4.837248    6.933067   -1.936647
     94          7           0       -6.987420   -1.084240   -0.256366
     95          6           0       -7.959087   -0.071239   -0.396052
     96          6           0       -9.153544   -0.681101   -0.905175
     97          6           0       -8.768982   -2.075385   -1.121393
     98          6           0       -7.463840   -2.233519   -0.589014
     99          6           0      -10.466444    0.091255   -1.299646
    100          6           0       -9.624891   -3.116222   -1.775912
    101          8           0       -9.259697   -4.312960   -1.875192
    102          6           0      -10.938059   -2.814765   -2.400659
    103          7           0       -4.676189   -2.781074    0.584541
    104          6           0       -5.505031   -3.769612    0.242837
    105          6           0       -4.943123   -5.197698    0.535913
    106          6           0       -3.416070   -4.833158    0.650742
    107          6           0       -3.445673   -3.306422    0.934875
    108          6           0       -5.497281   -5.788467    1.872215
    109          6           0       -2.624795   -5.120877   -0.693807
    110          6           0       -2.703194   -6.522523   -1.334618
    111          7           0       -3.132197   -0.327248    1.019119
    112          6           0       -2.113236   -1.198634    1.386729
    113          6           0       -0.996617   -0.446158    1.908895
    114          6           0       -1.365708    0.899514    1.786650
    115          6           0       -2.708669    0.938606    1.320918
    116          6           0        0.327506   -0.986617    2.333084
    117          6           0       -0.901106    2.263922    1.999808
    118          8           0        0.157065    2.752813    2.372923
    119          6           0       -2.123011    3.170070    1.454609
    120          6           0       -2.402581    4.125683    2.512606
    121          8           0       -2.796006    3.871225    3.661844
    122          8           0       -1.757023    5.288276    2.202525
    123          6           0       -1.812540    6.384997    3.114985
    124          1           0       -8.481708    2.068377   -0.331168
    125          1           0       -7.172900   -4.454265   -0.542218
    126          1           0       -1.462371   -3.243975    1.717383
    127          1           0       -4.744085    4.487805    1.399529
    128          1           0       -7.056164    4.003963   -0.289635
    129          1           0       -7.413441    3.032319    2.393660
    130          1           0       -8.195985    4.399196    1.635789
    131          1           0       -6.689043    4.629020    2.528131
    132          1           0       -5.263055    4.496763   -1.539665
    133          1           0       -3.592041    4.249236   -1.068798
    134          1           0       -3.387513    6.358947   -0.464268
    135          1           0       -4.881782    6.577625    0.247366
    136          1           0      -10.645646    0.198035   -2.369090
    137          1           0      -10.521264    1.060333   -0.804402
    138          1           0      -11.228125   -0.540877   -0.841502
    139          1           0      -11.670312   -2.675395   -1.604959
    140          1           0      -11.185417   -3.691848   -2.999311
    141          1           0      -10.779796   -1.956025   -3.052208
    142          1           0       -5.228194   -5.809687   -0.320499
    143          1           0       -2.877307   -5.308492    1.469871
    144          1           0       -6.131376   -6.631081    1.595361
    145          1           0       -6.016262   -5.086784    2.524402
    146          1           0       -4.583193   -6.154980    2.341501
    147          1           0       -1.560628   -4.986584   -0.501330
    148          1           0       -2.907230   -4.326018   -1.383892
    149          1           0       -3.103878   -6.345840   -2.332671
    150          1           0       -3.443493   -7.048104   -0.730759
    151          1           0       -1.729311   -7.006654   -1.405635
    152          1           0        0.333284   -2.009100    1.954767
    153          1           0        0.320695   -0.975370    3.422969
    154          1           0        1.178060   -0.387952    2.007161
    155          1           0       -1.818677    3.679765    0.540627
    156          1           0       -2.427548    6.156328    3.985652
    157          1           0       -2.302861    7.186366    2.562130
    158          1           0       -0.815632    6.754990    3.350260
 ---------------------------------------------------------------------

 SCF Done:  E(RwB97XD) =  -4070.62700221     A.U. after   20 cycles

 Excitation energies and oscillator strengths:

 Excited State   1:      Singlet-A      1.5582 eV  795.70 nm  f=0.8592  <S**2>=0.000
     310 -> 316       -0.12594
     311 -> 313        0.59019
     312 -> 314       -0.35235
 This state for optimization and/or second-order correction.
 Total Energy, E(TD-HF/TD-DFT) =  -4070.56974009
 Copying the excited state density for this state as the 1-particle RhoCI density.

 Excited State   2:      Singlet-A      1.6573 eV  748.10 nm  f=0.0567  <S**2>=0.000
     309 -> 315       -0.16632
     311 -> 313        0.35436
     312 -> 314        0.58070
     309 <- 315       -0.10128

 Excited State   3:      Singlet-A      2.1104 eV  587.48 nm  f=0.1586  <S**2>=0.000
     310 -> 313        0.65991
     311 -> 316        0.20528

 Excited State   4:      Singlet-A      2.2074 eV  561.68 nm  f=0.0578  <S**2>=0.000
     309 -> 314        0.60044
     312 -> 315        0.34242

 Excited State   5:      Singlet-A      2.4411 eV  507.90 nm  f=0.0004  <S**2>=0.000
     312 -> 313        0.69797

 The electronic state is 1-A.
 Alpha  occ. eigenvalues --  -46.95533 -46.94876 -19.30805 -19.29862 -19.25157
 Alpha  occ. eigenvalues --  -19.24963 -19.24956 -19.24553 -19.24144 -19.22191
 Alpha  occ. eigenvalues --  -14.46803 -14.46771 -14.46601 -14.45675 -14.44061
 Alpha  occ. eigenvalues --  -14.44042 -14.43971 -14.43868 -10.43296 -10.42729
 Alpha  occ. eigenvalues --  -10.39915 -10.39709 -10.39636 -10.37675 -10.35991
 Alpha  occ. eigenvalues --  -10.35682 -10.35559 -10.35224 -10.34897 -10.34798
 Alpha  occ. eigenvalues --  -10.34442 -10.34409 -10.34406 -10.34339 -10.34173
 Alpha  occ. eigenvalues --  -10.34149 -10.34144 -10.33931 -10.33585 -10.33531
 Alpha  occ. eigenvalues --  -10.33427 -10.32934 -10.32725 -10.32719 -10.32646
 Alpha  occ. eigenvalues --  -10.32372 -10.32315 -10.32211 -10.32111 -10.32031
 Alpha  occ. eigenvalues --  -10.31981 -10.31963 -10.31957 -10.31893 -10.31873
 Alpha  occ. eigenvalues --  -10.31719 -10.31680 -10.31647 -10.31644 -10.31631
 Alpha  occ. eigenvalues --  -10.31474 -10.31454 -10.31418 -10.31363 -10.31354
 Alpha  occ. eigenvalues --  -10.31147 -10.31145 -10.30941 -10.30667 -10.30482
 Alpha  occ. eigenvalues --  -10.30434 -10.30341 -10.30311 -10.30195 -10.29877
 Alpha  occ. eigenvalues --  -10.29781 -10.29722 -10.29672 -10.29528 -10.29493
 Alpha  occ. eigenvalues --  -10.29323 -10.29304 -10.29278 -10.29244 -10.29153
 Alpha  occ. eigenvalues --  -10.28718  -3.21393  -3.20986  -1.94981  -1.94544
 Alpha  occ. eigenvalues --   -1.94504  -1.94362  -1.94108  -1.93974  -1.18530
 Alpha  occ. eigenvalues --   -1.18069  -1.12738  -1.12450  -1.11840  -1.09608
 Alpha  occ. eigenvalues --   -1.09386  -1.08996  -1.07132  -1.06622  -1.05740
 Alpha  occ. eigenvalues --   -1.05683  -1.05384  -1.04903  -1.04249  -1.03623
 Alpha  occ. eigenvalues --   -0.95271  -0.94225  -0.91007  -0.90902  -0.90524
 Alpha  occ. eigenvalues --   -0.90453  -0.89905  -0.89718  -0.89156  -0.89094
 Alpha  occ. eigenvalues --   -0.88824  -0.88496  -0.88175  -0.87877  -0.86456
 Alpha  occ. eigenvalues --   -0.86204  -0.85716  -0.85237  -0.84863  -0.84285
 Alpha  occ. eigenvalues --   -0.83730  -0.83373  -0.83130  -0.82776  -0.82514
 Alpha  occ. eigenvalues --   -0.81862  -0.80236  -0.80014  -0.79197  -0.79079
 Alpha  occ. eigenvalues --   -0.79057  -0.79017  -0.77879  -0.77669  -0.77155
 Alpha  occ. eigenvalues --   -0.76891  -0.75047  -0.74378  -0.74115  -0.72640
 Alpha  occ. eigenvalues --   -0.71859  -0.71159  -0.71027  -0.70330  -0.70139
 Alpha  occ. eigenvalues --   -0.69729  -0.69326  -0.68570  -0.67255  -0.67210
 Alpha  occ. eigenvalues --   -0.66908  -0.66780  -0.66661  -0.66610  -0.66368
 Alpha  occ. eigenvalues --   -0.66208  -0.64467  -0.63831  -0.62474  -0.62297
 Alpha  occ. eigenvalues --   -0.61495  -0.61319  -0.61118  -0.60877  -0.60647
 Alpha  occ. eigenvalues --   -0.60476  -0.60109  -0.59804  -0.59485  -0.59383
 Alpha  occ. eigenvalues --   -0.57873  -0.57600  -0.57428  -0.57328  -0.56914
 Alpha  occ. eigenvalues --   -0.56842  -0.56642  -0.56389  -0.56342  -0.56068
 Alpha  occ. eigenvalues --   -0.55326  -0.55239  -0.55116  -0.54959  -0.54902
 Alpha  occ. eigenvalues --   -0.54508  -0.54441  -0.54240  -0.54161  -0.54047
 Alpha  occ. eigenvalues --   -0.53898  -0.53832  -0.53615  -0.53448  -0.53211
 Alpha  occ. eigenvalues --   -0.53053  -0.52862  -0.52798  -0.52497  -0.52035
 Alpha  occ. eigenvalues --   -0.51952  -0.51724  -0.51616  -0.51472  -0.51434
 Alpha  occ. eigenvalues --   -0.51296  -0.50913  -0.50908  -0.50785  -0.50550
 Alpha  occ. eigenvalues --   -0.50463  -0.50456  -0.50143  -0.50023  -0.50021
 Alpha  occ. eigenvalues --   -0.49782  -0.49620  -0.49505  -0.49282  -0.49221
 Alpha  occ. eigenvalues --   -0.49086  -0.49027  -0.48795  -0.48680  -0.48158
 Alpha  occ. eigenvalues --   -0.48122  -0.48065  -0.47897  -0.47719  -0.47593
 Alpha  occ. eigenvalues --   -0.47523  -0.47068  -0.46909  -0.46824  -0.46777
 Alpha  occ. eigenvalues --   -0.46642  -0.46454  -0.46341  -0.46192  -0.45741
 Alpha  occ. eigenvalues --   -0.45627  -0.45421  -0.45317  -0.45134  -0.44911
 Alpha  occ. eigenvalues --   -0.44888  -0.44868  -0.44839  -0.44717  -0.44499
 Alpha  occ. eigenvalues --   -0.44333  -0.44257  -0.44139  -0.43929  -0.43844
 Alpha  occ. eigenvalues --   -0.43758  -0.43624  -0.43521  -0.43404  -0.43232
 Alpha  occ. eigenvalues --   -0.42928  -0.42501  -0.42453  -0.42389  -0.42354
 Alpha  occ. eigenvalues --   -0.41715  -0.41616  -0.41233  -0.41013  -0.40778
 Alpha  occ. eigenvalues --   -0.40414  -0.39871  -0.39692  -0.39455  -0.39363
 Alpha  occ. eigenvalues --   -0.39063  -0.38828  -0.38651  -0.38341  -0.38069
 Alpha  occ. eigenvalues --   -0.37915  -0.37685  -0.36566  -0.36300  -0.36165
 Alpha  occ. eigenvalues --   -0.36005  -0.35672  -0.35085  -0.33520  -0.33375
 Alpha  occ. eigenvalues --   -0.33287  -0.33221  -0.32939  -0.32586  -0.32069
 Alpha  occ. eigenvalues --   -0.31935  -0.31669  -0.31515  -0.26285  -0.25826
 Alpha  occ. eigenvalues --   -0.23231  -0.22718
 Alpha virt. eigenvalues --   -0.07726  -0.06806  -0.00404   0.01456   0.01723
 Alpha virt. eigenvalues --    0.02597   0.04160   0.04587   0.05152   0.05506
 Alpha virt. eigenvalues --    0.06392   0.06983   0.07647   0.07996   0.08109

 Mulliken charges:
               1
     1  Mg   0.931177
     2  C    0.001850
     3  C   -0.105235
     4  C   -0.037700
     5  C   -0.080016
     6  N   -0.443356
     7  C    0.000079
     8  C   -0.041155
     9  C   -0.135956
    10  C    0.131790
    11  C    0.033399
    12  C    0.064721
    13  C   -0.135112
    14  H   -0.006098
    15  N   -0.461298
    16  C    0.169512
    17  C   -0.150078
    18  C   -0.078227
    19  C    0.134971
    20  C    0.056557
    21  C    0.062002
    22  O   -0.237731
    23  C   -0.054885
    24  N   -0.260506
    25  C    0.018645
    26  C   -0.075764
    27  C   -0.046145
    28  C    0.026979
    29  C   -0.001643
    30  C   -0.063336
    31  C   -0.055761
    32  N   -0.405752
    33  C    0.139289
    34  C   -0.250552
    35  C    0.003536
    36  C    0.117750
    37  C    0.092074
    38  C    0.141857
    39  O   -0.206888
    40  C   -0.103102
    41  C    0.271680
    42  O   -0.260373
    43  O   -0.367895
    44  C    0.140677
    45  H    0.001765
    46  H    0.023927
    47  H   -0.001054
    48  H    0.029350
    49  H    0.027800
    50  H    0.043351
    51  H    0.044748
    52  H    0.049962
    53  H    0.038645
    54  H    0.060018
    55  H    0.043721
    56  H    0.061960
    57  H    0.055933
    58  H    0.062195
    59  H    0.016701
    60  H    0.079176
    61  H    0.051758
    62  H    0.042346
    63  H    0.050292
    64  H    0.037869
    65  H    0.042917
    66  H    0.049036
    67  H    0.040124
    68  H    0.041717
    69  H    0.015129
    70  H    0.041751
    71  H    0.042595
    72  H    0.039326
    73  H    0.056847
    74  H    0.035054
    75  H    0.060535
    76  H    0.075989
    77  H    0.059322
    78  H    0.054011
    79  H    0.059644
    80  Mg   0.983984
    81  C    0.007216
    82  C   -0.064869
    83  C   -0.044083
    84  C   -0.084754
    85  N   -0.296890
    86  C   -0.035260
    87  C   -0.086417
    88  C   -0.102430
    89  C   -0.015738
    90  C    0.048395
    91  C    0.036617
    92  C   -0.115833
    93  H    0.051283
    94  N   -0.496299
    95  C    0.190160
    96  C   -0.170679
    97  C   -0.082515
    98  C    0.148537
    99  C    0.071977
   100  C    0.008684
   101  O   -0.275669
   102  C    0.009800
   103  N   -0.392573
   104  C    0.045991
   105  C   -0.111153
   106  C   -0.100581
   107  C    0.090864
   108  C    0.052462
   109  C   -0.046033
   110  C   -0.028320
   111  N   -0.398585
   112  C    0.107484
   113  C   -0.202636
   114  C   -0.031083
   115  C    0.132287
   116  C    0.100615
   117  C    0.151797
   118  O   -0.204507
   119  C   -0.057415
   120  C    0.244532
   121  O   -0.270371
   122  O   -0.350094
   123  C    0.134498
   124  H   -0.007675
   125  H    0.012395
   126  H   -0.002568
   127  H    0.030868
   128  H    0.025400
   129  H    0.043411
   130  H    0.033294
   131  H    0.047399
   132  H    0.030922
   133  H    0.052045
   134  H    0.047465
   135  H    0.039228
   136  H    0.068067
   137  H    0.039962
   138  H    0.042343
   139  H    0.063418
   140  H    0.054529
   141  H    0.045828
   142  H    0.046757
   143  H    0.023299
   144  H    0.046069
   145  H    0.060527
   146  H    0.026747
   147  H    0.023736
   148  H    0.039770
   149  H    0.043842
   150  H    0.036746
   151  H    0.045721
   152  H    0.022418
   153  H    0.055891
   154  H    0.066227
   155  H    0.077657
   156  H    0.065928
   157  H    0.034069
   158  H    0.057423
 Sum of Mulliken charges =  -0.00000

 Dipole moment (field-independent basis, Debye):
    X=              1.4129    Y=              3.8358    Z=              0.3950  Tot=              4.1068
 Quadrupole moment (field-independent basis, Debye-Ang):
   XX=           -477.7322   YY=           -473.7877   ZZ=           -531.6635
   XY=              0.5809   XZ=             11.0494   YZ=            -10.3477

 Normal termination of Gaussian 16 at Fri Sep 17 16:18:52 2021.
