 Gaussian 16, Revision A.03,
 Gaussian 16:  ES64L-G16RevA.03 25-Dec-2016

 --------------------------------
 #p wB97XD/Def2SVP td=(nstates=5)
 --------------------------------

 --------------------------------
 TDDFT excited states in gaussian
 --------------------------------
 Symbolic Z-matrix:
 Charge =  0 Multiplicity = 1

                         Standard orientation:
 ---------------------------------------------------------------------
 Center     Atomic      Atomic             Coordinates (Angstroms)
 Number     Number       Type             X           Y           Z
 ---------------------------------------------------------------------
      1         12           0        0.726126    0.134897   -0.235187
      2          6           0       -2.741697   -0.039582   -0.352043
      3          6           0        0.704300   -3.326894   -0.447791
      4          6           0        4.067724    0.236754    0.388978
      5          6           0        0.510568    3.565270    0.141605
      6          7           0       -0.850476   -1.494532   -0.327415
      7          6           0       -2.226230   -1.338868   -0.402815
      8          6           0       -3.022596   -2.702525   -0.413450
      9          6           0       -1.841516   -3.705030   -0.113933
     10          6           0       -0.564535   -2.798488   -0.263433
     11          6           0       -1.764153   -4.460529    1.216007
     12          6           0       -3.761525   -2.896712   -1.750202
     13          6           0       -5.259710   -2.743869   -1.734680
     14          1           0       -6.062900   -3.690571   -2.644189
     15          7           0        2.239140   -1.282637   -0.239273
     16          6           0        1.992439   -2.607350   -0.423530
     17          6           0        3.308741   -3.268468   -0.330451
     18          6           0        4.274485   -2.306845    0.005418
     19          6           0        3.593966   -1.071516    0.057336
     20          6           0        3.470114   -4.690611   -0.686615
     21          6           0        5.736908   -2.466782    0.301525
     22          8           0        6.520287   -1.493864    0.484171
     23          6           0        6.388780   -3.730954    0.440797
     24          7           0        2.074034    1.643870    0.112657
     25          6           0        3.406848    1.455143    0.313986
     26          6           0        4.151092    2.707301    0.564695
     27          6           0        3.034571    3.804058    0.429299
     28          6           0        1.822957    2.962382    0.283048
     29          6           0        5.017425    2.945521    1.836406
     30          6           0        3.288681    4.911215   -0.709151
     31          6           0        2.905824    4.697466   -2.203765
     32          7           0       -0.749467    1.527408   -0.080831
     33          6           0       -0.695373    2.886969    0.030543
     34          6           0       -1.969122    3.435513   -0.142294
     35          6           0       -2.819520    2.265333   -0.207714
     36          6           0       -2.015835    1.142798   -0.193714
     37          6           0       -2.352111    4.910745   -0.244490
     38          6           0       -4.184605    1.887964   -0.437112
     39          8           0       -5.206723    2.494241   -0.686209
     40          6           0       -4.203020    0.324822   -0.303418
     41          6           0       -4.846116   -0.062630    0.967789
     42          8           0       -4.288912   -0.603769    1.948067
     43          8           0       -6.160843    0.238399    1.044845
     44          6           0       -6.984385   -0.310613    2.175625
     45          1           0        0.687743   -4.418178   -0.450318
     46          1           0        5.128414    0.333082    0.630822
     47          1           0        0.372717    4.647325    0.081547
     48          1           0       -3.603467   -2.845890    0.498270
     49          1           0       -1.854876   -4.421437   -0.935266
     50          1           0       -0.932234   -4.086282    1.813096
     51          1           0       -1.439222   -5.470299    0.969607
     52          1           0       -2.676694   -4.456956    1.813125
     53          1           0       -3.571836   -3.934086   -2.028317
     54          1           0       -3.278586   -2.268396   -2.498592
     55          1           0       -5.485781   -1.723130   -2.044161
     56          1           0       -5.730476   -2.819164   -0.754371
     57          1           0        4.143685   -4.687162   -1.542610
     58          1           0        2.592020   -5.288470   -0.934174
     59          1           0        3.960179   -5.217577    0.132029
     60          1           0        5.719268   -4.330391    1.057109
     61          1           0        7.429188   -3.600056    0.735505
     62          1           0        6.386206   -4.280077   -0.500809
     63          1           0        4.803295    2.695796   -0.308086
     64          1           0        2.921065    4.320576    1.381685
     65          1           0        6.077585    3.034024    1.598904
     66          1           0        4.941361    2.105723    2.527928
     67          1           0        4.699186    3.807801    2.422212
     68          1           0        4.375096    5.001079   -0.695644
     69          1           0        2.822822    5.780622   -0.245002
     70          1           0        2.308106    3.810201   -2.410956
     71          1           0        3.714610    4.809930   -2.926348
     72          1           0        2.304658    5.575321   -2.436896
     73          1           0       -3.091717    5.192521    0.505698
     74          1           0       -2.837388    5.056098   -1.209486
     75          1           0       -1.507517    5.600236   -0.236907
     76          1           0       -4.899125   -0.055100   -1.051410
     77          1           0       -7.960370   -0.104347    1.736073
     78          1           0       -6.833237    0.178293    3.137470
     79          1           0       -6.778617   -1.374559    2.297036
 ---------------------------------------------------------------------

 SCF Done:  E(RwB97XD) =  -2035.30904711     A.U. after   17 cycles

 Excitation energies and oscillator strengths:

 Excited State   1:      Singlet-A      1.6445 eV  753.95 nm  f=0.3853  <S**2>=0.000
     155 ->158        -0.18310
     156 ->157         0.68258
     155 <-158        -0.11720
 This state for optimization and/or second-order correction.
 Total Energy, E(TD-HF/TD-DFT) =  -2035.24861411
 Copying the excited state density for this state as the 1-particle RhoCI density.

 Excited State   2:      Singlet-A      2.1515 eV  576.26 nm  f=0.1377  <S**2>=0.000
     155 ->157         0.64864
     156 ->158         0.26451

 Excited State   3:      Singlet-A      3.3479 eV  370.33 nm  f=0.0040  <S**2>=0.000
     152 ->157        -0.19047
     154 ->157         0.65693

 Excited State   4:      Singlet-A      3.4885 eV  355.41 nm  f=0.0248  <S**2>=0.000
     152 ->157         0.22274
     153 ->157         0.51887
     153 ->159         0.27670
     153 ->160         0.17974
     156 ->158        -0.16732

 Excited State   5:      Singlet-A      3.4990 eV  354.34 nm  f=0.0282  <S**2>=0.000
     152 ->157         0.51143
     153 ->157        -0.27078
     154 ->157         0.18714
     156 ->158        -0.28160

 The electronic state is 1-A.
 Alpha  occ. eigenvalues --  -46.93882 -19.29264 -19.23274 -19.23196 -19.23001
 Alpha  occ. eigenvalues --  -14.46615 -14.46451 -14.44154 -14.42950 -10.42359
 Alpha  occ. eigenvalues --  -10.38471 -10.38187 -10.35752 -10.35004 -10.34797
 Alpha  occ. eigenvalues --  -10.34672 -10.34490 -10.34135 -10.34084 -10.32879
 Alpha  occ. eigenvalues --  -10.32539 -10.32514 -10.32271 -10.32222 -10.31885
 Alpha  occ. eigenvalues --  -10.31865 -10.31711 -10.31421 -10.31355 -10.31330
 Alpha  occ. eigenvalues --  -10.31124 -10.31091 -10.30837 -10.30818 -10.30800
 Alpha  occ. eigenvalues --  -10.30777 -10.30196 -10.29959 -10.29852 -10.29783
 Alpha  occ. eigenvalues --  -10.29536 -10.29516 -10.28657  -3.20010  -1.93615
 Alpha  occ. eigenvalues --   -1.93143  -1.92990  -1.17288  -1.11762  -1.10150
 Alpha  occ. eigenvalues --   -1.07258  -1.06883  -1.06117  -1.05252  -1.04284
 Alpha  occ. eigenvalues --   -0.95070  -0.90887  -0.90334  -0.90205  -0.89538
 Alpha  occ. eigenvalues --   -0.88932  -0.88047  -0.86281  -0.85564  -0.84733
 Alpha  occ. eigenvalues --   -0.84344  -0.82927  -0.82497  -0.80524  -0.79423
 Alpha  occ. eigenvalues --   -0.78776  -0.78132  -0.77233  -0.75090  -0.73316
 Alpha  occ. eigenvalues --   -0.72024  -0.70725  -0.69967  -0.69105  -0.67135
 Alpha  occ. eigenvalues --   -0.67020  -0.66624  -0.66369  -0.63475  -0.61958
 Alpha  occ. eigenvalues --   -0.61608  -0.61144  -0.60589  -0.59725  -0.59291
 Alpha  occ. eigenvalues --   -0.58152  -0.57557  -0.56873  -0.56345  -0.55772
 Alpha  occ. eigenvalues --   -0.55189  -0.54841  -0.54453  -0.54378  -0.53963
 Alpha  occ. eigenvalues --   -0.53809  -0.53005  -0.52795  -0.52293  -0.52092
 Alpha  occ. eigenvalues --   -0.51716  -0.51569  -0.51367  -0.50910  -0.50717
 Alpha  occ. eigenvalues --   -0.50359  -0.50094  -0.49834  -0.49706  -0.49174
 Alpha  occ. eigenvalues --   -0.48696  -0.48460  -0.48162  -0.47921  -0.47610
 Alpha  occ. eigenvalues --   -0.47306  -0.47183  -0.47089  -0.46702  -0.46175
 Alpha  occ. eigenvalues --   -0.45899  -0.45820  -0.45699  -0.45351  -0.44838
 Alpha  occ. eigenvalues --   -0.44691  -0.44396  -0.43521  -0.43412  -0.43034
 Alpha  occ. eigenvalues --   -0.42690  -0.42237  -0.42010  -0.41593  -0.40828
 Alpha  occ. eigenvalues --   -0.40135  -0.39810  -0.38848  -0.38541  -0.38390
 Alpha  occ. eigenvalues --   -0.37608  -0.36306  -0.35450  -0.34758  -0.33216
 Alpha  occ. eigenvalues --   -0.32549  -0.32159  -0.31929  -0.31488  -0.25555
 Alpha  occ. eigenvalues --   -0.22918
 Alpha virt. eigenvalues --   -0.07047   0.00609   0.02750   0.04459   0.06631
 Alpha virt. eigenvalues --    0.07490   0.08085   0.08417   0.09458   0.10800
 Alpha virt. eigenvalues --    0.11278   0.11959   0.12691   0.13485   0.13705

 Mulliken charges:
               1
     1  Mg   0.984013
     2  C   -0.026452
     3  C   -0.064994
     4  C   -0.072372
     5  C   -0.099264
     6  N   -0.335694
     7  C   -0.019320
     8  C   -0.045937
     9  C   -0.130702
    10  C    0.025535
    11  C    0.037440
    12  C    0.055334
    13  C   -0.144155
    14  H    0.038409
    15  N   -0.481656
    16  C    0.183362
    17  C   -0.191546
    18  C   -0.022602
    19  C    0.131703
    20  C    0.056683
    21  C    0.038510
    22  O   -0.281153
    23  C    0.024550
    24  N   -0.375346
    25  C    0.076382
    26  C   -0.094207
    27  C   -0.055053
    28  C    0.063662
    29  C    0.027622
    30  C   -0.032312
    31  C   -0.043685
    32  N   -0.452733
    33  C    0.130513
    34  C   -0.169505
    35  C   -0.056274
    36  C    0.216086
    37  C    0.092234
    38  C    0.091499
    39  O   -0.190082
    40  C   -0.123770
    41  C    0.263187
    42  O   -0.290792
    43  O   -0.356981
    44  C    0.146692
    45  H   -0.009013
    46  H    0.021595
    47  H   -0.013517
    48  H    0.038417
    49  H    0.026772
    50  H    0.047601
    51  H    0.032125
    52  H    0.052282
    53  H    0.035794
    54  H    0.047013
    55  H    0.065137
    56  H    0.052657
    57  H    0.057320
    58  H    0.043324
    59  H    0.035703
    60  H    0.042671
    61  H    0.066630
    62  H    0.043729
    63  H    0.047294
    64  H    0.036192
    65  H    0.044662
    66  H    0.039211
    67  H    0.036231
    68  H    0.035242
    69  H    0.040161
    70  H    0.056351
    71  H    0.040414
    72  H    0.028974
    73  H    0.060721
    74  H    0.053773
    75  H    0.024485
    76  H    0.056504
    77  H    0.066034
    78  H    0.067019
    79  H    0.053663
 Sum of Mulliken charges =  -0.00000

 Dipole moment (field-independent basis, Debye):
    X=              1.3100    Y=             -2.5546    Z=             -0.5689  Tot=              2.9267
 Quadrupole moment (field-independent basis, Debye-Ang):
   XX=           -269.9881   YY=           -218.3569   ZZ=           -255.2513
   XY=             17.1010   XZ=             -9.9549   YZ=              3.3185

 Normal termination of Gaussian 16 at Sat Sep 18 20:56:17 2021.
