 Gaussian 16, Revision A.03,
 Gaussian 16:  ES64L-G16RevA.03 25-Dec-2016

 --------------------------------
 #p wB97XD/Def2SVP td=(nstates=5)
 --------------------------------

 --------------------------------
 TDDFT excited states in gaussian
 --------------------------------
 Symbolic Z-matrix:
 Charge =  0 Multiplicity = 1

                         Standard orientation:
 ---------------------------------------------------------------------
 Center     Atomic      Atomic             Coordinates (Angstroms)
 Number     Number       Type             X           Y           Z
 ---------------------------------------------------------------------
      1         12           0       19.750794    0.442317   -0.105051
      2          6           0       19.011202   -2.972273    0.495200
      3          6           0       16.537998    1.159312    0.726500
      4          6           0       20.689365    3.702320    0.120457
      5          6           0       23.088987   -0.440498   -0.404797
      6          7           0       18.083464   -0.862962    0.684137
      7          6           0       17.930421   -2.221783    0.763287
      8          6           0       16.543290   -2.606097    1.122619
      9          6           0       15.713548   -1.263714    0.853888
     10          6           0       16.813272   -0.261559    0.763886
     11          6           0       14.860698   -1.365851   -0.400386
     12          6           0       16.576307   -3.140213    2.563192
     13          6           0       15.969024   -4.582470    2.825903
     14          1           0       14.854834   -4.810520    3.891397
     15          7           0       18.798984    2.224229    0.306532
     16          6           0       17.419154    2.299776    0.541855
     17          6           0       17.054510    3.684680    0.546901
     18          6           0       18.241483    4.480056    0.405152
     19          6           0       19.305426    3.462425    0.193037
     20          6           0       15.596636    4.107283    0.674986
     21          6           0       18.384593    5.985583    0.417979
     22          8           0       17.277275    6.596318    0.454423
     23          6           0       19.681790    6.839084    0.499392
     24          7           0       21.644355    1.524395   -0.144588
     25          6           0       21.756212    2.868652   -0.064767
     26          6           0       23.226298    3.363276   -0.108486
     27          6           0       23.987793    2.022546   -0.391761
     28          6           0       22.815550    0.941285   -0.251705
     29          6           0       23.380603    4.410522   -1.196791
     30          6           0       25.112640    1.711490    0.547778
     31          6           0       26.473121    1.765770   -0.092589
     32          7           0       20.845421   -1.263515   -0.166834
     33          6           0       22.207235   -1.536614   -0.347513
     34          6           0       22.443440   -2.875722   -0.540045
     35          6           0       21.205303   -3.486748   -0.254938
     36          6           0       20.296626   -2.472972    0.040001
     37          6           0       23.744760   -3.430024   -1.080105
     38          6           0       20.499996   -4.795916   -0.242267
     39          8           0       20.917916   -5.880964   -0.503980
     40          6           0       19.081574   -4.428139    0.336609
     41          6           0       18.065481   -5.237801   -0.439047
     42          8           0       17.494838   -6.240646   -0.009961
     43          8           0       17.827940   -4.647383   -1.704050
     44          6           0       16.760559   -5.321597   -2.442539
     45          1           0       15.470450    1.385562    0.772482
     46          1           0       21.022831    4.742159    0.086077
     47          1           0       24.118467   -0.777207   -0.270724
     48          1           0       16.205603   -3.404253    0.461425
     49          1           0       15.048696   -1.101246    1.701806
     50          1           0       15.343872   -1.918423   -1.205013
     51          1           0       14.724588   -0.361647   -0.803204
     52          1           0       13.858504   -1.754759   -0.220365
     53          1           0       16.040089   -2.420671    3.181755
     54          1           0       17.564233   -3.108024    3.022617
     55          1           0       16.868190   -5.104991    3.153387
     56          1           0       15.749038   -5.085137    1.884816
     57          1           0       15.118891    3.615868    1.522569
     58          1           0       15.102937    3.764221   -0.234149
     59          1           0       15.393122    5.157743    0.887362
     60          1           0       20.144981    6.677374   -0.473432
     61          1           0       20.305468    6.445753    1.302232
     62          1           0       19.479552    7.889773    0.709062
     63          1           0       23.566799    3.828227    0.816360
     64          1           0       24.268932    1.970882   -1.443299
     65          1           0       22.603086    5.159688   -1.046444
     66          1           0       23.241606    3.920054   -2.160768
     67          1           0       24.348210    4.887905   -1.346831
     68          1           0       25.064078    0.708261    0.971193
     69          1           0       25.188975    2.328296    1.443008
     70          1           0       27.090858    2.445342    0.493213
     71          1           0       26.453340    2.203954   -1.090439
     72          1           0       26.947644    0.792000   -0.218442
     73          1           0       23.518160   -4.437105   -1.431643
     74          1           0       24.522620   -3.476727   -0.318340
     75          1           0       24.026196   -2.743696   -1.878448
     76          1           0       19.103661   -4.922186    1.308652
     77          1           0       16.279152   -4.630223   -3.134299
     78          1           0       15.934547   -5.594105   -1.787151
     79          1           0       17.097988   -6.223491   -2.953994
     80         12           0      -19.921593   -0.188974    0.473504
     81          6           0      -17.438762    1.176946   -1.483977
     82          6           0      -21.130662   -1.889268   -2.427433
     83          6           0      -22.518121   -1.244145    2.178594
     84          6           0      -18.801530    1.623798    3.234456
     85          7           0      -19.284901   -0.289875   -1.670799
     86          6           0      -18.232962    0.319352   -2.225634
     87          6           0      -18.103788   -0.148017   -3.712091
     88          6           0      -19.408816   -1.029065   -3.980241
     89          6           0      -20.043078   -1.039589   -2.575954
     90          6           0      -20.457495   -0.443276   -4.906128
     91          6           0      -16.776614   -0.840044   -4.057580
     92          6           0      -16.134824   -0.224649   -5.289688
     93          1           0      -15.195190   -1.043592   -6.186647
     94          7           0      -21.541374   -1.463822   -0.049427
     95          6           0      -21.844077   -2.090173   -1.223993
     96          6           0      -22.973821   -2.900888   -1.117548
     97          6           0      -23.506710   -2.657651    0.196301
     98          6           0      -22.501427   -1.756846    0.859258
     99          6           0      -23.503137   -3.779486   -2.241721
    100          6           0      -24.812733   -3.143132    0.803722
    101          8           0      -25.165919   -2.674189    1.903132
    102          6           0      -25.720696   -4.052017    0.080619
    103          7           0      -20.505732    0.131300    2.395021
    104          6           0      -21.619341   -0.467699    2.947158
    105          6           0      -21.895180   -0.080618    4.447517
    106          6           0      -20.508648    0.614086    4.790441
    107          6           0      -19.898964    0.827106    3.392790
    108          6           0      -23.120785    0.829487    4.853756
    109          6           0      -19.578735   -0.048621    5.905534
    110          6           0      -18.798445   -1.258814    5.464754
    111          7           0      -18.556398    1.214934    0.833037
    112          6           0      -18.174846    1.891719    1.975848
    113          6           0      -17.088774    2.754543    1.747899
    114          6           0      -16.762180    2.464203    0.418221
    115          6           0      -17.675532    1.512253   -0.121472
    116          6           0      -16.483810    3.555037    2.821295
    117          6           0      -15.879800    2.921196   -0.585279
    118          8           0      -15.060906    3.839242   -0.507622
    119          6           0      -16.240132    2.082723   -1.920233
    120          6           0      -16.574137    3.009713   -2.987167
    121          8           0      -17.597649    3.644176   -3.103247
    122          8           0      -15.537185    3.171989   -3.799702
    123          6           0      -15.620480    4.142442   -4.849032
    124          1           0      -21.522356   -2.363072   -3.329479
    125          1           0      -23.322833   -1.510006    2.866756
    126          1           0      -18.485559    2.174677    4.122851
    127          1           0      -18.216719    0.808672   -4.221088
    128          1           0      -19.049096   -1.922647   -4.491576
    129          1           0      -20.166043    0.490259   -5.388381
    130          1           0      -21.358209   -0.195602   -4.345100
    131          1           0      -20.809837   -1.209756   -5.597052
    132          1           0      -16.842988   -1.918949   -4.198872
    133          1           0      -16.115908   -0.729530   -3.198044
    134          1           0      -15.474847    0.560474   -4.918976
    135          1           0      -16.957247    0.150744   -5.898332
    136          1           0      -22.784963   -3.866944   -3.057063
    137          1           0      -24.349920   -3.276436   -2.709144
    138          1           0      -23.881734   -4.725272   -1.855897
    139          1           0      -26.733714   -3.986018    0.479131
    140          1           0      -25.375038   -5.066877    0.279721
    141          1           0      -25.733814   -3.808953   -0.981579
    142          1           0      -21.884378   -0.948468    5.107697
    143          1           0      -20.713091    1.570282    5.270482
    144          1           0      -23.670391    1.068539    3.944178
    145          1           0      -22.748578    1.817638    5.127073
    146          1           0      -23.800669    0.468377    5.625958
    147          1           0      -20.254791   -0.414230    6.678052
    148          1           0      -18.922768    0.656951    6.413984
    149          1           0      -17.871809   -1.260603    6.037664
    150          1           0      -18.571286   -1.429555    4.413194
    151          1           0      -19.408393   -2.125222    5.720540
    152          1           0      -16.505391    3.167091    3.839377
    153          1           0      -16.723168    4.617746    2.819355
    154          1           0      -15.443616    3.574735    2.497158
    155          1           0      -15.357000    1.507653   -2.197902
    156          1           0      -16.031548    3.724704   -5.768775
    157          1           0      -14.598769    4.441043   -5.082921
    158          1           0      -16.251263    4.974191   -4.534969
 ---------------------------------------------------------------------

 SCF Done:  E(RwB97XD) =  -4070.62186303     A.U. after   20 cycles

 Excitation energies and oscillator strengths:

 Excited State   1:      Singlet-A      1.6248 eV  763.06 nm  f=0.3608  <S**2>=0.000
     309 -> 315       -0.17959
     311 -> 313        0.68428
     309 <- 315       -0.11741
 This state for optimization and/or second-order correction.
 Total Energy, E(TD-HF/TD-DFT) =  -4070.56215198
 Copying the excited state density for this state as the 1-particle RhoCI density.

 Excited State   2:      Singlet-A      1.6477 eV  752.49 nm  f=0.4159  <S**2>=0.000
     310 -> 316        0.17800
     312 -> 314        0.68392
     310 <- 316        0.11432

 Excited State   3:      Singlet-A      2.1634 eV  573.09 nm  f=0.1612  <S**2>=0.000
     309 -> 313        0.64588
     311 -> 315        0.26996

 Excited State   4:      Singlet-A      2.1650 eV  572.66 nm  f=0.1501  <S**2>=0.000
     310 -> 314        0.65051
     312 -> 316       -0.25683

 Excited State   5:      Singlet-A      3.2312 eV  383.70 nm  f=0.0021  <S**2>=0.000
     306 -> 313        0.24927
     306 -> 317        0.10065
     307 -> 313        0.63532

 The electronic state is 1-A.
 Alpha  occ. eigenvalues --  -46.95363 -46.94039 -19.30863 -19.30016 -19.25970
 Alpha  occ. eigenvalues --  -19.24884 -19.23655 -19.23541 -19.23364 -19.23300
 Alpha  occ. eigenvalues --  -14.46991 -14.46899 -14.46825 -14.46790 -14.44701
 Alpha  occ. eigenvalues --  -14.44328 -14.43615 -14.43565 -10.44253 -10.42095
 Alpha  occ. eigenvalues --  -10.39676 -10.39494 -10.38849 -10.38530 -10.36062
 Alpha  occ. eigenvalues --  -10.35566 -10.35408 -10.35245 -10.35163 -10.35123
 Alpha  occ. eigenvalues --  -10.34930 -10.34889 -10.34809 -10.34739 -10.34714
 Alpha  occ. eigenvalues --  -10.34554 -10.34143 -10.33418 -10.33064 -10.33054
 Alpha  occ. eigenvalues --  -10.32983 -10.32868 -10.32710 -10.32616 -10.32590
 Alpha  occ. eigenvalues --  -10.32582 -10.32489 -10.32445 -10.32441 -10.32430
 Alpha  occ. eigenvalues --  -10.32408 -10.32369 -10.32309 -10.32272 -10.32037
 Alpha  occ. eigenvalues --  -10.32022 -10.31861 -10.31743 -10.31649 -10.31638
 Alpha  occ. eigenvalues --  -10.31626 -10.31567 -10.31396 -10.31391 -10.31256
 Alpha  occ. eigenvalues --  -10.31237 -10.31089 -10.30931 -10.30813 -10.30721
 Alpha  occ. eigenvalues --  -10.30527 -10.30460 -10.30376 -10.30298 -10.30264
 Alpha  occ. eigenvalues --  -10.30181 -10.30174 -10.30026 -10.29875 -10.29626
 Alpha  occ. eigenvalues --  -10.29427 -10.29315 -10.29134 -10.29008 -10.28768
 Alpha  occ. eigenvalues --  -10.28670  -3.21370  -3.20232  -1.94939  -1.94496
 Alpha  occ. eigenvalues --   -1.94344  -1.93827  -1.93378  -1.93210  -1.20099
 Alpha  occ. eigenvalues --   -1.17758  -1.14283  -1.11086  -1.10729  -1.10175
 Alpha  occ. eigenvalues --   -1.09961  -1.09855  -1.07261  -1.06609  -1.06298
 Alpha  occ. eigenvalues --   -1.05757  -1.05398  -1.05334  -1.04810  -1.04585
 Alpha  occ. eigenvalues --   -0.95292  -0.94049  -0.91783  -0.91281  -0.91263
 Alpha  occ. eigenvalues --   -0.90954  -0.90651  -0.90210  -0.89800  -0.89584
 Alpha  occ. eigenvalues --   -0.89448  -0.88971  -0.88732  -0.87913  -0.86778
 Alpha  occ. eigenvalues --   -0.86524  -0.86208  -0.85754  -0.84836  -0.84570
 Alpha  occ. eigenvalues --   -0.84328  -0.83869  -0.83149  -0.82666  -0.82569
 Alpha  occ. eigenvalues --   -0.82457  -0.80317  -0.79776  -0.79382  -0.79255
 Alpha  occ. eigenvalues --   -0.78835  -0.78830  -0.78429  -0.77885  -0.77467
 Alpha  occ. eigenvalues --   -0.77217  -0.75527  -0.75440  -0.74217  -0.73425
 Alpha  occ. eigenvalues --   -0.71560  -0.71381  -0.70926  -0.70832  -0.69750
 Alpha  occ. eigenvalues --   -0.69669  -0.69258  -0.69091  -0.68248  -0.67678
 Alpha  occ. eigenvalues --   -0.67385  -0.67342  -0.66951  -0.66921  -0.66572
 Alpha  occ. eigenvalues --   -0.66354  -0.65119  -0.64303  -0.62533  -0.62424
 Alpha  occ. eigenvalues --   -0.62071  -0.61989  -0.61611  -0.60996  -0.60973
 Alpha  occ. eigenvalues --   -0.60497  -0.60306  -0.60091  -0.59669  -0.58829
 Alpha  occ. eigenvalues --   -0.58506  -0.58235  -0.58098  -0.57794  -0.57635
 Alpha  occ. eigenvalues --   -0.57098  -0.56861  -0.56590  -0.56323  -0.56297
 Alpha  occ. eigenvalues --   -0.55841  -0.55528  -0.55456  -0.55174  -0.55133
 Alpha  occ. eigenvalues --   -0.54703  -0.54639  -0.54452  -0.54246  -0.54238
 Alpha  occ. eigenvalues --   -0.54020  -0.54012  -0.53678  -0.53675  -0.53284
 Alpha  occ. eigenvalues --   -0.53054  -0.52824  -0.52475  -0.52274  -0.52252
 Alpha  occ. eigenvalues --   -0.52219  -0.52003  -0.51931  -0.51835  -0.51608
 Alpha  occ. eigenvalues --   -0.51606  -0.51420  -0.51159  -0.51079  -0.50871
 Alpha  occ. eigenvalues --   -0.50859  -0.50571  -0.50329  -0.50271  -0.50066
 Alpha  occ. eigenvalues --   -0.49939  -0.49712  -0.49677  -0.49289  -0.49167
 Alpha  occ. eigenvalues --   -0.48849  -0.48812  -0.48558  -0.48455  -0.48430
 Alpha  occ. eigenvalues --   -0.48312  -0.47960  -0.47949  -0.47839  -0.47695
 Alpha  occ. eigenvalues --   -0.47443  -0.47442  -0.47350  -0.47259  -0.47135
 Alpha  occ. eigenvalues --   -0.47058  -0.46862  -0.46822  -0.46518  -0.46298
 Alpha  occ. eigenvalues --   -0.45993  -0.45893  -0.45841  -0.45659  -0.45563
 Alpha  occ. eigenvalues --   -0.45438  -0.45208  -0.45202  -0.44634  -0.44612
 Alpha  occ. eigenvalues --   -0.44488  -0.44429  -0.44379  -0.44327  -0.43989
 Alpha  occ. eigenvalues --   -0.43924  -0.43661  -0.43525  -0.43480  -0.43424
 Alpha  occ. eigenvalues --   -0.43416  -0.43334  -0.43041  -0.43013  -0.42909
 Alpha  occ. eigenvalues --   -0.42382  -0.42044  -0.41111  -0.40970  -0.40862
 Alpha  occ. eigenvalues --   -0.40687  -0.40159  -0.40105  -0.39754  -0.39662
 Alpha  occ. eigenvalues --   -0.39503  -0.39277  -0.39171  -0.38631  -0.38380
 Alpha  occ. eigenvalues --   -0.38335  -0.38115  -0.37386  -0.36688  -0.36230
 Alpha  occ. eigenvalues --   -0.35798  -0.35483  -0.35385  -0.33987  -0.33674
 Alpha  occ. eigenvalues --   -0.33124  -0.32719  -0.32555  -0.32554  -0.32223
 Alpha  occ. eigenvalues --   -0.32170  -0.31960  -0.31946  -0.26329  -0.26047
 Alpha  occ. eigenvalues --   -0.23467  -0.23290
 Alpha virt. eigenvalues --   -0.07698  -0.07466   0.00075   0.00496   0.02313
 Alpha virt. eigenvalues --    0.02533   0.04431   0.04580   0.04997   0.06213
 Alpha virt. eigenvalues --    0.06270   0.07437   0.07921   0.08152   0.08245

 Mulliken charges:
               1
     1  Mg   0.972183
     2  C    0.037606
     3  C   -0.077595
     4  C   -0.047287
     5  C   -0.093064
     6  N   -0.359458
     7  C   -0.051804
     8  C   -0.053887
     9  C   -0.081810
    10  C    0.068534
    11  C    0.030546
    12  C    0.005058
    13  C   -0.116264
    14  H    0.047951
    15  N   -0.473507
    16  C    0.150689
    17  C   -0.148684
    18  C   -0.063135
    19  C    0.180140
    20  C    0.070448
    21  C    0.021647
    22  O   -0.276216
    23  C    0.023422
    24  N   -0.303493
    25  C    0.005182
    26  C   -0.045832
    27  C   -0.064926
    28  C    0.055492
    29  C    0.009429
    30  C   -0.002881
    31  C   -0.061507
    32  N   -0.466561
    33  C    0.108566
    34  C   -0.190761
    35  C   -0.079785
    36  C    0.147978
    37  C    0.086682
    38  C    0.122430
    39  O   -0.159504
    40  C   -0.057589
    41  C    0.245555
    42  O   -0.241446
    43  O   -0.390692
    44  C    0.140047
    45  H    0.005784
    46  H   -0.060420
    47  H    0.006930
    48  H    0.035238
    49  H    0.038524
    50  H    0.038030
    51  H    0.024548
    52  H    0.047565
    53  H    0.031377
    54  H    0.047665
    55  H    0.050597
    56  H    0.054822
    57  H    0.034303
    58  H    0.046835
    59  H    0.065137
    60  H    0.062932
    61  H    0.064292
    62  H    0.063590
    63  H    0.043485
    64  H    0.043080
    65  H    0.033467
    66  H    0.024385
    67  H    0.040181
    68  H    0.030951
    69  H    0.026656
    70  H    0.031337
    71  H    0.020868
    72  H    0.039937
    73  H    0.062285
    74  H    0.052038
    75  H    0.046472
    76  H    0.069828
    77  H    0.047284
    78  H    0.043977
    79  H    0.064120
    80  Mg   0.992414
    81  C   -0.044770
    82  C   -0.105173
    83  C   -0.051546
    84  C   -0.103949
    85  N   -0.349902
    86  C   -0.028270
    87  C   -0.021305
    88  C   -0.162806
    89  C    0.116174
    90  C    0.006210
    91  C    0.037861
    92  C   -0.145879
    93  H    0.028816
    94  N   -0.425464
    95  C    0.160126
    96  C   -0.175140
    97  C   -0.074149
    98  C    0.171396
    99  C    0.066522
   100  C    0.038132
   101  O   -0.260148
   102  C    0.004628
   103  N   -0.396003
   104  C    0.027529
   105  C   -0.070141
   106  C   -0.076145
   107  C    0.087039
   108  C    0.029246
   109  C   -0.031218
   110  C   -0.058237
   111  N   -0.470263
   112  C    0.131927
   113  C   -0.134414
   114  C   -0.037971
   115  C    0.195360
   116  C    0.072375
   117  C    0.096104
   118  O   -0.219413
   119  C   -0.078042
   120  C    0.235417
   121  O   -0.251489
   122  O   -0.328086
   123  C    0.135854
   124  H   -0.002140
   125  H    0.021856
   126  H   -0.004698
   127  H    0.033207
   128  H    0.042976
   129  H    0.043818
   130  H    0.040413
   131  H    0.035200
   132  H    0.039565
   133  H    0.030045
   134  H    0.063188
   135  H    0.056139
   136  H    0.042429
   137  H    0.057054
   138  H    0.056358
   139  H    0.055878
   140  H    0.067036
   141  H    0.044983
   142  H    0.038422
   143  H    0.027416
   144  H    0.039881
   145  H    0.027336
   146  H    0.056789
   147  H    0.029196
   148  H    0.032966
   149  H    0.037802
   150  H    0.047631
   151  H    0.028757
   152  H    0.046013
   153  H    0.055588
   154  H    0.045393
   155  H    0.065534
   156  H    0.042543
   157  H    0.055526
   158  H    0.066694
 Sum of Mulliken charges =  -0.00000

 Dipole moment (field-independent basis, Debye):
    X=              0.3173    Y=             -0.8435    Z=             -2.1352  Tot=              2.3176
 Quadrupole moment (field-independent basis, Debye-Ang):
   XX=           -382.4606   YY=           -566.1170   ZZ=           -467.9949
   XY=            172.3098   XZ=             -2.0066   YZ=             16.3228

 Normal termination of Gaussian 16 at Sun Sep 19 20:03:08 2021.
