 Gaussian 16, Revision A.03,
 Gaussian 16:  ES64L-G16RevA.03 25-Dec-2016

 --------------------------------
 #p wB97XD/Def2SVP td=(nstates=5)
 --------------------------------

 --------------------------------
 TDDFT excited states in gaussian
 --------------------------------
 Symbolic Z-matrix:
 Charge =  0 Multiplicity = 1

                         Standard orientation:
 ---------------------------------------------------------------------
 Center     Atomic      Atomic             Coordinates (Angstroms)
 Number     Number       Type             X           Y           Z
 ---------------------------------------------------------------------
      1         12           0      -13.501167   -0.519800    0.594958
      2          6           0      -13.483661    2.448044   -1.330140
      3          6           0      -11.941370    1.160795    2.943536
      4          6           0      -12.651612   -3.478578    1.801570
      5          6           0      -14.538171   -2.152953   -2.385949
      6          7           0      -12.973185    1.676522    0.764901
      7          6           0      -13.112162    2.674960   -0.028887
      8          6           0      -12.827379    4.003000    0.702346
      9          6           0      -11.872998    3.547553    1.920236
     10          6           0      -12.206650    1.999069    1.856567
     11          6           0      -10.331334    3.855720    1.763744
     12          6           0      -14.192637    4.635420    1.294800
     13          6           0      -14.373194    6.185185    1.388365
     14          1           0      -13.058028    7.027788    1.576017
     15          7           0      -12.619308   -1.088356    2.271860
     16          6           0      -12.074226   -0.183808    3.170653
     17          6           0      -11.509654   -0.956404    4.332808
     18          6           0      -11.765023   -2.349627    3.989904
     19          6           0      -12.361213   -2.438173    2.654179
     20          6           0      -10.813824   -0.252053    5.482211
     21          6           0      -11.477254   -3.564170    4.844785
     22          8           0      -11.673062   -4.735597    4.492336
     23          6           0      -10.960887   -3.361565    6.211459
     24          7           0      -13.685605   -2.610967   -0.169991
     25          6           0      -13.199017   -3.608559    0.545852
     26          6           0      -13.717583   -4.999531   -0.032714
     27          6           0      -14.324178   -4.503883   -1.455198
     28          6           0      -14.210863   -2.988062   -1.316938
     29          6           0      -12.612661   -6.104219   -0.112736
     30          6           0      -15.779212   -4.941485   -1.825913
     31          6           0      -15.931180   -5.918428   -2.963420
     32          7           0      -14.150217    0.009728   -1.422435
     33          6           0      -14.529707   -0.798062   -2.475930
     34          6           0      -14.707278   -0.026329   -3.634406
     35          6           0      -14.265740    1.249386   -3.235173
     36          6           0      -13.900707    1.254459   -1.909717
     37          6           0      -15.144684   -0.459705   -4.942100
     38          6           0      -14.161614    2.565628   -3.734008
     39          8           0      -14.475086    3.155478   -4.803584
     40          6           0      -13.383965    3.348872   -2.583001
     41          6           0      -13.960360    4.705186   -2.402652
     42          8           0      -15.096390    5.000543   -2.037516
     43          8           0      -12.903131    5.643386   -2.623180
     44          6           0      -13.238180    7.068510   -2.508537
     45          1           0      -11.552015    1.789532    3.747526
     46          1           0      -12.419542   -4.449487    2.242754
     47          1           0      -14.932136   -2.653151   -3.273856
     48          1           0      -12.153041    4.576904    0.067266
     49          1           0      -12.148382    4.125719    2.801605
     50          1           0      -10.074739    4.142931    0.744281
     51          1           0       -9.723159    2.973278    1.961766
     52          1           0      -10.123219    4.674876    2.451966
     53          1           0      -14.422104    4.215264    2.274167
     54          1           0      -15.023978    4.246348    0.706590
     55          1           0      -15.028528    6.502438    2.200165
     56          1           0      -14.668477    6.522931    0.394191
     57          1           0      -11.128418   -0.638769    6.452198
     58          1           0      -10.964851    0.827450    5.478611
     59          1           0       -9.736587   -0.277559    5.319725
     60          1           0      -10.024172   -2.803605    6.199464
     61          1           0      -10.806338   -4.326409    6.694555
     62          1           0      -11.629851   -2.839837    6.895851
     63          1           0      -14.563343   -5.398386    0.527261
     64          1           0      -13.634630   -4.685152   -2.280993
     65          1           0      -11.640615   -5.688681    0.153493
     66          1           0      -12.764184   -6.465797   -1.129993
     67          1           0      -12.944842   -6.924954    0.521674
     68          1           0      -16.323910   -4.041298   -2.111496
     69          1           0      -16.273456   -5.341720   -0.940455
     70          1           0      -14.905911   -6.225302   -3.165892
     71          1           0      -16.295236   -5.364284   -3.829349
     72          1           0      -16.507466   -6.804495   -2.700080
     73          1           0      -16.069828   -1.016022   -4.793747
     74          1           0      -14.554153   -1.249671   -5.406225
     75          1           0      -15.334932    0.409815   -5.571534
     76          1           0      -12.335756    3.423787   -2.874149
     77          1           0      -12.384449    7.688919   -2.782435
     78          1           0      -13.368503    7.307960   -1.453015
     79          1           0      -14.048986    7.301667   -3.197898
     80         12           0       12.788544   -0.720127   -0.541504
     81          6           0       15.243562    1.860583   -0.157264
     82          6           0       10.439220    1.661019    0.578491
     83          6           0       10.572197   -3.093913   -0.145124
     84          6           0       15.280505   -2.922152   -1.251207
     85          7           0       12.865949    1.508885    0.074073
     86          6           0       13.969207    2.293376    0.022174
     87          6           0       13.553137    3.733051    0.275274
     88          6           0       12.014055    3.756828    0.493961
     89          6           0       11.730823    2.249248    0.348488
     90          6           0       11.564640    4.416490    1.916955
     91          6           0       13.939492    4.704181   -0.921164
     92          6           0       14.634188    6.012785   -0.543148
     93          1           0       14.294843    6.753771    0.812075
     94          7           0       10.777130   -0.722327    0.182330
     95          6           0       10.045454    0.312411    0.537763
     96          6           0        8.754546   -0.186494    0.919992
     97          6           0        8.653758   -1.563598    0.597431
     98          6           0       10.016948   -1.849741    0.234155
     99          6           0        7.591898    0.731817    1.292972
    100          6           0        7.503093   -2.554042    0.511544
    101          8           0        7.663310   -3.736754    0.271669
    102          6           0        6.123089   -1.980328    0.680010
    103          7           0       13.012035   -2.746280   -0.337441
    104          6           0       11.870013   -3.548116   -0.381503
    105          6           0       12.171985   -5.016251   -0.787576
    106          6           0       13.657268   -4.838766   -1.281327
    107          6           0       14.027223   -3.395038   -0.941465
    108          6           0       11.967814   -5.966029    0.401624
    109          6           0       13.831601   -5.015282   -2.863644
    110          6           0       14.461496   -6.267530   -3.374638
    111          7           0       14.786166   -0.578193   -0.791885
    112          6           0       15.685120   -1.589645   -1.053012
    113          6           0       17.073355   -1.137216   -1.016077
    114          6           0       16.957212    0.254736   -0.663715
    115          6           0       15.584939    0.500462   -0.422122
    116          6           0       18.229434   -1.948443   -1.477954
    117          6           0       17.680611    1.507073   -0.505963
    118          8           0       18.901320    1.693647   -0.660509
    119          6           0       16.571276    2.644067   -0.126457
    120          6           0       16.956388    3.112477    1.195446
    121          8           0       17.082088    2.386034    2.156917
    122          8           0       17.139596    4.438041    1.212267
    123          6           0       17.596822    5.166007    2.437323
    124          1           0        9.657961    2.374122    0.849418
    125          1           0        9.848367   -3.854797   -0.446596
    126          1           0       16.034697   -3.646149   -1.565754
    127          1           0       14.037362    4.046344    1.200206
    128          1           0       11.510113    4.405680   -0.222574
    129          1           0       12.340348    5.080049    2.299264
    130          1           0       11.383197    3.564220    2.572308
    131          1           0       10.630363    4.962931    1.789036
    132          1           0       13.123303    4.949876   -1.599175
    133          1           0       14.660647    4.204383   -1.567765
    134          1           0       14.524513    6.765769   -1.323874
    135          1           0       15.688809    5.739047   -0.574035
    136          1           0        6.907563    0.942235    0.470908
    137          1           0        7.938076    1.633962    1.798250
    138          1           0        7.036718    0.210302    2.072321
    139          1           0        5.954045   -1.023142    0.185814
    140          1           0        5.814253   -1.827950    1.713234
    141          1           0        5.418536   -2.586280    0.110276
    142          1           0       11.479302   -5.279146   -1.586595
    143          1           0       14.270243   -5.577922   -0.765398
    144          1           0       11.479348   -5.512209    1.263807
    145          1           0       12.916449   -6.341545    0.783655
    146          1           0       11.380923   -6.825698    0.076507
    147          1           0       14.422184   -4.237952   -3.348451
    148          1           0       12.892455   -4.900841   -3.403692
    149          1           0       13.746933   -6.831234   -3.973058
    150          1           0       14.721118   -6.800189   -2.459588
    151          1           0       15.324443   -6.033954   -3.998155
    152          1           0       18.988535   -1.325324   -1.949587
    153          1           0       17.814152   -2.747418   -2.091910
    154          1           0       18.665812   -2.401900   -0.586931
    155          1           0       16.596330    3.481281   -0.822686
    156          1           0       18.478197    4.669963    2.844217
    157          1           0       16.837493    5.189449    3.219356
    158          1           0       17.748578    6.233741    2.281587
 ---------------------------------------------------------------------

 SCF Done:  E(RwB97XD) =  -4070.57053198     A.U. after   20 cycles

 Excitation energies and oscillator strengths:

 Excited State   1:      Singlet-A      1.6234 eV  763.72 nm  f=0.4089  <S**2>=0.000
     310 -> 316       -0.17882
     312 -> 313        0.68445
     310 <- 316       -0.11638
 This state for optimization and/or second-order correction.
 Total Energy, E(TD-HF/TD-DFT) =  -4070.51087255
 Copying the excited state density for this state as the 1-particle RhoCI density.

 Excited State   2:      Singlet-A      1.7435 eV  711.14 nm  f=0.3603  <S**2>=0.000
     309 -> 315        0.21770
     311 -> 314        0.67299
     309 <- 315        0.11923

 Excited State   3:      Singlet-A      2.1423 eV  578.75 nm  f=0.1243  <S**2>=0.000
     310 -> 313        0.64794
     312 -> 316        0.26637

 Excited State   4:      Singlet-A      2.1696 eV  571.46 nm  f=0.0805  <S**2>=0.000
     309 -> 314        0.62738
     311 -> 315       -0.30981

 Excited State   5:      Singlet-A      3.3076 eV  374.85 nm  f=0.0354  <S**2>=0.000
     305 -> 314        0.13180
     308 -> 314        0.60497
     311 -> 315        0.28137

 The electronic state is 1-A.
 Alpha  occ. eigenvalues --  -46.95793 -46.95001 -19.30495 -19.29254 -19.25219
 Alpha  occ. eigenvalues --  -19.24589 -19.24142 -19.24089 -19.23598 -19.23481
 Alpha  occ. eigenvalues --  -14.46782 -14.46526 -14.46357 -14.46341 -14.44675
 Alpha  occ. eigenvalues --  -14.44032 -14.43689 -14.43245 -10.43231 -10.42342
 Alpha  occ. eigenvalues --  -10.39789 -10.39567 -10.39146 -10.38593 -10.36312
 Alpha  occ. eigenvalues --  -10.35649 -10.35407 -10.35089 -10.34907 -10.34869
 Alpha  occ. eigenvalues --  -10.34822 -10.34767 -10.34696 -10.34538 -10.34502
 Alpha  occ. eigenvalues --  -10.34346 -10.34307 -10.33707 -10.33644 -10.33383
 Alpha  occ. eigenvalues --  -10.33243 -10.33054 -10.32827 -10.32796 -10.32775
 Alpha  occ. eigenvalues --  -10.32662 -10.32623 -10.32575 -10.32450 -10.32419
 Alpha  occ. eigenvalues --  -10.32368 -10.32299 -10.32198 -10.32033 -10.32023
 Alpha  occ. eigenvalues --  -10.31952 -10.31888 -10.31868 -10.31723 -10.31713
 Alpha  occ. eigenvalues --  -10.31712 -10.31643 -10.31533 -10.31186 -10.31075
 Alpha  occ. eigenvalues --  -10.31000 -10.30692 -10.30652 -10.30469 -10.30347
 Alpha  occ. eigenvalues --  -10.30321 -10.30290 -10.30221 -10.30129 -10.29979
 Alpha  occ. eigenvalues --  -10.29970 -10.29858 -10.29769 -10.29744 -10.29723
 Alpha  occ. eigenvalues --  -10.29680 -10.29654 -10.29338 -10.29269 -10.28835
 Alpha  occ. eigenvalues --  -10.28737  -3.21706  -3.21066  -1.95297  -1.94837
 Alpha  occ. eigenvalues --   -1.94653  -1.94621  -1.94198  -1.94043  -1.18757
 Alpha  occ. eigenvalues --   -1.16182  -1.13096  -1.11691  -1.10728  -1.09589
 Alpha  occ. eigenvalues --   -1.09576  -1.09004  -1.07860  -1.07279  -1.06717
 Alpha  occ. eigenvalues --   -1.05618  -1.05555  -1.05178  -1.03963  -1.03577
 Alpha  occ. eigenvalues --   -0.95021  -0.94174  -0.91488  -0.90582  -0.90539
 Alpha  occ. eigenvalues --   -0.90187  -0.90002  -0.89867  -0.89547  -0.89337
 Alpha  occ. eigenvalues --   -0.89091  -0.88989  -0.88920  -0.88396  -0.86284
 Alpha  occ. eigenvalues --   -0.86185  -0.86042  -0.85931  -0.84709  -0.84593
 Alpha  occ. eigenvalues --   -0.84021  -0.83788  -0.83514  -0.83261  -0.82700
 Alpha  occ. eigenvalues --   -0.82695  -0.81004  -0.80263  -0.79714  -0.79636
 Alpha  occ. eigenvalues --   -0.78960  -0.78835  -0.78216  -0.77900  -0.77236
 Alpha  occ. eigenvalues --   -0.76823  -0.75289  -0.74516  -0.74315  -0.73433
 Alpha  occ. eigenvalues --   -0.71008  -0.70782  -0.70562  -0.69960  -0.69784
 Alpha  occ. eigenvalues --   -0.69641  -0.69272  -0.68959  -0.67955  -0.67643
 Alpha  occ. eigenvalues --   -0.67626  -0.67506  -0.67133  -0.66662  -0.66662
 Alpha  occ. eigenvalues --   -0.66525  -0.64444  -0.63329  -0.62610  -0.62530
 Alpha  occ. eigenvalues --   -0.62191  -0.61366  -0.61210  -0.60857  -0.60500
 Alpha  occ. eigenvalues --   -0.60420  -0.60066  -0.59786  -0.59497  -0.59364
 Alpha  occ. eigenvalues --   -0.59033  -0.58125  -0.57821  -0.57700  -0.57477
 Alpha  occ. eigenvalues --   -0.57183  -0.56378  -0.56320  -0.55805  -0.55544
 Alpha  occ. eigenvalues --   -0.55478  -0.55290  -0.55179  -0.54976  -0.54945
 Alpha  occ. eigenvalues --   -0.54888  -0.54620  -0.54582  -0.54468  -0.54282
 Alpha  occ. eigenvalues --   -0.54250  -0.54036  -0.53527  -0.53244  -0.53149
 Alpha  occ. eigenvalues --   -0.53142  -0.52908  -0.52578  -0.52570  -0.52502
 Alpha  occ. eigenvalues --   -0.52327  -0.52031  -0.51966  -0.51898  -0.51566
 Alpha  occ. eigenvalues --   -0.51204  -0.51178  -0.51040  -0.50807  -0.50740
 Alpha  occ. eigenvalues --   -0.50682  -0.50523  -0.50373  -0.50359  -0.50067
 Alpha  occ. eigenvalues --   -0.50028  -0.49790  -0.49707  -0.49631  -0.49394
 Alpha  occ. eigenvalues --   -0.49316  -0.49069  -0.48791  -0.48690  -0.48566
 Alpha  occ. eigenvalues --   -0.48313  -0.48195  -0.48121  -0.48082  -0.47858
 Alpha  occ. eigenvalues --   -0.47589  -0.47357  -0.47259  -0.47071  -0.46934
 Alpha  occ. eigenvalues --   -0.46492  -0.46258  -0.46222  -0.45966  -0.45912
 Alpha  occ. eigenvalues --   -0.45788  -0.45574  -0.45564  -0.45304  -0.45298
 Alpha  occ. eigenvalues --   -0.45011  -0.44983  -0.44726  -0.44635  -0.44625
 Alpha  occ. eigenvalues --   -0.44481  -0.43959  -0.43801  -0.43679  -0.43646
 Alpha  occ. eigenvalues --   -0.43516  -0.43373  -0.43230  -0.43185  -0.43010
 Alpha  occ. eigenvalues --   -0.42942  -0.42714  -0.42597  -0.42465  -0.42299
 Alpha  occ. eigenvalues --   -0.42215  -0.42041  -0.41642  -0.41294  -0.41023
 Alpha  occ. eigenvalues --   -0.40482  -0.40313  -0.39974  -0.39887  -0.39474
 Alpha  occ. eigenvalues --   -0.39088  -0.38567  -0.38462  -0.38259  -0.38169
 Alpha  occ. eigenvalues --   -0.38153  -0.37683  -0.36650  -0.36482  -0.35963
 Alpha  occ. eigenvalues --   -0.35735  -0.35701  -0.35268  -0.34081  -0.33731
 Alpha  occ. eigenvalues --   -0.33436  -0.33286  -0.32816  -0.32684  -0.32377
 Alpha  occ. eigenvalues --   -0.32302  -0.31615  -0.31533  -0.26157  -0.25784
 Alpha  occ. eigenvalues --   -0.23558  -0.22799
 Alpha virt. eigenvalues --   -0.07114  -0.07031  -0.00800   0.00767   0.01752
 Alpha virt. eigenvalues --    0.02177   0.04121   0.04291   0.04905   0.05370
 Alpha virt. eigenvalues --    0.06671   0.07334   0.07795   0.07832   0.08054

 Mulliken charges:
               1
     1  Mg   0.950762
     2  C   -0.001398
     3  C   -0.092590
     4  C   -0.057158
     5  C   -0.097689
     6  N   -0.289364
     7  C   -0.079947
     8  C   -0.022150
     9  C   -0.152065
    10  C    0.044640
    11  C    0.020236
    12  C    0.019303
    13  C   -0.121895
    14  H   -0.003337
    15  N   -0.573467
    16  C    0.230532
    17  C   -0.157427
    18  C   -0.064014
    19  C    0.176510
    20  C    0.067666
    21  C    0.056966
    22  O   -0.243166
    23  C   -0.029277
    24  N   -0.281857
    25  C    0.040538
    26  C   -0.118746
    27  C   -0.082437
    28  C    0.022917
    29  C    0.039308
    30  C   -0.018075
    31  C   -0.035015
    32  N   -0.420946
    33  C    0.154689
    34  C   -0.152003
    35  C   -0.029701
    36  C    0.146202
    37  C    0.092498
    38  C    0.133310
    39  O   -0.250652
    40  C   -0.095360
    41  C    0.288751
    42  O   -0.246443
    43  O   -0.409301
    44  C    0.146615
    45  H   -0.006577
    46  H    0.019341
    47  H   -0.015351
    48  H    0.024924
    49  H    0.044113
    50  H    0.036805
    51  H    0.039487
    52  H    0.044023
    53  H    0.028334
    54  H    0.057723
    55  H    0.065832
    56  H    0.078880
    57  H    0.055849
    58  H    0.031502
    59  H    0.060520
    60  H    0.053743
    61  H    0.050966
    62  H    0.060071
    63  H    0.047805
    64  H    0.033913
    65  H    0.061712
    66  H    0.029040
    67  H    0.039366
    68  H    0.034197
    69  H    0.025137
    70  H    0.022693
    71  H    0.040440
    72  H    0.046648
    73  H    0.029960
    74  H    0.045563
    75  H    0.071968
    76  H    0.082341
    77  H    0.044005
    78  H    0.042302
    79  H    0.066764
    80  Mg   0.966175
    81  C   -0.049272
    82  C   -0.089685
    83  C   -0.059737
    84  C   -0.106066
    85  N   -0.317468
    86  C    0.011521
    87  C   -0.040496
    88  C   -0.105301
    89  C    0.050292
    90  C   -0.005212
    91  C   -0.008638
    92  C   -0.109755
    93  H    0.017069
    94  N   -0.387951
    95  C    0.164051
    96  C   -0.188352
    97  C   -0.059167
    98  C    0.115159
    99  C    0.051917
   100  C    0.080768
   101  O   -0.219383
   102  C   -0.036871
   103  N   -0.403403
   104  C    0.019107
   105  C   -0.074838
   106  C   -0.053984
   107  C    0.103242
   108  C    0.032750
   109  C   -0.056561
   110  C   -0.031333
   111  N   -0.481568
   112  C    0.161773
   113  C   -0.187072
   114  C   -0.019252
   115  C    0.159819
   116  C    0.089887
   117  C    0.119913
   118  O   -0.226405
   119  C   -0.061780
   120  C    0.258060
   121  O   -0.245689
   122  O   -0.357608
   123  C    0.146430
   124  H   -0.009485
   125  H    0.024582
   126  H    0.001072
   127  H    0.044141
   128  H    0.046812
   129  H    0.047922
   130  H    0.045134
   131  H    0.037731
   132  H    0.030218
   133  H    0.028366
   134  H    0.044412
   135  H    0.052419
   136  H    0.066384
   137  H    0.038011
   138  H    0.030960
   139  H    0.036004
   140  H    0.074480
   141  H    0.049314
   142  H    0.043738
   143  H    0.035683
   144  H    0.052983
   145  H    0.026345
   146  H    0.041803
   147  H    0.029378
   148  H    0.020530
   149  H    0.036629
   150  H    0.025280
   151  H    0.038951
   152  H    0.066674
   153  H    0.037310
   154  H    0.055636
   155  H    0.057975
   156  H    0.070448
   157  H    0.046802
   158  H    0.060269
 Sum of Mulliken charges =  -0.00000

 Dipole moment (field-independent basis, Debye):
    X=             -2.2289    Y=              1.3515    Z=              2.2842  Tot=              3.4658
 Quadrupole moment (field-independent basis, Debye-Ang):
   XX=           -676.9821   YY=           -480.5142   ZZ=           -504.0146
   XY=             42.1525   XZ=            -82.6832   YZ=             48.7341

 Normal termination of Gaussian 16 at Sat Sep 18 23:57:44 2021.
