 Gaussian 16, Revision A.03,
 Gaussian 16:  ES64L-G16RevA.03 25-Dec-2016

 --------------------------------
 #p wB97XD/Def2SVP td=(nstates=5)
 --------------------------------

 --------------------------------
 TDDFT excited states in gaussian
 --------------------------------
 Symbolic Z-matrix:
 Charge =  0 Multiplicity = 1

                         Standard orientation:
 ---------------------------------------------------------------------
 Center     Atomic      Atomic             Coordinates (Angstroms)
 Number     Number       Type             X           Y           Z
 ---------------------------------------------------------------------
      1         12           0      -33.193931   -0.031348   -0.382045
      2          6           0      -29.954521    1.172104   -0.025585
      3          6           0      -31.779300   -3.293868    0.025795
      4          6           0      -36.229527   -1.280374   -0.207761
      5          6           0      -34.375324    3.261420   -0.036056
      6          7           0      -31.127505   -0.915851    0.079312
      7          6           0      -29.961380   -0.183779    0.078644
      8          6           0      -28.763277   -1.101368    0.337191
      9          6           0      -29.374795   -2.503376    0.063974
     10          6           0      -30.860263   -2.256840    0.094133
     11          6           0      -28.977278   -3.253048   -1.267847
     12          6           0      -28.183136   -0.951606    1.753178
     13          6           0      -26.922277   -1.684563    2.010387
     14          1           0      -26.024082   -1.173059    3.200642
     15          7           0      -33.938364   -2.032840   -0.111983
     16          6           0      -33.203486   -3.222764    0.006903
     17          6           0      -34.134315   -4.310871    0.119523
     18          6           0      -35.452604   -3.726913    0.191761
     19          6           0      -35.241842   -2.262190   -0.075717
     20          6           0      -33.689280   -5.787467    0.307957
     21          6           0      -36.717644   -4.563456    0.408243
     22          8           0      -36.696366   -5.782878    0.384437
     23          6           0      -38.004917   -3.870246    0.644625
     24          7           0      -35.039937    0.896058   -0.376329
     25          6           0      -36.144298    0.142485   -0.344875
     26          6           0      -37.416594    1.067017   -0.170931
     27          6           0      -36.867069    2.540664   -0.054362
     28          6           0      -35.274061    2.222202   -0.107735
     29          6           0      -38.572964    0.895142   -1.190696
     30          6           0      -37.282363    3.160530    1.297044
     31          6           0      -37.456161    4.684161    1.290850
     32          7           0      -32.399919    1.890533   -0.089710
     33          6           0      -32.971445    3.132087   -0.095208
     34          6           0      -31.900428    4.135753   -0.102274
     35          6           0      -30.739268    3.413485   -0.168724
     36          6           0      -31.057202    2.076414   -0.092530
     37          6           0      -32.087569    5.654474   -0.178546
     38          6           0      -29.312045    3.527599   -0.194137
     39          8           0      -28.577298    4.483168   -0.243284
     40          6           0      -28.741974    2.071885   -0.116949
     41          6           0      -28.015551    1.806799   -1.389145
     42          8           0      -28.413822    1.994780   -2.505162
     43          8           0      -26.808465    1.153456   -1.085807
     44          6           0      -26.019047    0.752416   -2.215377
     45          1           0      -31.246296   -4.245806    0.061163
     46          1           0      -37.288554   -1.546950   -0.179998
     47          1           0      -34.706445    4.301452    0.001335
     48          1           0      -28.049825   -0.887315   -0.457437
     49          1           0      -29.228750   -3.247273    0.846385
     50          1           0      -28.661790   -4.239380   -0.928341
     51          1           0      -28.424765   -2.692845   -2.022647
     52          1           0      -29.909434   -3.445989   -1.798643
     53          1           0      -28.801396   -1.346434    2.559841
     54          1           0      -28.037753    0.104013    1.982862
     55          1           0      -26.350165   -1.654019    1.083104
     56          1           0      -27.153997   -2.737763    2.168105
     57          1           0      -33.927882   -5.862783    1.369331
     58          1           0      -32.615386   -5.971547    0.270835
     59          1           0      -34.123043   -6.622049   -0.243188
     60          1           0      -37.783707   -3.142980    1.425801
     61          1           0      -38.712536   -4.590905    1.054854
     62          1           0      -38.237362   -3.432762   -0.326603
     63          1           0      -37.858804    0.771838    0.781024
     64          1           0      -37.131322    3.201201   -0.879560
     65          1           0      -39.392258    0.381930   -0.686232
     66          1           0      -38.182633    0.393036   -2.075305
     67          1           0      -38.989042    1.870671   -1.442252
     68          1           0      -36.497352    2.862322    1.991511
     69          1           0      -38.172042    2.710685    1.738193
     70          1           0      -38.485213    4.811551    1.628638
     71          1           0      -37.237779    5.162275    0.335876
     72          1           0      -36.820098    5.139992    2.049724
     73          1           0      -31.467723    6.252943    0.488261
     74          1           0      -33.151650    5.757452    0.035440
     75          1           0      -32.041956    5.907712   -1.237857
     76          1           0      -28.066337    2.054376    0.738302
     77          1           0      -25.145598    1.404467   -2.225548
     78          1           0      -26.466985    0.752359   -3.209374
     79          1           0      -25.718827   -0.281635   -2.048124
     80         12           0       33.018726    0.304517   -0.361417
     81          6           0       30.238457   -1.186847    1.120303
     82          6           0       32.302051    3.223048    1.327705
     83          6           0       35.734267    1.474133   -1.784841
     84          6           0       34.224826   -3.033911   -1.187709
     85          7           0       31.325481    0.932588    1.065143
     86          6           0       30.315410    0.154972    1.557785
     87          6           0       29.411974    0.948417    2.433563
     88          6           0       30.110983    2.362900    2.530353
     89          6           0       31.357108    2.212600    1.573065
     90          6           0       29.169463    3.569167    2.286819
     91          6           0       29.208010    0.311700    3.829781
     92          6           0       27.720729    0.182936    4.154238
     93          1           0       27.224557    0.783054    5.504304
     94          7           0       33.882221    2.124867   -0.265817
     95          6           0       33.433933    3.237319    0.444827
     96          6           0       34.347232    4.316590    0.091991
     97          6           0       35.359995    3.836457   -0.861900
     98          6           0       34.986370    2.403896   -1.084263
     99          6           0       34.330217    5.602590    0.753623
    100          6           0       36.513403    4.657580   -1.266442
    101          8           0       36.692708    5.804281   -0.913092
    102          6           0       37.651625    4.146968   -2.079209
    103          7           0       34.679838   -0.637287   -1.265669
    104          6           0       35.534040    0.118292   -2.028228
    105          6           0       36.562725   -0.770834   -2.694473
    106          6           0       36.339881   -2.104835   -2.086195
    107          6           0       35.064740   -1.942113   -1.420525
    108          6           0       36.576536   -0.713812   -4.276995
    109          6           0       37.384920   -2.458217   -0.972903
    110          6           0       37.693041   -3.872069   -0.788837
    111          7           0       32.385722   -1.735896   -0.136516
    112          6           0       32.923047   -2.956005   -0.567234
    113          6           0       31.932820   -3.976911   -0.425551
    114          6           0       30.888994   -3.365998    0.259244
    115          6           0       31.227059   -1.979617    0.456252
    116          6           0       32.112685   -5.375852   -0.887511
    117          6           0       29.639254   -3.592566    0.868680
    118          8           0       28.986753   -4.608837    0.955080
    119          6           0       29.148557   -2.222782    1.388214
    120          6           0       27.839522   -1.922096    0.786986
    121          8           0       27.656709   -1.376689   -0.314427
    122          8           0       26.842162   -2.479123    1.554103
    123          6           0       25.445662   -2.239894    1.228024
    124          1           0       31.979580    4.129207    1.843692
    125          1           0       36.688468    1.712224   -2.261469
    126          1           0       34.614101   -4.011983   -1.478122
    127          1           0       28.552771    1.168435    1.799328
    128          1           0       30.504215    2.587351    3.521386
    129          1           0       28.184235    3.128586    2.444232
    130          1           0       29.290497    4.101217    1.343164
    131          1           0       29.326859    4.322623    3.058206
    132          1           0       29.576059    0.921884    4.654388
    133          1           0       29.713624   -0.653291    3.799472
    134          1           0       27.665553   -0.897353    4.287702
    135          1           0       27.169028    0.512581    3.275098
    136          1           0       33.500381    5.605929    1.460672
    137          1           0       34.124359    6.464546    0.118285
    138          1           0       35.253956    5.729090    1.319344
    139          1           0       37.088473    3.648636   -2.868296
    140          1           0       38.212841    3.429427   -1.480068
    141          1           0       38.256921    4.964784   -2.470826
    142          1           0       37.506932   -0.326732   -2.381434
    143          1           0       36.172987   -2.949136   -2.755156
    144          1           0       35.954820    0.107030   -4.634959
    145          1           0       36.384947   -1.665761   -4.773390
    146          1           0       37.528208   -0.374511   -4.685073
    147          1           0       37.056630   -2.029652   -0.025903
    148          1           0       38.342214   -1.979861   -1.179342
    149          1           0       38.491950   -4.146462   -1.478572
    150          1           0       36.814631   -4.506697   -0.910639
    151          1           0       38.214289   -4.012816    0.158598
    152          1           0       32.645079   -5.411577   -1.837879
    153          1           0       31.184298   -5.943471   -0.952806
    154          1           0       32.812643   -5.794163   -0.164140
    155          1           0       28.884199   -2.240350    2.445609
    156          1           0       25.014674   -2.725950    0.352693
    157          1           0       25.263607   -1.166658    1.175957
    158          1           0       24.902849   -2.692148    2.057208
 ---------------------------------------------------------------------

 SCF Done:  E(RwB97XD) =  -4070.58440356     A.U. after   19 cycles

 Excitation energies and oscillator strengths:

 Excited State   1:      Singlet-A      1.6144 eV  767.99 nm  f=0.3660  <S**2>=0.000
     310 -> 315       -0.19431
     312 -> 313        0.68134
     310 <- 315       -0.12117
 This state for optimization and/or second-order correction.
 Total Energy, E(TD-HF/TD-DFT) =  -4070.52507522
 Copying the excited state density for this state as the 1-particle RhoCI density.

 Excited State   2:      Singlet-A      1.7222 eV  719.91 nm  f=0.3958  <S**2>=0.000
     309 -> 316       -0.17624
     311 -> 314        0.68546
     309 <- 316       -0.11114

 Excited State   3:      Singlet-A      2.1298 eV  582.13 nm  f=0.0995  <S**2>=0.000
     310 -> 313        0.63359
     312 -> 315        0.30004

 Excited State   4:      Singlet-A      2.2424 eV  552.90 nm  f=0.1147  <S**2>=0.000
     309 -> 314        0.63516
     311 -> 316        0.29264

 Excited State   5:      Singlet-A      3.2692 eV  379.25 nm  f=0.0024  <S**2>=0.000
     306 -> 313        0.24596
     307 -> 313        0.52180
     308 -> 313       -0.35551

 The electronic state is 1-A.
 Alpha  occ. eigenvalues --  -46.96006 -46.95284 -19.30176 -19.30098 -19.25406
 Alpha  occ. eigenvalues --  -19.24318 -19.23762 -19.23530 -19.23399 -19.22406
 Alpha  occ. eigenvalues --  -14.47234 -14.46973 -14.46926 -14.46552 -14.44909
 Alpha  occ. eigenvalues --  -14.44867 -14.43764 -14.43656 -10.43337 -10.42943
 Alpha  occ. eigenvalues --  -10.38863 -10.38201 -10.38118 -10.37650 -10.36454
 Alpha  occ. eigenvalues --  -10.35720 -10.35681 -10.35651 -10.35589 -10.35407
 Alpha  occ. eigenvalues --  -10.35340 -10.35196 -10.35149 -10.35085 -10.35061
 Alpha  occ. eigenvalues --  -10.34955 -10.34549 -10.34458 -10.33891 -10.33796
 Alpha  occ. eigenvalues --  -10.33165 -10.33097 -10.32967 -10.32709 -10.32704
 Alpha  occ. eigenvalues --  -10.32553 -10.32429 -10.32377 -10.32330 -10.32277
 Alpha  occ. eigenvalues --  -10.32275 -10.32272 -10.32248 -10.32242 -10.32204
 Alpha  occ. eigenvalues --  -10.32069 -10.32018 -10.31950 -10.31906 -10.31858
 Alpha  occ. eigenvalues --  -10.31771 -10.31616 -10.31437 -10.31410 -10.31343
 Alpha  occ. eigenvalues --  -10.31323 -10.31205 -10.31127 -10.30895 -10.30713
 Alpha  occ. eigenvalues --  -10.30672 -10.30498 -10.30401 -10.30358 -10.30333
 Alpha  occ. eigenvalues --  -10.30330 -10.30149 -10.30094 -10.29986 -10.29875
 Alpha  occ. eigenvalues --  -10.29434 -10.29362 -10.29062 -10.28786 -10.28753
 Alpha  occ. eigenvalues --  -10.27931  -3.21885  -3.21222  -1.95477  -1.95009
 Alpha  occ. eigenvalues --   -1.94837  -1.94813  -1.94354  -1.94178  -1.18764
 Alpha  occ. eigenvalues --   -1.17629  -1.12531  -1.12382  -1.12288  -1.12060
 Alpha  occ. eigenvalues --   -1.11022  -1.08899  -1.06988  -1.06599  -1.05841
 Alpha  occ. eigenvalues --   -1.05817  -1.05737  -1.05008  -1.04869  -1.03629
 Alpha  occ. eigenvalues --   -0.95221  -0.94635  -0.92651  -0.91458  -0.91288
 Alpha  occ. eigenvalues --   -0.91184  -0.90992  -0.90712  -0.90020  -0.89647
 Alpha  occ. eigenvalues --   -0.89189  -0.88425  -0.88272  -0.87903  -0.87167
 Alpha  occ. eigenvalues --   -0.87152  -0.86453  -0.85920  -0.85377  -0.85089
 Alpha  occ. eigenvalues --   -0.84527  -0.84501  -0.83379  -0.83243  -0.82827
 Alpha  occ. eigenvalues --   -0.82790  -0.80591  -0.79916  -0.79716  -0.79267
 Alpha  occ. eigenvalues --   -0.79070  -0.79067  -0.78244  -0.78132  -0.77496
 Alpha  occ. eigenvalues --   -0.77342  -0.75402  -0.75212  -0.74038  -0.74027
 Alpha  occ. eigenvalues --   -0.71319  -0.71313  -0.71030  -0.70986  -0.69946
 Alpha  occ. eigenvalues --   -0.69758  -0.69475  -0.68763  -0.68410  -0.67994
 Alpha  occ. eigenvalues --   -0.67894  -0.67558  -0.67291  -0.66969  -0.66695
 Alpha  occ. eigenvalues --   -0.66618  -0.64672  -0.64021  -0.62718  -0.62310
 Alpha  occ. eigenvalues --   -0.61877  -0.61476  -0.61455  -0.61296  -0.60976
 Alpha  occ. eigenvalues --   -0.60791  -0.60452  -0.59932  -0.59569  -0.59383
 Alpha  occ. eigenvalues --   -0.58500  -0.58400  -0.57833  -0.57823  -0.57453
 Alpha  occ. eigenvalues --   -0.57417  -0.57137  -0.56834  -0.56369  -0.56320
 Alpha  occ. eigenvalues --   -0.56174  -0.55949  -0.55526  -0.55280  -0.55145
 Alpha  occ. eigenvalues --   -0.55106  -0.54748  -0.54578  -0.54494  -0.54234
 Alpha  occ. eigenvalues --   -0.54032  -0.53852  -0.53682  -0.53661  -0.53616
 Alpha  occ. eigenvalues --   -0.53589  -0.53216  -0.53189  -0.52811  -0.52653
 Alpha  occ. eigenvalues --   -0.52360  -0.52303  -0.52203  -0.51964  -0.51798
 Alpha  occ. eigenvalues --   -0.51619  -0.51350  -0.51246  -0.51061  -0.50970
 Alpha  occ. eigenvalues --   -0.50831  -0.50777  -0.50484  -0.50413  -0.50246
 Alpha  occ. eigenvalues --   -0.50067  -0.49515  -0.49484  -0.49333  -0.49087
 Alpha  occ. eigenvalues --   -0.49080  -0.48991  -0.48944  -0.48722  -0.48570
 Alpha  occ. eigenvalues --   -0.48418  -0.48336  -0.48246  -0.48169  -0.48083
 Alpha  occ. eigenvalues --   -0.47785  -0.47673  -0.47302  -0.47242  -0.47026
 Alpha  occ. eigenvalues --   -0.46887  -0.46642  -0.46522  -0.46464  -0.46083
 Alpha  occ. eigenvalues --   -0.45976  -0.45868  -0.45648  -0.45592  -0.45418
 Alpha  occ. eigenvalues --   -0.45292  -0.45166  -0.45163  -0.44985  -0.44883
 Alpha  occ. eigenvalues --   -0.44861  -0.44639  -0.44468  -0.44337  -0.44241
 Alpha  occ. eigenvalues --   -0.44093  -0.43988  -0.43824  -0.43651  -0.43541
 Alpha  occ. eigenvalues --   -0.43413  -0.43369  -0.43087  -0.42590  -0.42494
 Alpha  occ. eigenvalues --   -0.42168  -0.42156  -0.41797  -0.41603  -0.41112
 Alpha  occ. eigenvalues --   -0.40735  -0.40452  -0.40123  -0.39667  -0.39652
 Alpha  occ. eigenvalues --   -0.39302  -0.39071  -0.38896  -0.38532  -0.38373
 Alpha  occ. eigenvalues --   -0.38301  -0.38026  -0.37200  -0.36349  -0.36275
 Alpha  occ. eigenvalues --   -0.35924  -0.35738  -0.35202  -0.33993  -0.33601
 Alpha  occ. eigenvalues --   -0.33060  -0.32664  -0.32612  -0.32264  -0.32128
 Alpha  occ. eigenvalues --   -0.32044  -0.31692  -0.31540  -0.26613  -0.26231
 Alpha  occ. eigenvalues --   -0.23487  -0.23378
 Alpha virt. eigenvalues --   -0.07521  -0.07376  -0.00599  -0.00028   0.02313
 Alpha virt. eigenvalues --    0.02985   0.04460   0.04824   0.05204   0.05834
 Alpha virt. eigenvalues --    0.06490   0.06951   0.07450   0.07580   0.07934

 Mulliken charges:
               1
     1  Mg   0.953706
     2  C   -0.018595
     3  C   -0.078148
     4  C   -0.102240
     5  C   -0.070824
     6  N   -0.331638
     7  C   -0.062317
     8  C    0.031478
     9  C   -0.153740
    10  C    0.038781
    11  C    0.036049
    12  C    0.038096
    13  C   -0.109431
    14  H    0.041404
    15  N   -0.434400
    16  C    0.181878
    17  C   -0.135701
    18  C   -0.121077
    19  C    0.236078
    20  C    0.062995
    21  C    0.024979
    22  O   -0.229601
    23  C    0.001965
    24  N   -0.396555
    25  C    0.068646
    26  C   -0.119389
    27  C   -0.096978
    28  C    0.094325
    29  C    0.022079
    30  C   -0.030787
    31  C   -0.043119
    32  N   -0.424999
    33  C    0.085972
    34  C   -0.233577
    35  C    0.018452
    36  C    0.142724
    37  C    0.107337
    38  C    0.094397
    39  O   -0.186556
    40  C   -0.073635
    41  C    0.259976
    42  O   -0.213118
    43  O   -0.378386
    44  C    0.124720
    45  H   -0.006367
    46  H   -0.019710
    47  H   -0.006031
    48  H    0.020804
    49  H    0.031378
    50  H    0.043442
    51  H    0.049285
    52  H    0.029124
    53  H    0.029828
    54  H    0.035476
    55  H    0.036417
    56  H    0.039788
    57  H    0.058575
    58  H    0.019615
    59  H    0.074501
    60  H    0.052423
    61  H    0.058021
    62  H    0.078989
    63  H    0.040400
    64  H    0.042192
    65  H    0.035898
    66  H    0.050043
    67  H    0.035384
    68  H    0.033116
    69  H    0.030000
    70  H    0.038266
    71  H    0.042305
    72  H    0.038957
    73  H    0.070610
    74  H    0.005428
    75  H    0.058179
    76  H    0.072854
    77  H    0.057125
    78  H    0.062236
    79  H    0.040220
    80  Mg   0.953235
    81  C    0.048154
    82  C   -0.057432
    83  C   -0.121927
    84  C   -0.096170
    85  N   -0.342815
    86  C   -0.024222
    87  C   -0.029381
    88  C   -0.145969
    89  C    0.045849
    90  C    0.012188
    91  C    0.023759
    92  C   -0.137402
    93  H    0.039243
    94  N   -0.537407
    95  C    0.201991
    96  C   -0.171374
    97  C   -0.064029
    98  C    0.269806
    99  C    0.097356
   100  C   -0.011462
   101  O   -0.239024
   102  C    0.006713
   103  N   -0.368823
   104  C    0.069630
   105  C   -0.083439
   106  C   -0.081678
   107  C    0.063071
   108  C    0.032041
   109  C    0.003090
   110  C   -0.018662
   111  N   -0.407014
   112  C    0.111760
   113  C   -0.185380
   114  C   -0.015260
   115  C    0.112950
   116  C    0.089641
   117  C    0.108492
   118  O   -0.187619
   119  C   -0.127583
   120  C    0.253660
   121  O   -0.269041
   122  O   -0.361213
   123  C    0.149004
   124  H    0.001505
   125  H   -0.005745
   126  H   -0.002808
   127  H    0.049530
   128  H    0.042579
   129  H    0.038431
   130  H    0.051708
   131  H    0.032382
   132  H    0.051890
   133  H    0.051975
   134  H    0.064257
   135  H    0.053288
   136  H    0.001055
   137  H    0.057501
   138  H    0.064874
   139  H    0.039574
   140  H    0.062502
   141  H    0.058214
   142  H    0.032795
   143  H    0.027093
   144  H    0.034034
   145  H    0.045461
   146  H    0.027820
   147  H    0.039415
   148  H    0.019990
   149  H    0.027128
   150  H    0.029238
   151  H    0.034564
   152  H    0.036180
   153  H    0.067944
   154  H    0.051120
   155  H    0.050932
   156  H    0.058138
   157  H    0.047292
   158  H    0.050836
 Sum of Mulliken charges =  -0.00000

 Dipole moment (field-independent basis, Debye):
    X=             -0.6129    Y=             -2.1430    Z=              0.4407  Tot=              2.2721
 Quadrupole moment (field-independent basis, Debye-Ang):
   XX=           -189.0239   YY=           -562.6742   ZZ=           -500.2388
   XY=            -49.8972   XZ=            -26.4998   YZ=             19.5491

 Normal termination of Gaussian 16 at Mon Sep 20 17:36:33 2021.
