 Gaussian 16, Revision A.03,
 Gaussian 16:  ES64L-G16RevA.03 25-Dec-2016

 --------------------------------
 #p wB97XD/Def2SVP td=(nstates=5)
 --------------------------------

 --------------------------------
 TDDFT excited states in gaussian
 --------------------------------
 Symbolic Z-matrix:
 Charge =  0 Multiplicity = 1

                         Standard orientation:
 ---------------------------------------------------------------------
 Center     Atomic      Atomic             Coordinates (Angstroms)
 Number     Number       Type             X           Y           Z
 ---------------------------------------------------------------------
      1         12           0       21.437298   -0.096158    0.573717
      2          6           0       17.917219   -0.224358    0.428177
      3          6           0       21.483565   -3.157453   -0.920772
      4          6           0       24.780022    0.356497    0.023489
      5          6           0       21.053788    3.284389    1.634300
      6          7           0       19.843032   -1.485903   -0.303062
      7          6           0       18.488951   -1.445609   -0.131909
      8          6           0       17.775056   -2.599797   -0.856536
      9          6           0       19.020361   -3.615008   -0.889452
     10          6           0       20.200645   -2.697290   -0.688666
     11          6           0       18.996237   -4.745583    0.173915
     12          6           0       17.274822   -2.250203   -2.329943
     13          6           0       16.128569   -3.051806   -2.927140
     14          1           0       16.335974   -4.036005   -4.097977
     15          7           0       23.032650   -1.238792   -0.305392
     16          6           0       22.822731   -2.520641   -0.723744
     17          6           0       24.030677   -3.163143   -1.000465
     18          6           0       25.049849   -2.178848   -0.713009
     19          6           0       24.335990   -0.925893   -0.336901
     20          6           0       24.168205   -4.606288   -1.470387
     21          6           0       26.526779   -2.476642   -0.839767
     22          8           0       26.900247   -3.622835   -1.199593
     23          6           0       27.656718   -1.463991   -0.439145
     24          7           0       22.655475    1.573371    0.815135
     25          6           0       24.048867    1.496026    0.546268
     26          6           0       24.751481    2.687504    1.135344
     27          6           0       23.634239    3.736357    1.324923
     28          6           0       22.364716    2.835889    1.342784
     29          6           0       25.487574    2.555559    2.487804
     30          6           0       23.555208    4.781208    0.091178
     31          6           0       24.479962    5.989081    0.101930
     32          7           0       19.797181    1.184228    1.126158
     33          6           0       19.799886    2.507784    1.540178
     34          6           0       18.516676    2.995028    1.702460
     35          6           0       17.696504    1.918908    1.322337
     36          6           0       18.532605    0.850252    0.957394
     37          6           0       18.169149    4.370730    2.176971
     38          6           0       16.401119    1.486295    1.265334
     39          8           0       15.379371    2.018830    1.651644
     40          6           0       16.486384    0.182357    0.444421
     41          6           0       15.905973    0.531053   -0.893605
     42          8           0       16.322448    1.398336   -1.596772
     43          8           0       14.776357   -0.248916   -1.147486
     44          6           0       14.092967    0.158669   -2.325546
     45          1           0       21.549488   -4.210583   -1.202739
     46          1           0       25.863928    0.487150    0.061470
     47          1           0       21.020916    4.274920    2.092309
     48          1           0       17.025655   -3.084305   -0.231528
     49          1           0       18.984514   -4.111069   -1.858972
     50          1           0       18.606094   -5.591435   -0.392842
     51          1           0       18.306127   -4.531431    0.989908
     52          1           0       19.999059   -4.985611    0.527613
     53          1           0       18.081461   -2.394692   -3.048725
     54          1           0       17.074493   -1.178591   -2.339427
     55          1           0       15.410940   -2.290061   -3.235294
     56          1           0       15.663776   -3.603594   -2.110231
     57          1           0       25.008805   -5.209233   -1.125313
     58          1           0       24.146065   -4.417386   -2.543412
     59          1           0       23.332798   -5.198984   -1.097623
     60          1           0       27.587641   -1.247381    0.626537
     61          1           0       27.443035   -0.613791   -1.086614
     62          1           0       28.671493   -1.736526   -0.728767
     63          1           0       25.428000    3.053944    0.363922
     64          1           0       23.748014    4.299570    2.251249
     65          1           0       25.044596    3.113030    3.312904
     66          1           0       26.567679    2.505678    2.348455
     67          1           0       25.289576    1.526885    2.788592
     68          1           0       22.510824    5.081970    0.171792
     69          1           0       23.713301    4.271099   -0.859218
     70          1           0       25.019914    6.033357   -0.843514
     71          1           0       25.193361    5.887583    0.920241
     72          1           0       23.917045    6.919984    0.174846
     73          1           0       17.439349    4.755818    1.465380
     74          1           0       19.016132    5.056673    2.135363
     75          1           0       17.715196    4.375699    3.168081
     76          1           0       15.872654   -0.568193    0.941336
     77          1           0       13.316141    0.877738   -2.067019
     78          1           0       13.495837   -0.634068   -2.777824
     79          1           0       14.759783    0.610989   -3.057632
     80         12           0      -20.801310    0.657280    0.183484
     81          6           0      -20.200882   -2.813311    0.316066
     82          6           0      -17.549746    1.040516   -0.541159
     83          6           0      -21.579913    3.775696   -0.408013
     84          6           0      -24.277350   -0.168226    0.261908
     85          7           0      -19.095957   -0.756169   -0.121788
     86          6           0      -19.024103   -2.097610    0.048841
     87          6           0      -17.628558   -2.660007   -0.130495
     88          6           0      -16.789602   -1.319455   -0.129381
     89          6           0      -17.839784   -0.239507   -0.287678
     90          6           0      -15.898297   -1.090912    1.160458
     91          6           0      -17.251860   -3.592772   -1.362947
     92          6           0      -18.165703   -3.694238   -2.613030
     93          1           0      -17.479251   -3.915519   -4.012525
     94          7           0      -19.621581    2.226136   -0.277343
     95          6           0      -18.347092    2.189896   -0.642556
     96          6           0      -17.931751    3.550809   -1.079106
     97          6           0      -19.130567    4.410985   -0.869133
     98          6           0      -20.181236    3.456988   -0.512884
     99          6           0      -16.517513    3.929196   -1.427889
    100          6           0      -19.206841    5.893143   -1.126878
    101          8           0      -18.186132    6.485004   -1.469170
    102          6           0      -20.514336    6.765419   -1.058141
    103          7           0      -22.736287    1.697108   -0.162539
    104          6           0      -22.664721    2.982365   -0.208529
    105          6           0      -24.154823    3.544624   -0.157590
    106          6           0      -24.953191    2.239851   -0.194319
    107          6           0      -23.917055    1.143667   -0.037063
    108          6           0      -24.561691    4.485741    0.988501
    109          6           0      -25.660657    1.952686   -1.618306
    110          6           0      -27.199898    1.984043   -1.638507
    111          7           0      -22.040332   -1.068594    0.205155
    112          6           0      -23.388957   -1.253435    0.358685
    113          6           0      -23.688407   -2.668879    0.697657
    114          6           0      -22.459101   -3.375352    0.569584
    115          6           0      -21.492361   -2.295859    0.377129
    116          6           0      -25.081209   -3.303316    0.909105
    117          6           0      -21.785200   -4.630462    0.597547
    118          8           0      -22.158604   -5.815425    0.634308
    119          6           0      -20.269223   -4.319901    0.510413
    120          6           0      -19.626461   -4.893173    1.776719
    121          8           0      -18.935108   -5.856388    1.976410
    122          8           0      -19.791909   -3.952451    2.799063
    123          6           0      -19.141423   -4.237222    4.115734
    124          1           0      -16.488908    1.134604   -0.783244
    125          1           0      -21.783965    4.836196   -0.574473
    126          1           0      -25.313910   -0.362908    0.543645
    127          1           0      -17.420471   -3.177363    0.805890
    128          1           0      -16.095497   -1.330149   -0.969868
    129          1           0      -16.051252   -1.889255    1.885874
    130          1           0      -16.378702   -0.218063    1.601192
    131          1           0      -14.857220   -0.953985    0.867458
    132          1           0      -17.107883   -4.596122   -0.961913
    133          1           0      -16.261209   -3.313956   -1.723670
    134          1           0      -18.717527   -2.754869   -2.648069
    135          1           0      -18.799140   -4.580681   -2.624551
    136          1           0      -16.355589    5.006419   -1.460002
    137          1           0      -16.269470    3.378469   -2.336009
    138          1           0      -15.923341    3.431422   -0.660837
    139          1           0      -21.155674    6.751082   -0.176097
    140          1           0      -21.189544    6.419423   -1.840761
    141          1           0      -20.306795    7.825867   -1.198317
    142          1           0      -24.373541    4.170302   -1.022258
    143          1           0      -25.767006    2.100003    0.518044
    144          1           0      -23.728172    4.691153    1.660370
    145          1           0      -25.424868    4.105210    1.535626
    146          1           0      -24.856800    5.479130    0.650569
    147          1           0      -25.403918    0.967259   -2.004632
    148          1           0      -25.258873    2.704652   -2.297780
    149          1           0      -27.674636    1.300442   -2.342801
    150          1           0      -27.458591    2.988481   -1.973480
    151          1           0      -27.467127    1.733419   -0.611850
    152          1           0      -25.922101   -2.687540    0.591695
    153          1           0      -25.140814   -3.450766    1.987161
    154          1           0      -25.073832   -4.294911    0.457248
    155          1           0      -19.850242   -4.812590   -0.366354
    156          1           0      -19.016936   -5.275656    4.421967
    157          1           0      -19.841409   -3.809780    4.833410
    158          1           0      -18.193802   -3.749088    4.344328
 ---------------------------------------------------------------------

 SCF Done:  E(RwB97XD) =  -4070.56853789     A.U. after   20 cycles

 Excitation energies and oscillator strengths:

 Excited State   1:      Singlet-A      1.6461 eV  753.18 nm  f=0.4030  <S**2>=0.000
     310 -> 315       -0.19122
     311 -> 313        0.68051
     310 <- 315       -0.11798
 This state for optimization and/or second-order correction.
 Total Energy, E(TD-HF/TD-DFT) =  -4070.50804358
 Copying the excited state density for this state as the 1-particle RhoCI density.

 Excited State   2:      Singlet-A      1.7162 eV  722.43 nm  f=0.4066  <S**2>=0.000
     309 -> 316        0.19069
     312 -> 314        0.68125
     309 <- 316        0.11533

 Excited State   3:      Singlet-A      2.0912 eV  592.88 nm  f=0.1262  <S**2>=0.000
     310 -> 313        0.64853
     311 -> 315        0.26305

 Excited State   4:      Singlet-A      2.2310 eV  555.73 nm  f=0.0955  <S**2>=0.000
     309 -> 314        0.63454
     312 -> 316       -0.29974

 Excited State   5:      Singlet-A      3.1710 eV  390.99 nm  f=0.0098  <S**2>=0.000
     306 -> 313       -0.26112
     307 -> 313        0.61005
     307 -> 318       -0.13662

 The electronic state is 1-A.
 Alpha  occ. eigenvalues --  -46.96658 -46.96408 -19.30633 -19.29870 -19.25846
 Alpha  occ. eigenvalues --  -19.25392 -19.24605 -19.23575 -19.23170 -19.22928
 Alpha  occ. eigenvalues --  -14.47784 -14.47274 -14.46912 -14.46373 -14.45067
 Alpha  occ. eigenvalues --  -14.44713 -14.44409 -14.43819 -10.43781 -10.43561
 Alpha  occ. eigenvalues --  -10.39775 -10.39549 -10.39025 -10.37357 -10.36475
 Alpha  occ. eigenvalues --  -10.36369 -10.35692 -10.35646 -10.35574 -10.35142
 Alpha  occ. eigenvalues --  -10.35123 -10.34995 -10.34759 -10.34743 -10.34730
 Alpha  occ. eigenvalues --  -10.34690 -10.34423 -10.34289 -10.34174 -10.34067
 Alpha  occ. eigenvalues --  -10.33981 -10.33820 -10.33374 -10.33324 -10.33082
 Alpha  occ. eigenvalues --  -10.33063 -10.32874 -10.32860 -10.32477 -10.32377
 Alpha  occ. eigenvalues --  -10.32371 -10.32110 -10.32095 -10.32062 -10.32038
 Alpha  occ. eigenvalues --  -10.31959 -10.31940 -10.31904 -10.31869 -10.31713
 Alpha  occ. eigenvalues --  -10.31682 -10.31652 -10.31533 -10.31524 -10.31499
 Alpha  occ. eigenvalues --  -10.31423 -10.31314 -10.31305 -10.31121 -10.31121
 Alpha  occ. eigenvalues --  -10.30971 -10.30474 -10.30446 -10.30433 -10.30416
 Alpha  occ. eigenvalues --  -10.30351 -10.30339 -10.30322 -10.30235 -10.30015
 Alpha  occ. eigenvalues --  -10.29966 -10.29796 -10.29606 -10.29466 -10.29250
 Alpha  occ. eigenvalues --  -10.28197  -3.22428  -3.22338  -1.96008  -1.95914
 Alpha  occ. eigenvalues --   -1.95538  -1.95458  -1.95386  -1.95306  -1.19801
 Alpha  occ. eigenvalues --   -1.18254  -1.12265  -1.11745  -1.11737  -1.11633
 Alpha  occ. eigenvalues --   -1.09532  -1.09527  -1.08737  -1.07782  -1.06841
 Alpha  occ. eigenvalues --   -1.06717  -1.06059  -1.05982  -1.05326  -1.03908
 Alpha  occ. eigenvalues --   -0.96377  -0.95616  -0.91727  -0.90869  -0.90727
 Alpha  occ. eigenvalues --   -0.90636  -0.90563  -0.90477  -0.90204  -0.89528
 Alpha  occ. eigenvalues --   -0.89032  -0.88902  -0.87870  -0.87319  -0.86833
 Alpha  occ. eigenvalues --   -0.86304  -0.85833  -0.85535  -0.84837  -0.84783
 Alpha  occ. eigenvalues --   -0.83821  -0.83709  -0.82775  -0.82655  -0.82472
 Alpha  occ. eigenvalues --   -0.82306  -0.80473  -0.80023  -0.79641  -0.79312
 Alpha  occ. eigenvalues --   -0.78945  -0.78899  -0.78619  -0.77910  -0.77652
 Alpha  occ. eigenvalues --   -0.77308  -0.75612  -0.75335  -0.74379  -0.74245
 Alpha  occ. eigenvalues --   -0.71602  -0.71481  -0.71199  -0.70598  -0.70421
 Alpha  occ. eigenvalues --   -0.70394  -0.69503  -0.69168  -0.68780  -0.68256
 Alpha  occ. eigenvalues --   -0.67643  -0.67507  -0.67328  -0.66879  -0.66716
 Alpha  occ. eigenvalues --   -0.66241  -0.65186  -0.64809  -0.62592  -0.62508
 Alpha  occ. eigenvalues --   -0.62210  -0.62164  -0.61589  -0.61449  -0.61195
 Alpha  occ. eigenvalues --   -0.61036  -0.60534  -0.60091  -0.60090  -0.59257
 Alpha  occ. eigenvalues --   -0.58499  -0.58348  -0.57864  -0.57696  -0.57653
 Alpha  occ. eigenvalues --   -0.57285  -0.57081  -0.57032  -0.56511  -0.55914
 Alpha  occ. eigenvalues --   -0.55813  -0.55591  -0.55514  -0.55127  -0.54900
 Alpha  occ. eigenvalues --   -0.54739  -0.54718  -0.54531  -0.54222  -0.53966
 Alpha  occ. eigenvalues --   -0.53788  -0.53666  -0.53531  -0.53359  -0.53219
 Alpha  occ. eigenvalues --   -0.53155  -0.53024  -0.52794  -0.52552  -0.52527
 Alpha  occ. eigenvalues --   -0.52072  -0.51955  -0.51785  -0.51748  -0.51668
 Alpha  occ. eigenvalues --   -0.51459  -0.51339  -0.50991  -0.50937  -0.50799
 Alpha  occ. eigenvalues --   -0.50745  -0.50474  -0.50451  -0.50421  -0.50236
 Alpha  occ. eigenvalues --   -0.49874  -0.49797  -0.49529  -0.49373  -0.49281
 Alpha  occ. eigenvalues --   -0.49206  -0.49160  -0.48967  -0.48875  -0.48578
 Alpha  occ. eigenvalues --   -0.48547  -0.48348  -0.48261  -0.48232  -0.48047
 Alpha  occ. eigenvalues --   -0.47976  -0.47797  -0.47726  -0.47490  -0.47295
 Alpha  occ. eigenvalues --   -0.47239  -0.47008  -0.46785  -0.46669  -0.46517
 Alpha  occ. eigenvalues --   -0.46121  -0.45909  -0.45821  -0.45720  -0.45519
 Alpha  occ. eigenvalues --   -0.45290  -0.45256  -0.45176  -0.45086  -0.44899
 Alpha  occ. eigenvalues --   -0.44578  -0.44557  -0.44442  -0.44255  -0.44160
 Alpha  occ. eigenvalues --   -0.44042  -0.43999  -0.43453  -0.43363  -0.43297
 Alpha  occ. eigenvalues --   -0.43178  -0.43112  -0.42919  -0.42851  -0.42596
 Alpha  occ. eigenvalues --   -0.42398  -0.42207  -0.41880  -0.41361  -0.41145
 Alpha  occ. eigenvalues --   -0.40763  -0.40444  -0.40132  -0.39827  -0.39722
 Alpha  occ. eigenvalues --   -0.39583  -0.39135  -0.38900  -0.38892  -0.38718
 Alpha  occ. eigenvalues --   -0.38635  -0.38276  -0.37495  -0.37064  -0.37064
 Alpha  occ. eigenvalues --   -0.36259  -0.35863  -0.35675  -0.34093  -0.33659
 Alpha  occ. eigenvalues --   -0.33488  -0.33271  -0.32866  -0.32465  -0.32161
 Alpha  occ. eigenvalues --   -0.31984  -0.31641  -0.31421  -0.26421  -0.26240
 Alpha  occ. eigenvalues --   -0.23841  -0.23344
 Alpha virt. eigenvalues --   -0.07958  -0.07263  -0.00586  -0.00128   0.01415
 Alpha virt. eigenvalues --    0.02002   0.03852   0.04521   0.04559   0.04693
 Alpha virt. eigenvalues --    0.06750   0.06812   0.07190   0.07437   0.07970

 Mulliken charges:
               1
     1  Mg   0.948282
     2  C    0.000525
     3  C   -0.064852
     4  C   -0.087386
     5  C   -0.085710
     6  N   -0.297926
     7  C   -0.037931
     8  C   -0.036670
     9  C   -0.151823
    10  C    0.082408
    11  C    0.029894
    12  C   -0.001026
    13  C   -0.097719
    14  H    0.043781
    15  N   -0.425890
    16  C    0.122680
    17  C   -0.157895
    18  C   -0.085124
    19  C    0.168870
    20  C    0.086424
    21  C    0.032058
    22  O   -0.271695
    23  C   -0.011456
    24  N   -0.428054
    25  C    0.087212
    26  C   -0.092067
    27  C   -0.113388
    28  C    0.082398
    29  C    0.055271
    30  C   -0.033198
    31  C   -0.022709
    32  N   -0.388462
    33  C    0.120817
    34  C   -0.174846
    35  C    0.038978
    36  C    0.121200
    37  C    0.098380
    38  C    0.026005
    39  O   -0.206346
    40  C   -0.074555
    41  C    0.254157
    42  O   -0.209767
    43  O   -0.358106
    44  C    0.118618
    45  H   -0.004345
    46  H   -0.015888
    47  H    0.009960
    48  H    0.028211
    49  H    0.041473
    50  H    0.039156
    51  H    0.042958
    52  H    0.043386
    53  H    0.044051
    54  H    0.047723
    55  H    0.049679
    56  H    0.043074
    57  H    0.069584
    58  H    0.065474
    59  H    0.029164
    60  H    0.067709
    61  H    0.050351
    62  H    0.051447
    63  H    0.031769
    64  H    0.027918
    65  H    0.049146
    66  H    0.044392
    67  H    0.015813
    68  H    0.024914
    69  H    0.037000
    70  H    0.036027
    71  H    0.032844
    72  H    0.043095
    73  H    0.055739
    74  H    0.023751
    75  H    0.063701
    76  H    0.047904
    77  H    0.048950
    78  H    0.048455
    79  H    0.062057
    80  Mg   0.957586
    81  C   -0.036457
    82  C   -0.091670
    83  C   -0.036363
    84  C   -0.103671
    85  N   -0.340986
    86  C   -0.037944
    87  C    0.005322
    88  C   -0.158299
    89  C    0.057860
    90  C    0.033639
    91  C    0.002321
    92  C   -0.150027
    93  H    0.026862
    94  N   -0.476159
    95  C    0.164595
    96  C   -0.173405
    97  C   -0.081311
    98  C    0.167449
    99  C    0.085936
   100  C    0.055498
   101  O   -0.240328
   102  C   -0.026963
   103  N   -0.273764
   104  C    0.045727
   105  C   -0.055761
   106  C   -0.126008
   107  C    0.077322
   108  C    0.014294
   109  C   -0.041888
   110  C   -0.039878
   111  N   -0.401972
   112  C    0.126955
   113  C   -0.186220
   114  C   -0.008833
   115  C    0.160829
   116  C    0.075250
   117  C    0.093788
   118  O   -0.218130
   119  C   -0.083261
   120  C    0.279587
   121  O   -0.209546
   122  O   -0.398020
   123  C    0.134889
   124  H   -0.010859
   125  H   -0.053797
   126  H    0.002650
   127  H    0.040936
   128  H    0.037049
   129  H    0.035424
   130  H    0.038126
   131  H    0.054886
   132  H    0.045338
   133  H    0.044666
   134  H    0.072959
   135  H    0.074365
   136  H    0.077729
   137  H    0.041044
   138  H    0.036964
   139  H    0.056494
   140  H    0.057121
   141  H    0.052408
   142  H    0.035505
   143  H    0.023161
   144  H    0.033256
   145  H    0.035997
   146  H    0.027114
   147  H    0.043322
   148  H    0.025242
   149  H    0.043747
   150  H    0.037807
   151  H    0.028129
   152  H    0.042810
   153  H    0.054943
   154  H    0.069736
   155  H    0.068904
   156  H    0.065903
   157  H    0.044841
   158  H    0.047232
 Sum of Mulliken charges =  -0.00000

 Dipole moment (field-independent basis, Debye):
    X=             -0.9501    Y=              3.1130    Z=              3.1745  Tot=              4.5465
 Quadrupole moment (field-independent basis, Debye-Ang):
   XX=           -350.8944   YY=           -557.4342   ZZ=           -502.3011
   XY=            -40.4968   XZ=              1.3893   YZ=              8.4229

 Normal termination of Gaussian 16 at Sun Sep 19 12:40:14 2021.
