 Gaussian 16, Revision A.03,
 Gaussian 16:  ES64L-G16RevA.03 25-Dec-2016

 --------------------------------
 #p wB97XD/Def2SVP td=(nstates=5)
 --------------------------------

 --------------------------------
 TDDFT excited states in gaussian
 --------------------------------
 Symbolic Z-matrix:
 Charge =  0 Multiplicity = 1

                         Standard orientation:
 ---------------------------------------------------------------------
 Center     Atomic      Atomic             Coordinates (Angstroms)
 Number     Number       Type             X           Y           Z
 ---------------------------------------------------------------------
      1         12           0       -0.720818    0.040264    0.230750
      2          6           0        2.745253    0.481000    0.039047
      3          6           0       -0.282474   -3.349195    0.235909
      4          6           0       -4.007351   -0.295452    0.065856
      5          6           0       -1.040800    3.594378    0.025061
      6          7           0        1.063573   -1.267369    0.097237
      7          6           0        2.394460   -0.913206    0.095942
      8          6           0        3.268703   -2.130030    0.336762
      9          6           0        2.272174   -3.334098    0.106485
     10          6           0        0.910892   -2.571313    0.247265
     11          6           0        2.424295   -4.001229   -1.254587
     12          6           0        4.017318   -1.989765    1.712182
     13          6           0        4.767943   -3.280919    2.141371
     14          1           0        5.287687   -4.167031    1.028439
     15          7           0       -1.928000   -1.542341    0.180056
     16          6           0       -1.579186   -2.883386    0.081294
     17          6           0       -2.766446   -3.749460   -0.026014
     18          6           0       -3.857053   -2.826315   -0.033992
     19          6           0       -3.274781   -1.490445    0.063814
     20          6           0       -2.692746   -5.230212   -0.051852
     21          6           0       -5.318173   -3.179449   -0.140717
     22          8           0       -6.223020   -2.300593   -0.094146
     23          6           0       -5.771525   -4.611577   -0.227661
     24          7           0       -2.312016    1.475621    0.123765
     25          6           0       -3.566128    1.026301    0.070426
     26          6           0       -4.578093    2.234674   -0.152923
     27          6           0       -3.590130    3.529183   -0.208800
     28          6           0       -2.237320    2.839833   -0.025974
     29          6           0       -5.393384    1.967981   -1.484115
     30          6           0       -3.816753    4.580253    0.960406
     31          6           0       -4.912896    5.653815    0.703147
     32          7           0        0.507287    1.701687    0.002794
     33          6           0        0.275634    3.101833    0.049302
     34          6           0        1.611813    3.842118    0.006098
     35          6           0        2.601846    2.867861   -0.072431
     36          6           0        1.872826    1.576583    0.011232
     37          6           0        1.845321    5.318421    0.082972
     38          6           0        4.020515    2.600464   -0.111908
     39          8           0        5.003926    3.346838   -0.146898
     40          6           0        4.191977    1.021574    0.144704
     41          6           0        5.148672    0.371213   -0.828225
     42          8           0        4.828973   -0.047730   -1.907834
     43          8           0        6.395344    0.106801   -0.217408
     44          6           0        7.257603   -0.899845   -0.854509
     45          1           0        0.019477   -4.397574    0.181974
     46          1           0       -5.090883   -0.412996   -0.004181
     47          1           0       -1.066486    4.672908   -0.144543
     48          1           0        4.042823   -2.132100   -0.429539
     49          1           0        2.281802   -4.107050    0.875639
     50          1           0        2.618441   -5.053014   -1.044995
     51          1           0        3.193613   -3.470017   -1.814530
     52          1           0        1.480563   -4.080497   -1.793678
     53          1           0        3.245563   -1.528044    2.327276
     54          1           0        4.745979   -1.194160    1.560393
     55          1           0        4.029362   -3.801715    2.750839
     56          1           0        5.622483   -2.986011    2.750213
     57          1           0       -3.075274   -5.464425   -1.045140
     58          1           0       -3.245841   -5.703106    0.759225
     59          1           0       -1.718737   -5.719751   -0.014446
     60          1           0       -5.499903   -5.124249    0.694081
     61          1           0       -5.217401   -4.898183   -1.122343
     62          1           0       -6.825401   -4.774365   -0.451667
     63          1           0       -5.142283    2.179943    0.778910
     64          1           0       -3.419534    3.991120   -1.182155
     65          1           0       -5.114945    1.054928   -2.010053
     66          1           0       -5.240251    2.791150   -2.182515
     67          1           0       -6.424574    1.817183   -1.166094
     68          1           0       -2.879185    4.982904    1.342667
     69          1           0       -4.187179    4.000797    1.805429
     70          1           0       -5.613899    5.588558    1.534524
     71          1           0       -5.344485    5.477339   -0.282173
     72          1           0       -4.503904    6.664455    0.703140
     73          1           0        2.254407    5.507988    1.075588
     74          1           0        0.911754    5.857487   -0.082632
     75          1           0        2.574860    5.754476   -0.599155
     76          1           0        4.540023    0.921895    1.172414
     77          1           0        7.713976   -0.380224   -1.696596
     78          1           0        6.696153   -1.808869   -1.071206
     79          1           0        7.991285   -1.188174   -0.102205
 ---------------------------------------------------------------------

 SCF Done:  E(RwB97XD) =  -2035.31867446     A.U. after   20 cycles

 Excitation energies and oscillator strengths:

 Excited State   1:      Singlet-A      1.6549 eV  749.21 nm  f=0.3804  <S**2>=0.000
     155 ->158        -0.20551
     156 ->157         0.67802
     155 <-158        -0.12144
 This state for optimization and/or second-order correction.
 Total Energy, E(TD-HF/TD-DFT) =  -2035.25785949
 Copying the excited state density for this state as the 1-particle RhoCI density.

 Excited State   2:      Singlet-A      2.2347 eV  554.82 nm  f=0.0335  <S**2>=0.000
     155 ->157         0.58748
     156 ->158         0.38607

 Excited State   3:      Singlet-A      3.3774 eV  367.10 nm  f=0.7585  <S**2>=0.000
     151 ->157        -0.13108
     155 ->157        -0.37255
     156 ->158         0.57840
     155 <-157         0.11393

 Excited State   4:      Singlet-A      3.5245 eV  351.77 nm  f=0.0003  <S**2>=0.000
     153 ->157         0.49221
     153 ->158         0.11654
     153 ->159        -0.33455
     153 ->160        -0.32053

 Excited State   5:      Singlet-A      3.5759 eV  346.72 nm  f=0.0176  <S**2>=0.000
     150 ->157        -0.19785
     150 ->159        -0.16792
     151 ->157         0.17393
     151 ->159         0.20478
     152 ->157         0.40442
     152 ->159         0.29435
     152 ->160        -0.15228
     154 ->157         0.15088

 The electronic state is 1-A.
 Alpha  occ. eigenvalues --  -46.94424 -19.29219 -19.25225 -19.24268 -19.23456
 Alpha  occ. eigenvalues --  -14.46741 -14.46126 -14.44580 -14.44506 -10.43282
 Alpha  occ. eigenvalues --  -10.39583 -10.39238 -10.35490 -10.34942 -10.34762
 Alpha  occ. eigenvalues --  -10.34663 -10.34391 -10.34373 -10.34368 -10.34175
 Alpha  occ. eigenvalues --  -10.33594 -10.33494 -10.33410 -10.33243 -10.32619
 Alpha  occ. eigenvalues --  -10.32351 -10.32296 -10.32246 -10.31806 -10.31754
 Alpha  occ. eigenvalues --  -10.31700 -10.31570 -10.31115 -10.30989 -10.30639
 Alpha  occ. eigenvalues --  -10.30380 -10.30309 -10.30087 -10.30056 -10.29620
 Alpha  occ. eigenvalues --  -10.29430 -10.29199 -10.29198  -3.20522  -1.94122
 Alpha  occ. eigenvalues --   -1.93634  -1.93526  -1.17623  -1.11379  -1.10027
 Alpha  occ. eigenvalues --   -1.09985  -1.06329  -1.05480  -1.04827  -1.03406
 Alpha  occ. eigenvalues --   -0.93582  -0.90855  -0.90435  -0.89750  -0.89489
 Alpha  occ. eigenvalues --   -0.88646  -0.88242  -0.86154  -0.84848  -0.84119
 Alpha  occ. eigenvalues --   -0.83816  -0.82692  -0.81961  -0.80942  -0.79348
 Alpha  occ. eigenvalues --   -0.78897  -0.77701  -0.76483  -0.74071  -0.73439
 Alpha  occ. eigenvalues --   -0.71346  -0.70515  -0.70291  -0.69087  -0.67410
 Alpha  occ. eigenvalues --   -0.67115  -0.65915  -0.65766  -0.63275  -0.62661
 Alpha  occ. eigenvalues --   -0.61469  -0.60704  -0.59738  -0.59524  -0.58764
 Alpha  occ. eigenvalues --   -0.58133  -0.57820  -0.56529  -0.56133  -0.55884
 Alpha  occ. eigenvalues --   -0.55603  -0.55200  -0.54446  -0.54147  -0.53833
 Alpha  occ. eigenvalues --   -0.53649  -0.53355  -0.53096  -0.52791  -0.52395
 Alpha  occ. eigenvalues --   -0.52038  -0.51461  -0.51377  -0.51236  -0.50920
 Alpha  occ. eigenvalues --   -0.50780  -0.50431  -0.50056  -0.50021  -0.49358
 Alpha  occ. eigenvalues --   -0.48783  -0.48104  -0.48013  -0.47674  -0.47513
 Alpha  occ. eigenvalues --   -0.47139  -0.47096  -0.46770  -0.46625  -0.46105
 Alpha  occ. eigenvalues --   -0.45914  -0.45419  -0.45069  -0.45000  -0.44837
 Alpha  occ. eigenvalues --   -0.44477  -0.44226  -0.44101  -0.43492  -0.43297
 Alpha  occ. eigenvalues --   -0.42826  -0.42256  -0.42085  -0.41118  -0.40958
 Alpha  occ. eigenvalues --   -0.40467  -0.40104  -0.39898  -0.38828  -0.38254
 Alpha  occ. eigenvalues --   -0.37808  -0.36486  -0.36141  -0.35412  -0.33479
 Alpha  occ. eigenvalues --   -0.33068  -0.32598  -0.32452  -0.32235  -0.25914
 Alpha  occ. eigenvalues --   -0.22222
 Alpha virt. eigenvalues --   -0.06240  -0.00242   0.01833   0.04254   0.06311
 Alpha virt. eigenvalues --    0.06702   0.07697   0.08483   0.09268   0.10550
 Alpha virt. eigenvalues --    0.11690   0.12176   0.12735   0.13282   0.13642

 Mulliken charges:
               1
     1  Mg   0.984953
     2  C   -0.030002
     3  C   -0.097665
     4  C   -0.088065
     5  C   -0.091627
     6  N   -0.320818
     7  C   -0.001251
     8  C   -0.052558
     9  C   -0.133761
    10  C    0.011134
    11  C    0.044508
    12  C   -0.023173
    13  C   -0.099815
    14  H    0.046660
    15  N   -0.499630
    16  C    0.214730
    17  C   -0.158711
    18  C   -0.076612
    19  C    0.175236
    20  C    0.073831
    21  C    0.037677
    22  O   -0.272510
    23  C    0.020739
    24  N   -0.348974
    25  C    0.045822
    26  C   -0.087843
    27  C   -0.049363
    28  C    0.040550
    29  C    0.013488
    30  C   -0.039921
    31  C   -0.032201
    32  N   -0.451860
    33  C    0.124972
    34  C   -0.194054
    35  C   -0.009028
    36  C    0.139137
    37  C    0.070670
    38  C    0.151134
    39  O   -0.215008
    40  C   -0.144369
    41  C    0.289221
    42  O   -0.219301
    43  O   -0.405866
    44  C    0.143359
    45  H   -0.011160
    46  H    0.021200
    47  H    0.001207
    48  H    0.028732
    49  H    0.029455
    50  H    0.028585
    51  H    0.059093
    52  H    0.036171
    53  H    0.041258
    54  H    0.036874
    55  H    0.058421
    56  H    0.059616
    57  H    0.054088
    58  H    0.057810
    59  H    0.036126
    60  H    0.065613
    61  H    0.039182
    62  H    0.055196
    63  H    0.050622
    64  H    0.044463
    65  H    0.052660
    66  H    0.038278
    67  H    0.049594
    68  H    0.034806
    69  H    0.019204
    70  H    0.041757
    71  H    0.039432
    72  H    0.036826
    73  H    0.060586
    74  H    0.027133
    75  H    0.060459
    76  H    0.091855
    77  H    0.068545
    78  H    0.050147
    79  H    0.052335
 Sum of Mulliken charges =  -0.00000

 Dipole moment (field-independent basis, Debye):
    X=             -0.9590    Y=             -4.0944    Z=              1.9688  Tot=              4.6432
 Quadrupole moment (field-independent basis, Debye-Ang):
   XX=           -273.2117   YY=           -222.8255   ZZ=           -257.3405
   XY=            -24.7310   XZ=              7.5425   YZ=              1.4100

 Normal termination of Gaussian 16 at Sun Sep 19 13:37:03 2021.
