 Gaussian 16, Revision A.03,
 Gaussian 16:  ES64L-G16RevA.03 25-Dec-2016

 --------------------------------
 #p wB97XD/Def2SVP td=(nstates=5)
 --------------------------------

 --------------------------------
 TDDFT excited states in gaussian
 --------------------------------
 Symbolic Z-matrix:
 Charge =  0 Multiplicity = 1

                         Standard orientation:
 ---------------------------------------------------------------------
 Center     Atomic      Atomic             Coordinates (Angstroms)
 Number     Number       Type             X           Y           Z
 ---------------------------------------------------------------------
      1         12           0      -29.739059    0.269099    0.352556
      2          6           0      -28.083729   -2.317837   -1.187400
      3          6           0      -29.572086    2.061706   -2.716370
      4          6           0      -30.865990    3.085963    1.844191
      5          6           0      -29.595911   -1.288033    3.319960
      6          7           0      -28.910039   -0.098586   -1.719564
      7          6           0      -28.262586   -1.251574   -2.074225
      8          6           0      -27.919252   -1.253137   -3.565553
      9          6           0      -28.246140    0.264082   -3.947069
     10          6           0      -28.950137    0.786548   -2.729046
     11          6           0      -26.994233    1.096385   -4.409346
     12          6           0      -28.777362   -2.293948   -4.420034
     13          6           0      -28.166889   -3.170610   -5.486887
     14          1           0      -27.246424   -2.546425   -6.474662
     15          7           0      -30.224450    2.312346   -0.329731
     16          6           0      -30.257337    2.764293   -1.602664
     17          6           0      -30.864711    4.050373   -1.683574
     18          6           0      -31.289674    4.371623   -0.355851
     19          6           0      -30.721613    3.252852    0.454085
     20          6           0      -30.891042    4.747924   -3.005220
     21          6           0      -31.932094    5.650303    0.154252
     22          8           0      -31.997531    5.923581    1.356798
     23          6           0      -32.506694    6.660503   -0.823275
     24          7           0      -30.039047    0.895606    2.365881
     25          6           0      -30.635608    2.068942    2.704140
     26          6           0      -30.990448    2.085602    4.190021
     27          6           0      -30.731888    0.588585    4.609381
     28          6           0      -30.089596    0.016957    3.360837
     29          6           0      -30.379844    3.144778    5.154647
     30          6           0      -31.979023   -0.225935    5.153090
     31          6           0      -32.820738   -1.059595    4.210289
     32          7           0      -28.925299   -1.381308    0.997922
     33          6           0      -29.034953   -2.022320    2.205795
     34          6           0      -28.353953   -3.264761    2.248288
     35          6           0      -27.998994   -3.456802    0.916750
     36          6           0      -28.387938   -2.297671    0.197218
     37          6           0      -28.118050   -4.287797    3.351777
     38          6           0      -27.371919   -4.307936    0.003252
     39          8           0      -26.826089   -5.374126    0.220183
     40          6           0      -27.351853   -3.616721   -1.473418
     41          6           0      -25.959126   -3.460370   -1.874311
     42          8           0      -25.115969   -2.727831   -1.319823
     43          8           0      -25.606457   -4.249158   -2.923734
     44          6           0      -24.182321   -4.431589   -3.225910
     45          1           0      -29.538865    2.476191   -3.725732
     46          1           0      -31.485720    3.862777    2.296446
     47          1           0      -29.853283   -1.956759    4.143097
     48          1           0      -26.881837   -1.570572   -3.678417
     49          1           0      -28.908905    0.322790   -4.810597
     50          1           0      -27.187888    1.448531   -5.421974
     51          1           0      -26.151787    0.416628   -4.280442
     52          1           0      -26.834724    2.033908   -3.875839
     53          1           0      -29.508112   -1.631033   -4.883668
     54          1           0      -29.437378   -2.875831   -3.777556
     55          1           0      -28.945167   -3.751516   -5.981743
     56          1           0      -27.503918   -3.851848   -4.954738
     57          1           0      -31.903856    5.139760   -3.091488
     58          1           0      -30.767019    4.035808   -3.821447
     59          1           0      -30.164947    5.549863   -3.142859
     60          1           0      -33.070690    6.214168   -1.642828
     61          1           0      -31.740709    7.390829   -1.087609
     62          1           0      -33.247825    7.203740   -0.236219
     63          1           0      -32.040369    2.379219    4.186003
     64          1           0      -30.095225    0.501078    5.488980
     65          1           0      -29.666675    2.673066    5.830495
     66          1           0      -31.211632    3.538183    5.738756
     67          1           0      -29.920129    3.895925    4.513294
     68          1           0      -32.638721    0.501545    5.624073
     69          1           0      -31.653894   -0.924769    5.924150
     70          1           0      -33.881133   -0.820370    4.293894
     71          1           0      -32.703939   -2.134433    4.355033
     72          1           0      -32.456033   -0.804823    3.215193
     73          1           0      -28.620414   -3.953383    4.260276
     74          1           0      -27.045388   -4.400583    3.511188
     75          1           0      -28.528855   -5.244023    3.029008
     76          1           0      -27.806895   -4.413857   -2.062021
     77          1           0      -23.958051   -5.346988   -3.773667
     78          1           0      -23.501903   -4.293230   -2.386213
     79          1           0      -23.962978   -3.685398   -3.989735
     80         12           0       29.542003    0.568865   -0.293289
     81          6           0       28.015886   -2.390057    0.649727
     82          6           0       26.551105    2.236273    0.194598
     83          6           0       31.247114    3.476516   -0.474939
     84          6           0       32.556276   -1.258953   -0.397648
     85          7           0       27.575510    0.021830    0.629715
     86          6           0       27.184616   -1.251711    0.730296
     87          6           0       25.718756   -1.320548    1.259637
     88          6           0       25.177764    0.128588    0.845176
     89          6           0       26.514545    0.864685    0.449162
     90          6           0       24.059193    0.071821   -0.223039
     91          6           0       25.707499   -1.473814    2.763564
     92          6           0       24.663293   -2.430903    3.316939
     93          1           0       23.890258   -2.164714    4.663301
     94          7           0       28.891547    2.602254   -0.324744
     95          6           0       27.675957    3.101442   -0.042057
     96          6           0       27.747645    4.518533   -0.193304
     97          6           0       29.071501    4.902815   -0.565617
     98          6           0       29.824139    3.643564   -0.508447
     99          6           0       26.530266    5.366727   -0.163798
    100          6           0       29.519932    6.312745   -0.718671
    101          8           0       28.715917    7.225408   -0.626334
    102          6           0       30.964091    6.658834   -1.061029
    103          7           0       31.697039    1.032477   -0.510972
    104          6           0       32.083247    2.338776   -0.484797
    105          6           0       33.566282    2.447482   -0.338534
    106          6           0       33.974667    0.899058   -0.307425
    107          6           0       32.696347    0.116743   -0.479647
    108          6           0       34.261162    3.299695   -1.416947
    109          6           0       34.817962    0.425366    0.958043
    110          6           0       36.143972   -0.349459    0.773756
    111          7           0       30.180737   -1.374564    0.016294
    112          6           0       31.394354   -1.969062   -0.131883
    113          6           0       31.245700   -3.355704   -0.183437
    114          6           0       29.912552   -3.621179    0.097027
    115          6           0       29.325823   -2.394574    0.282945
    116          6           0       32.417623   -4.362750   -0.373806
    117          6           0       28.947187   -4.605232    0.255679
    118          8           0       29.105334   -5.820602    0.287625
    119          6           0       27.575811   -3.893562    0.688060
    120          6           0       26.557775   -4.068150   -0.284067
    121          8           0       26.385337   -3.527715   -1.379189
    122          8           0       25.688641   -5.020648    0.239013
    123          6           0       24.516437   -5.447133   -0.505902
    124          1           0       25.583031    2.741076    0.193834
    125          1           0       31.928370    4.327263   -0.549101
    126          1           0       33.529209   -1.733383   -0.542520
    127          1           0       25.231807   -2.170431    0.782235
    128          1           0       24.843819    0.735168    1.686361
    129          1           0       23.902276   -0.941848   -0.591231
    130          1           0       24.314689    0.732094   -1.052424
    131          1           0       23.155566    0.480870    0.228302
    132          1           0       25.638554   -0.566233    3.363611
    133          1           0       26.726692   -1.770437    3.011213
    134          1           0       25.131266   -3.414880    3.341492
    135          1           0       23.942449   -2.447444    2.499514
    136          1           0       26.307722    5.500216   -1.222291
    137          1           0       26.714061    6.313783    0.343916
    138          1           0       25.689318    4.893794    0.343507
    139          1           0       31.513067    6.587973   -0.121915
    140          1           0       30.961649    7.722869   -1.296248
    141          1           0       31.344767    6.001572   -1.842711
    142          1           0       33.623216    2.915085    0.643893
    143          1           0       34.676480    0.653880   -1.104596
    144          1           0       34.540603    4.231597   -0.924337
    145          1           0       33.632275    3.476024   -2.290205
    146          1           0       35.186990    2.811650   -1.720533
    147          1           0       34.185553   -0.222978    1.564345
    148          1           0       35.149016    1.256225    1.581471
    149          1           0       35.755644   -1.367826    0.765852
    150          1           0       36.780705   -0.224296    1.648587
    151          1           0       36.671448   -0.314900   -0.179397
    152          1           0       32.987148   -4.406725    0.553651
    153          1           0       33.166376   -4.092939   -1.118822
    154          1           0       32.040413   -5.361702   -0.594434
    155          1           0       27.333937   -4.294431    1.672509
    156          1           0       24.329501   -6.485861   -0.235249
    157          1           0       24.557975   -5.267787   -1.580573
    158          1           0       23.658181   -4.913630   -0.097158
 ---------------------------------------------------------------------

 SCF Done:  E(RwB97XD) =  -4070.60959485     A.U. after   18 cycles

 Excitation energies and oscillator strengths:

 Excited State   1:      Singlet-A      1.6375 eV  757.15 nm  f=0.3950  <S**2>=0.000
     309 -> 315       -0.19100
     311 -> 313        0.68255
     309 <- 315       -0.11968
 This state for optimization and/or second-order correction.
 Total Energy, E(TD-HF/TD-DFT) =  -4070.54941714
 Copying the excited state density for this state as the 1-particle RhoCI density.

 Excited State   2:      Singlet-A      1.6605 eV  746.65 nm  f=0.4203  <S**2>=0.000
     310 -> 316        0.18409
     312 -> 314        0.68430
     310 <- 316        0.11635

 Excited State   3:      Singlet-A      2.1344 eV  580.90 nm  f=0.1706  <S**2>=0.000
     310 -> 314        0.66026
     312 -> 316       -0.24163

 Excited State   4:      Singlet-A      2.1722 eV  570.76 nm  f=0.0972  <S**2>=0.000
     309 -> 313        0.63454
     311 -> 315        0.29670

 Excited State   5:      Singlet-A      3.2599 eV  380.34 nm  f=0.0049  <S**2>=0.000
     308 -> 313        0.67170
     311 -> 315       -0.12905

 The electronic state is 1-A.
 Alpha  occ. eigenvalues --  -46.96029 -46.95443 -19.30278 -19.29880 -19.25134
 Alpha  occ. eigenvalues --  -19.24321 -19.23928 -19.23649 -19.23476 -19.23368
 Alpha  occ. eigenvalues --  -14.46924 -14.46711 -14.46612 -14.46118 -14.44422
 Alpha  occ. eigenvalues --  -14.44162 -14.44089 -14.43817 -10.43452 -10.42776
 Alpha  occ. eigenvalues --  -10.39359 -10.39254 -10.38576 -10.38534 -10.35567
 Alpha  occ. eigenvalues --  -10.35440 -10.35389 -10.35359 -10.35310 -10.35152
 Alpha  occ. eigenvalues --  -10.35082 -10.34898 -10.34889 -10.34404 -10.34148
 Alpha  occ. eigenvalues --  -10.34127 -10.34119 -10.33888 -10.33806 -10.33433
 Alpha  occ. eigenvalues --  -10.32993 -10.32801 -10.32759 -10.32530 -10.32526
 Alpha  occ. eigenvalues --  -10.32526 -10.32490 -10.32476 -10.32392 -10.32349
 Alpha  occ. eigenvalues --  -10.32316 -10.32242 -10.32227 -10.32115 -10.32090
 Alpha  occ. eigenvalues --  -10.32047 -10.31916 -10.31910 -10.31890 -10.31782
 Alpha  occ. eigenvalues --  -10.31599 -10.31546 -10.31433 -10.31355 -10.31075
 Alpha  occ. eigenvalues --  -10.30860 -10.30811 -10.30739 -10.30731 -10.30706
 Alpha  occ. eigenvalues --  -10.30648 -10.30442 -10.30290 -10.30152 -10.30061
 Alpha  occ. eigenvalues --  -10.29985 -10.29927 -10.29908 -10.29726 -10.29697
 Alpha  occ. eigenvalues --  -10.29566 -10.29240 -10.28868 -10.28839 -10.28827
 Alpha  occ. eigenvalues --  -10.28639  -3.21818  -3.21495  -1.95416  -1.95068
 Alpha  occ. eigenvalues --   -1.94930  -1.94776  -1.94580  -1.94510  -1.18026
 Alpha  occ. eigenvalues --   -1.17908  -1.12284  -1.12194  -1.12124  -1.11693
 Alpha  occ. eigenvalues --   -1.09712  -1.08021  -1.07563  -1.07399  -1.06695
 Alpha  occ. eigenvalues --   -1.06162  -1.06088  -1.05872  -1.05507  -1.04668
 Alpha  occ. eigenvalues --   -0.95903  -0.94587  -0.91409  -0.91005  -0.90950
 Alpha  occ. eigenvalues --   -0.90265  -0.90107  -0.90059  -0.89834  -0.89725
 Alpha  occ. eigenvalues --   -0.89368  -0.88850  -0.88370  -0.88174  -0.87372
 Alpha  occ. eigenvalues --   -0.86533  -0.86216  -0.85657  -0.84950  -0.84566
 Alpha  occ. eigenvalues --   -0.84163  -0.83773  -0.83455  -0.83111  -0.82748
 Alpha  occ. eigenvalues --   -0.82279  -0.80355  -0.80135  -0.79556  -0.79404
 Alpha  occ. eigenvalues --   -0.79033  -0.78505  -0.78425  -0.78162  -0.77430
 Alpha  occ. eigenvalues --   -0.77127  -0.75534  -0.75503  -0.74386  -0.73523
 Alpha  occ. eigenvalues --   -0.71838  -0.71547  -0.71212  -0.71203  -0.70095
 Alpha  occ. eigenvalues --   -0.70093  -0.69356  -0.69124  -0.68097  -0.67846
 Alpha  occ. eigenvalues --   -0.67556  -0.67492  -0.67107  -0.66867  -0.66726
 Alpha  occ. eigenvalues --   -0.66204  -0.64710  -0.64234  -0.62487  -0.62202
 Alpha  occ. eigenvalues --   -0.61925  -0.61804  -0.61099  -0.61064  -0.61062
 Alpha  occ. eigenvalues --   -0.60271  -0.60170  -0.60006  -0.59878  -0.59277
 Alpha  occ. eigenvalues --   -0.58337  -0.58237  -0.58106  -0.57464  -0.57329
 Alpha  occ. eigenvalues --   -0.56997  -0.56791  -0.56775  -0.56317  -0.55988
 Alpha  occ. eigenvalues --   -0.55514  -0.55333  -0.55226  -0.55091  -0.54743
 Alpha  occ. eigenvalues --   -0.54591  -0.54483  -0.54257  -0.54168  -0.54051
 Alpha  occ. eigenvalues --   -0.54016  -0.54006  -0.53810  -0.53446  -0.53398
 Alpha  occ. eigenvalues --   -0.53217  -0.52684  -0.52524  -0.52300  -0.52191
 Alpha  occ. eigenvalues --   -0.52083  -0.51929  -0.51798  -0.51522  -0.51461
 Alpha  occ. eigenvalues --   -0.51422  -0.51161  -0.51007  -0.50977  -0.50924
 Alpha  occ. eigenvalues --   -0.50729  -0.50670  -0.50501  -0.50332  -0.50202
 Alpha  occ. eigenvalues --   -0.50166  -0.49774  -0.49500  -0.49438  -0.49094
 Alpha  occ. eigenvalues --   -0.48837  -0.48796  -0.48708  -0.48649  -0.48534
 Alpha  occ. eigenvalues --   -0.48423  -0.48093  -0.48079  -0.47896  -0.47884
 Alpha  occ. eigenvalues --   -0.47800  -0.47759  -0.47422  -0.47260  -0.47232
 Alpha  occ. eigenvalues --   -0.47091  -0.46953  -0.46663  -0.46489  -0.46453
 Alpha  occ. eigenvalues --   -0.45857  -0.45836  -0.45829  -0.45557  -0.45552
 Alpha  occ. eigenvalues --   -0.45377  -0.45288  -0.45166  -0.45084  -0.44924
 Alpha  occ. eigenvalues --   -0.44830  -0.44184  -0.44144  -0.44007  -0.43905
 Alpha  occ. eigenvalues --   -0.43857  -0.43802  -0.43789  -0.43453  -0.43330
 Alpha  occ. eigenvalues --   -0.43228  -0.43031  -0.42920  -0.42492  -0.42204
 Alpha  occ. eigenvalues --   -0.41922  -0.41753  -0.41629  -0.41452  -0.40408
 Alpha  occ. eigenvalues --   -0.40297  -0.40147  -0.40146  -0.39908  -0.39408
 Alpha  occ. eigenvalues --   -0.39273  -0.39242  -0.38657  -0.38280  -0.38041
 Alpha  occ. eigenvalues --   -0.37674  -0.37586  -0.36833  -0.36545  -0.36498
 Alpha  occ. eigenvalues --   -0.35764  -0.35417  -0.35078  -0.34036  -0.33534
 Alpha  occ. eigenvalues --   -0.33271  -0.33245  -0.33029  -0.32677  -0.32625
 Alpha  occ. eigenvalues --   -0.32447  -0.32253  -0.31647  -0.26483  -0.25744
 Alpha  occ. eigenvalues --   -0.23350  -0.23271
 Alpha virt. eigenvalues --   -0.07551  -0.07458  -0.00377   0.00730   0.01893
 Alpha virt. eigenvalues --    0.02315   0.04445   0.04561   0.04943   0.05676
 Alpha virt. eigenvalues --    0.06224   0.06877   0.07186   0.08129   0.08558

 Mulliken charges:
               1
     1  Mg   0.974547
     2  C   -0.004324
     3  C   -0.064910
     4  C   -0.065445
     5  C   -0.074906
     6  N   -0.330555
     7  C    0.000599
     8  C   -0.084560
     9  C   -0.117770
    10  C    0.051385
    11  C    0.025240
    12  C    0.010998
    13  C   -0.102362
    14  H    0.032758
    15  N   -0.356529
    16  C    0.129067
    17  C   -0.163804
    18  C   -0.075548
    19  C    0.100041
    20  C    0.082242
    21  C    0.043304
    22  O   -0.246910
    23  C   -0.017081
    24  N   -0.351529
    25  C    0.050212
    26  C   -0.080496
    27  C   -0.041618
    28  C    0.061679
    29  C    0.035302
    30  C   -0.057974
    31  C   -0.043099
    32  N   -0.478538
    33  C    0.099374
    34  C   -0.189100
    35  C    0.040941
    36  C    0.138055
    37  C    0.096934
    38  C    0.037743
    39  O   -0.207906
    40  C   -0.055982
    41  C    0.260289
    42  O   -0.281303
    43  O   -0.359741
    44  C    0.146621
    45  H   -0.010863
    46  H    0.017268
    47  H   -0.000402
    48  H    0.049025
    49  H    0.042628
    50  H    0.031659
    51  H    0.050438
    52  H    0.040580
    53  H    0.012375
    54  H    0.032259
    55  H    0.056005
    56  H    0.054307
    57  H    0.030588
    58  H    0.036849
    59  H    0.063558
    60  H    0.053820
    61  H    0.071503
    62  H    0.050421
    63  H    0.036334
    64  H    0.036886
    65  H    0.036519
    66  H    0.040347
    67  H    0.051426
    68  H    0.029689
    69  H    0.029344
    70  H    0.038450
    71  H    0.037291
    72  H    0.035925
    73  H    0.026404
    74  H    0.066832
    75  H    0.060966
    76  H    0.060669
    77  H    0.053416
    78  H    0.075504
    79  H    0.036642
    80  Mg   0.939043
    81  C   -0.063419
    82  C   -0.088137
    83  C   -0.039780
    84  C   -0.124244
    85  N   -0.332280
    86  C    0.012999
    87  C   -0.124820
    88  C   -0.102950
    89  C    0.083932
    90  C    0.035820
    91  C    0.029644
    92  C   -0.116597
    93  H    0.044746
    94  N   -0.455884
    95  C    0.158235
    96  C   -0.182187
    97  C   -0.057323
    98  C    0.198507
    99  C    0.076237
   100  C    0.004720
   101  O   -0.236035
   102  C    0.002917
   103  N   -0.354020
   104  C   -0.009578
   105  C   -0.086551
   106  C   -0.051329
   107  C    0.062338
   108  C    0.022935
   109  C   -0.053225
   110  C   -0.067809
   111  N   -0.434060
   112  C    0.194418
   113  C   -0.187438
   114  C    0.053641
   115  C    0.162304
   116  C    0.075205
   117  C    0.056314
   118  O   -0.207015
   119  C   -0.077416
   120  C    0.295293
   121  O   -0.257289
   122  O   -0.388860
   123  C    0.139752
   124  H   -0.000094
   125  H   -0.030095
   126  H   -0.003594
   127  H    0.037132
   128  H    0.045717
   129  H    0.048961
   130  H    0.034000
   131  H    0.036048
   132  H    0.037204
   133  H    0.027163
   134  H    0.055795
   135  H    0.044481
   136  H    0.060688
   137  H    0.065583
   138  H    0.024411
   139  H    0.059345
   140  H    0.051989
   141  H    0.063625
   142  H    0.053042
   143  H    0.024101
   144  H    0.042375
   145  H    0.053156
   146  H    0.040433
   147  H    0.043619
   148  H    0.030908
   149  H    0.022328
   150  H    0.047998
   151  H    0.040145
   152  H    0.047474
   153  H    0.037838
   154  H    0.062253
   155  H    0.083033
   156  H    0.056871
   157  H    0.068860
   158  H    0.036452
 Sum of Mulliken charges =  -0.00000

 Dipole moment (field-independent basis, Debye):
    X=             -1.1238    Y=              1.6418    Z=             -2.3757  Tot=              3.0988
 Quadrupole moment (field-independent basis, Debye-Ang):
   XX=           -139.4996   YY=           -569.8560   ZZ=           -479.5525
   XY=             14.0558   XZ=             85.7387   YZ=            -10.2953

 Normal termination of Gaussian 16 at Mon Sep 20 19:37:31 2021.
