 Gaussian 16, Revision A.03,
 Gaussian 16:  ES64L-G16RevA.03 25-Dec-2016

 --------------------------------
 #p wB97XD/Def2SVP td=(nstates=5)
 --------------------------------

 --------------------------------
 TDDFT excited states in gaussian
 --------------------------------
 Symbolic Z-matrix:
 Charge =  0 Multiplicity = 1

                         Standard orientation:
 ---------------------------------------------------------------------
 Center     Atomic      Atomic             Coordinates (Angstroms)
 Number     Number       Type             X           Y           Z
 ---------------------------------------------------------------------
      1         12           0      -31.926482   -0.088378    0.320797
      2          6           0      -29.386485   -1.667846   -1.482723
      3          6           0      -32.277231    2.076710   -2.414856
      4          6           0      -33.973078    1.864565    2.108656
      5          6           0      -30.741379   -1.586679    3.183301
      6          7           0      -31.003916    0.132717   -1.821494
      7          6           0      -29.950966   -0.630095   -2.218788
      8          6           0      -29.469630   -0.201913   -3.661627
      9          6           0      -30.264821    1.189318   -3.832698
     10          6           0      -31.209033    1.185093   -2.618752
     11          6           0      -29.225361    2.348631   -3.631408
     12          6           0      -30.000157   -1.283736   -4.672688
     13          6           0      -29.770799   -1.021244   -6.186063
     14          1           0      -30.725893   -1.197160   -7.328956
     15          7           0      -33.099919    1.570478   -0.175847
     16          6           0      -33.161434    2.324097   -1.359893
     17          6           0      -34.086021    3.359885   -1.161900
     18          6           0      -34.723000    3.206215    0.062227
     19          6           0      -33.940443    2.174050    0.721934
     20          6           0      -34.403737    4.305154   -2.273888
     21          6           0      -35.872920    4.030643    0.729452
     22          8           0      -36.367489    3.784761    1.824387
     23          6           0      -36.644609    5.112189   -0.031529
     24          7           0      -32.197071    0.171102    2.360990
     25          6           0      -33.208138    0.936776    2.828673
     26          6           0      -33.496281    0.731268    4.328709
     27          6           0      -32.368795   -0.270354    4.703267
     28          6           0      -31.795414   -0.692413    3.362410
     29          6           0      -33.634167    2.054937    5.151818
     30          6           0      -32.753818   -1.463719    5.620015
     31          6           0      -33.512286   -2.555205    4.992505
     32          7           0      -30.455532   -1.436706    0.799645
     33          6           0      -30.092647   -1.946577    1.953742
     34          6           0      -29.056129   -2.972388    1.798901
     35          6           0      -28.771601   -2.867529    0.399853
     36          6           0      -29.603627   -1.912138   -0.150238
     37          6           0      -28.725955   -4.086117    2.678484
     38          6           0      -27.942949   -3.438419   -0.647544
     39          8           0      -27.171298   -4.370327   -0.623764
     40          6           0      -28.284889   -2.604509   -1.888226
     41          6           0      -27.040391   -1.941653   -2.488027
     42          8           0      -26.520069   -0.950039   -2.046992
     43          8           0      -26.586290   -2.697527   -3.542300
     44          6           0      -25.385148   -2.113823   -4.182712
     45          1           0      -32.466623    2.659177   -3.317965
     46          1           0      -34.779133    2.331013    2.679336
     47          1           0      -30.659857   -2.010266    4.185818
     48          1           0      -28.397127   -0.010603   -3.705083
     49          1           0      -30.779027    1.304566   -4.787667
     50          1           0      -29.276517    2.890368   -2.687492
     51          1           0      -29.454827    3.204822   -4.266221
     52          1           0      -28.188401    2.041297   -3.765391
     53          1           0      -31.062936   -1.417194   -4.472542
     54          1           0      -29.555568   -2.235069   -4.379191
     55          1           0      -28.842969   -1.551883   -6.401738
     56          1           0      -29.605598    0.055384   -6.173642
     57          1           0      -33.828342    4.168125   -3.189836
     58          1           0      -34.402634    5.315469   -1.862500
     59          1           0      -35.432415    4.054711   -2.534577
     60          1           0      -36.046035    5.989977   -0.275286
     61          1           0      -37.590954    5.402403    0.425159
     62          1           0      -36.989671    4.645810   -0.954499
     63          1           0      -34.470314    0.255867    4.216570
     64          1           0      -31.613540    0.352368    5.182760
     65          1           0      -34.013057    2.864333    4.528660
     66          1           0      -32.653484    2.346044    5.529056
     67          1           0      -34.338615    1.966290    5.979117
     68          1           0      -33.362896   -0.964800    6.373152
     69          1           0      -31.868530   -1.824660    6.143906
     70          1           0      -32.822682   -3.235197    4.492597
     71          1           0      -34.278645   -2.166134    4.322402
     72          1           0      -34.004218   -3.186810    5.732817
     73          1           0      -29.634851   -4.261667    3.254461
     74          1           0      -27.975083   -3.957792    3.458276
     75          1           0      -28.441487   -4.915691    2.032057
     76          1           0      -28.739899   -3.272867   -2.619972
     77          1           0      -24.745976   -2.929654   -4.519794
     78          1           0      -24.690103   -1.598087   -3.519781
     79          1           0      -25.655640   -1.534673   -5.065019
     80         12           0       31.678487    0.514664   -0.447175
     81          6           0       29.517995   -2.169096    0.554781
     82          6           0       29.144047    2.667961    0.856589
     83          6           0       33.828204    3.093467   -0.315432
     84          6           0       34.176636   -1.771007   -0.928082
     85          7           0       29.632224    0.231319    0.597335
     86          6           0       28.959553   -0.924483    0.867733
     87          6           0       27.571273   -0.648111    1.543624
     88          6           0       27.380503    0.910979    1.221694
     89          6           0       28.823720    1.304905    0.950493
     90          6           0       26.516162    1.207054    0.017571
     91          6           0       27.501204   -1.106380    2.990935
     92          6           0       26.222356   -1.858106    3.443128
     93          1           0       25.071886   -1.104904    4.259807
     94          7           0       31.500306    2.685697    0.101294
     95          6           0       30.327637    3.347887    0.520697
     96          6           0       30.621875    4.778800    0.665674
     97          6           0       32.010548    4.914937    0.269684
     98          6           0       32.524707    3.574563    0.087575
     99          6           0       29.705201    5.835876    1.155285
    100          6           0       32.734900    6.225253    0.088409
    101          8           0       32.085934    7.246298    0.127628
    102          6           0       34.221266    6.353229   -0.153230
    103          7           0       33.662923    0.569414   -0.483430
    104          6           0       34.306018    1.800671   -0.574101
    105          6           0       35.799978    1.523090   -0.756657
    106          6           0       35.858937    0.004547   -1.160999
    107          6           0       34.457914   -0.423561   -0.881122
    108          6           0       36.628178    2.487011   -1.683337
    109          6           0       36.955921   -0.888594   -0.504350
    110          6           0       37.872309   -1.649590   -1.406064
    111          7           0       31.844063   -1.526622   -0.367296
    112          6           0       32.914102   -2.352071   -0.665704
    113          6           0       32.484130   -3.762079   -0.733947
    114          6           0       31.144845   -3.701100   -0.184633
    115          6           0       30.852722   -2.348352    0.014836
    116          6           0       33.242749   -4.991816   -1.158674
    117          6           0       29.971267   -4.552246    0.170719
    118          8           0       29.849203   -5.743923    0.186790
    119          6           0       28.954934   -3.578551    0.758395
    120          6           0       27.668673   -3.751079    0.007067
    121          8           0       27.631487   -3.447333   -1.165959
    122          8           0       26.545045   -4.175693    0.777913
    123          6           0       25.217927   -4.152418    0.091253
    124          1           0       28.373117    3.362691    1.196870
    125          1           0       34.645794    3.815937   -0.337203
    126          1           0       34.949715   -2.457200   -1.279294
    127          1           0       26.752086   -1.101240    0.986055
    128          1           0       27.067062    1.464801    2.106565
    129          1           0       27.123379    1.084386   -0.878983
    130          1           0       26.119638    2.213757    0.148821
    131          1           0       25.651699    0.571953   -0.178731
    132          1           0       27.540020   -0.199621    3.593787
    133          1           0       28.437544   -1.612953    3.224774
    134          1           0       26.620012   -2.666920    4.056617
    135          1           0       25.683716   -2.328416    2.620372
    136          1           0       29.305087    6.324665    0.267490
    137          1           0       30.287934    6.610790    1.653406
    138          1           0       28.880404    5.583648    1.822841
    139          1           0       34.608517    7.371923   -0.149268
    140          1           0       34.389805    5.936745   -1.146400
    141          1           0       34.914309    5.790854    0.471395
    142          1           0       36.184211    1.754932    0.237101
    143          1           0       35.884713   -0.053627   -2.248731
    144          1           0       35.968381    3.030330   -2.360312
    145          1           0       37.404058    1.933963   -2.212410
    146          1           0       37.185419    3.201979   -1.078420
    147          1           0       36.473045   -1.597966    0.167674
    148          1           0       37.513065   -0.253023    0.183810
    149          1           0       37.605836   -2.705852   -1.375008
    150          1           0       38.897538   -1.555145   -1.048430
    151          1           0       37.885670   -1.375085   -2.460626
    152          1           0       32.561315   -5.793151   -1.443614
    153          1           0       33.862749   -5.279002   -0.308962
    154          1           0       33.945800   -4.695628   -1.937407
    155          1           0       28.915899   -3.758470    1.832841
    156          1           0       25.130822   -5.032521   -0.546104
    157          1           0       25.138154   -3.291220   -0.571789
    158          1           0       24.407051   -4.104744    0.817845
 ---------------------------------------------------------------------

 SCF Done:  E(RwB97XD) =  -4070.62421320     A.U. after   19 cycles

 Excitation energies and oscillator strengths:

 Excited State   1:      Singlet-A      1.6114 eV  769.43 nm  f=0.3983  <S**2>=0.000
     309 -> 315        0.17520
     311 -> 313        0.68624
     309 <- 315        0.11590
 This state for optimization and/or second-order correction.
 Total Energy, E(TD-HF/TD-DFT) =  -4070.56499651
 Copying the excited state density for this state as the 1-particle RhoCI density.

 Excited State   2:      Singlet-A      1.6939 eV  731.93 nm  f=0.3897  <S**2>=0.000
     310 -> 316       -0.19055
     312 -> 314        0.68142
     310 <- 316       -0.11528

 Excited State   3:      Singlet-A      2.1827 eV  568.04 nm  f=0.1249  <S**2>=0.000
     309 -> 313        0.63923
     311 -> 315       -0.28433

 Excited State   4:      Singlet-A      2.2137 eV  560.07 nm  f=0.1128  <S**2>=0.000
     310 -> 314        0.64264
     312 -> 316        0.27814

 Excited State   5:      Singlet-A      3.1515 eV  393.42 nm  f=0.0019  <S**2>=0.000
     306 -> 313       -0.12249
     308 -> 313        0.66849
     311 -> 315        0.10227

 The electronic state is 1-A.
 Alpha  occ. eigenvalues --  -46.95659 -46.95050 -19.31019 -19.30509 -19.25676
 Alpha  occ. eigenvalues --  -19.25342 -19.24790 -19.24497 -19.23851 -19.22969
 Alpha  occ. eigenvalues --  -14.47404 -14.46857 -14.46264 -14.45620 -14.43941
 Alpha  occ. eigenvalues --  -14.43786 -14.43744 -14.43691 -10.44111 -10.43636
 Alpha  occ. eigenvalues --  -10.40199 -10.39440 -10.38489 -10.38447 -10.36033
 Alpha  occ. eigenvalues --  -10.35562 -10.35420 -10.35332 -10.35128 -10.34701
 Alpha  occ. eigenvalues --  -10.34684 -10.34568 -10.34480 -10.34462 -10.34301
 Alpha  occ. eigenvalues --  -10.34283 -10.33942 -10.33740 -10.33571 -10.33503
 Alpha  occ. eigenvalues --  -10.33224 -10.33115 -10.32900 -10.32850 -10.32786
 Alpha  occ. eigenvalues --  -10.32755 -10.32695 -10.32673 -10.32646 -10.32573
 Alpha  occ. eigenvalues --  -10.32090 -10.32060 -10.32002 -10.31827 -10.31729
 Alpha  occ. eigenvalues --  -10.31690 -10.31652 -10.31627 -10.31569 -10.31526
 Alpha  occ. eigenvalues --  -10.31375 -10.31293 -10.31153 -10.31042 -10.31010
 Alpha  occ. eigenvalues --  -10.30908 -10.30851 -10.30601 -10.30491 -10.30391
 Alpha  occ. eigenvalues --  -10.30359 -10.30290 -10.30255 -10.30098 -10.29977
 Alpha  occ. eigenvalues --  -10.29903 -10.29874 -10.29739 -10.29710 -10.29624
 Alpha  occ. eigenvalues --  -10.29538 -10.29326 -10.29275 -10.29106 -10.28932
 Alpha  occ. eigenvalues --  -10.28306  -3.21694  -3.21056  -1.95226  -1.94815
 Alpha  occ. eigenvalues --   -1.94666  -1.94631  -1.94194  -1.94011  -1.18995
 Alpha  occ. eigenvalues --   -1.17526  -1.13991  -1.12653  -1.12510  -1.12398
 Alpha  occ. eigenvalues --   -1.10969  -1.10096  -1.06963  -1.06577  -1.05802
 Alpha  occ. eigenvalues --   -1.05590  -1.05360  -1.04801  -1.04505  -1.03535
 Alpha  occ. eigenvalues --   -0.95799  -0.94753  -0.91285  -0.91263  -0.90759
 Alpha  occ. eigenvalues --   -0.90515  -0.90345  -0.90095  -0.89530  -0.89462
 Alpha  occ. eigenvalues --   -0.89138  -0.88171  -0.88113  -0.87585  -0.86399
 Alpha  occ. eigenvalues --   -0.85982  -0.85850  -0.85517  -0.84404  -0.84303
 Alpha  occ. eigenvalues --   -0.83736  -0.83469  -0.82860  -0.82493  -0.82370
 Alpha  occ. eigenvalues --   -0.82173  -0.80504  -0.80083  -0.79521  -0.79433
 Alpha  occ. eigenvalues --   -0.78742  -0.78514  -0.78254  -0.78051  -0.77163
 Alpha  occ. eigenvalues --   -0.76808  -0.74643  -0.74453  -0.73762  -0.73750
 Alpha  occ. eigenvalues --   -0.71956  -0.71442  -0.71132  -0.70894  -0.70317
 Alpha  occ. eigenvalues --   -0.69914  -0.69029  -0.68683  -0.67854  -0.67339
 Alpha  occ. eigenvalues --   -0.67061  -0.66782  -0.66551  -0.66412  -0.66319
 Alpha  occ. eigenvalues --   -0.65973  -0.64482  -0.64342  -0.62104  -0.61801
 Alpha  occ. eigenvalues --   -0.61501  -0.61452  -0.61332  -0.61190  -0.61041
 Alpha  occ. eigenvalues --   -0.60564  -0.60326  -0.60244  -0.59630  -0.59345
 Alpha  occ. eigenvalues --   -0.58494  -0.58477  -0.57601  -0.57599  -0.57468
 Alpha  occ. eigenvalues --   -0.57420  -0.57229  -0.56560  -0.56230  -0.55937
 Alpha  occ. eigenvalues --   -0.55828  -0.55308  -0.55226  -0.55071  -0.55053
 Alpha  occ. eigenvalues --   -0.54840  -0.54597  -0.54509  -0.54165  -0.54031
 Alpha  occ. eigenvalues --   -0.53765  -0.53668  -0.53235  -0.53064  -0.53025
 Alpha  occ. eigenvalues --   -0.52918  -0.52835  -0.52504  -0.52338  -0.52272
 Alpha  occ. eigenvalues --   -0.51868  -0.51863  -0.51806  -0.51672  -0.51608
 Alpha  occ. eigenvalues --   -0.51370  -0.51238  -0.51166  -0.51011  -0.50901
 Alpha  occ. eigenvalues --   -0.50740  -0.50643  -0.50524  -0.50458  -0.50090
 Alpha  occ. eigenvalues --   -0.49846  -0.49600  -0.49435  -0.49051  -0.49006
 Alpha  occ. eigenvalues --   -0.48930  -0.48613  -0.48367  -0.48336  -0.48127
 Alpha  occ. eigenvalues --   -0.48068  -0.47980  -0.47903  -0.47898  -0.47747
 Alpha  occ. eigenvalues --   -0.47640  -0.47274  -0.47195  -0.46991  -0.46910
 Alpha  occ. eigenvalues --   -0.46900  -0.46638  -0.46593  -0.46349  -0.46123
 Alpha  occ. eigenvalues --   -0.45985  -0.45763  -0.45715  -0.45617  -0.45562
 Alpha  occ. eigenvalues --   -0.45398  -0.45264  -0.45240  -0.45177  -0.44832
 Alpha  occ. eigenvalues --   -0.44812  -0.44548  -0.44522  -0.44482  -0.44425
 Alpha  occ. eigenvalues --   -0.44389  -0.44311  -0.43830  -0.43808  -0.43621
 Alpha  occ. eigenvalues --   -0.43549  -0.43016  -0.42725  -0.42629  -0.42467
 Alpha  occ. eigenvalues --   -0.42155  -0.42150  -0.41506  -0.41181  -0.40729
 Alpha  occ. eigenvalues --   -0.40412  -0.40395  -0.39818  -0.39673  -0.39648
 Alpha  occ. eigenvalues --   -0.39349  -0.39321  -0.39153  -0.38816  -0.38607
 Alpha  occ. eigenvalues --   -0.38271  -0.37760  -0.36992  -0.36905  -0.36387
 Alpha  occ. eigenvalues --   -0.36256  -0.35453  -0.35407  -0.33629  -0.33619
 Alpha  occ. eigenvalues --   -0.33316  -0.33102  -0.32775  -0.32396  -0.32259
 Alpha  occ. eigenvalues --   -0.31857  -0.31330  -0.30910  -0.26222  -0.25729
 Alpha  occ. eigenvalues --   -0.22915  -0.22890
 Alpha virt. eigenvalues --   -0.07338  -0.06726   0.00439   0.00597   0.02486
 Alpha virt. eigenvalues --    0.02724   0.04239   0.04352   0.04826   0.05391
 Alpha virt. eigenvalues --    0.06518   0.06925   0.07351   0.07982   0.08068

 Mulliken charges:
               1
     1  Mg   0.973617
     2  C   -0.006737
     3  C   -0.074129
     4  C   -0.111422
     5  C   -0.060441
     6  N   -0.282038
     7  C   -0.051592
     8  C   -0.080807
     9  C   -0.121288
    10  C    0.038000
    11  C    0.009320
    12  C   -0.013345
    13  C   -0.096428
    14  H    0.058571
    15  N   -0.474784
    16  C    0.176340
    17  C   -0.164586
    18  C   -0.081411
    19  C    0.151326
    20  C    0.071441
    21  C    0.085654
    22  O   -0.233809
    23  C   -0.021861
    24  N   -0.406483
    25  C    0.075767
    26  C   -0.112202
    27  C   -0.035620
    28  C   -0.010144
    29  C    0.035616
    30  C   -0.020916
    31  C   -0.015371
    32  N   -0.411483
    33  C    0.152236
    34  C   -0.157215
    35  C   -0.070568
    36  C    0.151391
    37  C    0.070554
    38  C    0.116366
    39  O   -0.187667
    40  C   -0.074581
    41  C    0.263546
    42  O   -0.227570
    43  O   -0.360608
    44  C    0.124791
    45  H   -0.012642
    46  H    0.022422
    47  H   -0.019471
    48  H    0.047345
    49  H    0.048729
    50  H    0.042531
    51  H    0.025847
    52  H    0.050544
    53  H    0.035466
    54  H    0.032168
    55  H    0.051114
    56  H    0.036215
    57  H    0.044487
    58  H    0.048630
    59  H    0.050148
    60  H    0.058442
    61  H    0.054808
    62  H    0.041358
    63  H    0.041038
    64  H    0.042842
    65  H    0.049046
    66  H    0.031779
    67  H    0.040090
    68  H    0.022782
    69  H    0.034919
    70  H    0.032049
    71  H    0.032790
    72  H    0.035428
    73  H    0.029556
    74  H    0.041840
    75  H    0.063979
    76  H    0.079171
    77  H    0.049952
    78  H    0.069096
    79  H    0.056067
    80  Mg   0.981159
    81  C   -0.076548
    82  C   -0.054017
    83  C   -0.079990
    84  C   -0.124254
    85  N   -0.312962
    86  C   -0.015734
    87  C   -0.066161
    88  C   -0.119698
    89  C    0.049050
    90  C    0.041508
    91  C    0.037379
    92  C   -0.107628
    93  H    0.023548
    94  N   -0.419465
    95  C    0.112290
    96  C   -0.143797
    97  C   -0.073643
    98  C    0.168655
    99  C    0.081113
   100  C    0.035401
   101  O   -0.234909
   102  C   -0.011928
   103  N   -0.451636
   104  C    0.092060
   105  C   -0.128657
   106  C   -0.033723
   107  C    0.088926
   108  C    0.013841
   109  C    0.000969
   110  C   -0.047247
   111  N   -0.442141
   112  C    0.135254
   113  C   -0.189445
   114  C   -0.106272
   115  C    0.178280
   116  C    0.090758
   117  C    0.132662
   118  O   -0.174059
   119  C   -0.015120
   120  C    0.278318
   121  O   -0.234430
   122  O   -0.404963
   123  C    0.133357
   124  H   -0.006136
   125  H   -0.037514
   126  H   -0.011855
   127  H    0.025644
   128  H    0.028732
   129  H    0.043278
   130  H    0.042628
   131  H    0.036721
   132  H    0.037360
   133  H    0.040607
   134  H    0.055489
   135  H    0.048135
   136  H    0.055536
   137  H    0.053871
   138  H    0.036864
   139  H    0.051223
   140  H    0.050058
   141  H    0.057907
   142  H    0.051510
   143  H    0.033585
   144  H    0.044832
   145  H    0.038332
   146  H    0.031050
   147  H    0.038650
   148  H    0.025382
   149  H    0.036252
   150  H    0.036904
   151  H    0.035845
   152  H    0.071589
   153  H    0.053865
   154  H    0.034431
   155  H    0.072717
   156  H    0.063798
   157  H    0.051495
   158  H    0.065109
 Sum of Mulliken charges =  -0.00000

 Dipole moment (field-independent basis, Debye):
    X=             -0.7697    Y=              2.7821    Z=             -2.7048  Tot=              3.9558
 Quadrupole moment (field-independent basis, Debye-Ang):
   XX=           -208.3293   YY=           -564.6332   ZZ=           -478.4906
   XY=            -64.4043   XZ=             41.4555   YZ=            -16.7152

 Normal termination of Gaussian 16 at Sat Sep 18 18:00:01 2021.
