 Gaussian 16, Revision A.03,
 Gaussian 16:  ES64L-G16RevA.03 25-Dec-2016

 --------------------------------
 #p wB97XD/Def2SVP td=(nstates=5)
 --------------------------------

 --------------------------------
 TDDFT excited states in gaussian
 --------------------------------
 Symbolic Z-matrix:
 Charge =  0 Multiplicity = 1

                         Standard orientation:
 ---------------------------------------------------------------------
 Center     Atomic      Atomic             Coordinates (Angstroms)
 Number     Number       Type             X           Y           Z
 ---------------------------------------------------------------------
      1         12           0       16.339589    0.604548   -0.228079
      2          6           0       15.740675   -2.097196    1.913538
      3          6           0       13.733581    2.299141    1.192374
      4          6           0       16.749344    2.966218   -2.507512
      5          6           0       18.913312   -1.355143   -1.748599
      6          7           0       14.873986    0.099636    1.355857
      7          6           0       14.826505   -1.014703    2.163748
      8          6           0       13.875595   -0.789549    3.324795
      9          6           0       13.070495    0.494951    2.880100
     10          6           0       14.039463    1.035084    1.773706
     11          6           0       11.682056    0.187017    2.334084
     12          6           0       14.674396   -0.778916    4.678930
     13          6           0       13.816132   -0.343461    5.898965
     14          1           0       12.337136   -0.664283    5.839062
     15          7           0       15.416715    2.333397   -0.580049
     16          6           0       14.281303    2.840348    0.039360
     17          6           0       13.848159    4.110014   -0.570165
     18          6           0       14.779036    4.306588   -1.636238
     19          6           0       15.694062    3.168584   -1.607457
     20          6           0       12.719254    4.918196   -0.049454
     21          6           0       14.789262    5.461638   -2.604082
     22          8           0       15.678739    5.581695   -3.491619
     23          6           0       13.779981    6.573193   -2.504721
     24          7           0       17.702986    0.797616   -1.873521
     25          6           0       17.627757    1.891658   -2.631771
     26          6           0       18.615392    1.772850   -3.874584
     27          6           0       19.308664    0.315715   -3.648587
     28          6           0       18.600367   -0.120026   -2.365166
     29          6           0       17.766454    1.901222   -5.205269
     30          6           0       20.877256    0.364815   -3.403110
     31          6           0       21.763262    0.367619   -4.681872
     32          7           0       17.139937   -1.306893   -0.065697
     33          6           0       18.258897   -1.951180   -0.656505
     34          6           0       18.469382   -3.314251    0.001519
     35          6           0       17.469385   -3.450253    0.959129
     36          6           0       16.735993   -2.159073    0.929811
     37          6           0       19.555976   -4.306542   -0.271575
     38          6           0       16.917586   -4.276012    2.007614
     39          8           0       17.219582   -5.398976    2.423721
     40          6           0       15.871785   -3.353001    2.809171
     41          6           0       14.554278   -4.048331    3.065133
     42          8           0       13.636646   -4.057624    2.289799
     43          8           0       14.455279   -4.473925    4.409108
     44          6           0       13.108183   -4.748627    4.931215
     45          1           0       12.853870    2.685736    1.711830
     46          1           0       16.869460    3.741998   -3.266789
     47          1           0       19.610075   -2.045386   -2.228949
     48          1           0       13.210551   -1.650857    3.373267
     49          1           0       12.982182    1.279286    3.632539
     50          1           0       10.991262    0.764420    2.948318
     51          1           0       11.542988   -0.893829    2.336195
     52          1           0       11.501829    0.639704    1.359341
     53          1           0       15.583453   -0.255411    4.384504
     54          1           0       14.998135   -1.808580    4.827109
     55          1           0       13.987055    0.732043    5.946480
     56          1           0       14.220633   -0.831539    6.785563
     57          1           0       12.007379    4.880982   -0.873865
     58          1           0       13.009923    5.927644    0.240226
     59          1           0       12.154798    4.559205    0.812090
     60          1           0       13.919830    7.093199   -1.558013
     61          1           0       12.874376    5.972482   -2.597883
     62          1           0       13.762505    7.287916   -3.327034
     63          1           0       19.294265    2.597156   -3.652617
     64          1           0       18.996116   -0.498064   -4.304320
     65          1           0       16.694215    2.017580   -5.048523
     66          1           0       17.898854    1.007616   -5.815809
     67          1           0       18.094910    2.830897   -5.669005
     68          1           0       21.199111   -0.342302   -2.639119
     69          1           0       21.068159    1.327398   -2.929782
     70          1           0       22.402636    1.247213   -4.615798
     71          1           0       21.110513    0.333375   -5.554233
     72          1           0       22.416091   -0.504291   -4.729344
     73          1           0       20.228237   -4.261476    0.585518
     74          1           0       20.066729   -4.060320   -1.203278
     75          1           0       19.278568   -5.357951   -0.344042
     76          1           0       16.366377   -3.081143    3.741229
     77          1           0       12.854932   -5.733276    4.539140
     78          1           0       12.429030   -3.927564    4.700746
     79          1           0       13.199828   -4.749069    6.017026
     80         12           0      -16.126077    0.489214    0.567289
     81          6           0      -16.337530   -2.505651   -1.397471
     82          6           0      -12.617443    0.334469   -0.084949
     83          6           0      -15.744724    3.714007    1.429926
     84          6           0      -19.531589    0.754783    0.399150
     85          7           0      -14.717451   -0.905625   -0.627982
     86          6           0      -15.017239   -2.049983   -1.307727
     87          6           0      -13.738704   -2.711262   -1.931099
     88          6           0      -12.579343   -1.959479   -1.117773
     89          6           0      -13.339218   -0.729354   -0.647685
     90          6           0      -12.034949   -2.728615    0.064058
     91          6           0      -13.711693   -2.662248   -3.449815
     92          6           0      -13.277470   -3.948002   -4.200353
     93          1           0      -11.795661   -4.098635   -4.782944
     94          7           0      -14.363224    1.866998    0.767309
     95          6           0      -13.013214    1.536666    0.526685
     96          6           0      -12.176158    2.687925    0.885915
     97          6           0      -13.106368    3.683095    1.384009
     98          6           0      -14.436663    3.170031    1.136605
     99          6           0      -10.707597    2.811258    0.726101
    100          6           0      -12.714397    4.986008    2.034586
    101          8           0      -11.546982    5.161969    2.301809
    102          6           0      -13.684530    6.088865    2.390395
    103          7           0      -17.443266    1.965517    0.734135
    104          6           0      -17.032820    3.183683    1.268356
    105          6           0      -18.281119    4.053633    1.433371
    106          6           0      -19.473863    3.036346    1.309161
    107          6           0      -18.764892    1.817977    0.821912
    108          6           0      -18.358851    5.015695    2.675220
    109          6           0      -20.710541    3.454685    0.456001
    110          6           0      -22.056540    3.406419    1.102473
    111          7           0      -17.658048   -0.648162   -0.181102
    112          6           0      -19.027964   -0.462866   -0.114817
    113          6           0      -19.742097   -1.679761   -0.547061
    114          6           0      -18.674785   -2.474148   -1.120593
    115          6           0      -17.483006   -1.786249   -0.872577
    116          6           0      -21.211225   -2.009600   -0.515147
    117          6           0      -18.402219   -3.771165   -1.807225
    118          8           0      -19.154345   -4.603340   -2.227992
    119          6           0      -16.904166   -3.746752   -2.092921
    120          6           0      -16.308395   -4.997088   -1.518078
    121          8           0      -16.314056   -5.147993   -0.315235
    122          8           0      -15.683031   -5.878854   -2.449984
    123          6           0      -14.908261   -7.018991   -1.872830
    124          1           0      -11.533965    0.297235   -0.217097
    125          1           0      -15.796411    4.759263    1.739212
    126          1           0      -20.612800    0.796014    0.544560
    127          1           0      -13.617254   -3.743963   -1.605439
    128          1           0      -11.792232   -1.604546   -1.782933
    129          1           0      -12.720739   -2.601435    0.901368
    130          1           0      -11.029931   -2.352330    0.254474
    131          1           0      -11.935428   -3.811783   -0.013581
    132          1           0      -12.974396   -1.903861   -3.711330
    133          1           0      -14.655440   -2.232280   -3.785225
    134          1           0      -13.988724   -3.999931   -5.025034
    135          1           0      -13.414002   -4.857266   -3.614820
    136          1           0      -10.277030    2.587270    1.701615
    137          1           0      -10.454416    3.856825    0.550361
    138          1           0      -10.185505    2.228522   -0.033752
    139          1           0      -13.230087    7.011938    2.749748
    140          1           0      -14.299161    5.685038    3.195009
    141          1           0      -14.420754    6.410522    1.654705
    142          1           0      -18.171801    4.746219    0.598317
    143          1           0      -19.759139    2.727418    2.314344
    144          1           0      -17.669536    4.692391    3.455696
    145          1           0      -19.385382    5.094825    3.032630
    146          1           0      -18.108254    6.033628    2.377501
    147          1           0      -20.741428    2.836642   -0.441252
    148          1           0      -20.498378    4.445058    0.053418
    149          1           0      -22.612163    2.557522    0.704580
    150          1           0      -22.612013    4.311406    0.856781
    151          1           0      -22.092408    3.305883    2.187019
    152          1           0      -21.371485   -3.086842   -0.554460
    153          1           0      -21.657279   -1.508550   -1.374723
    154          1           0      -21.642865   -1.518137    0.356968
    155          1           0      -16.780164   -3.600368   -3.166011
    156          1           0      -15.601195   -7.805230   -1.572726
    157          1           0      -14.386443   -6.714945   -0.965685
    158          1           0      -14.172318   -7.387693   -2.587097
 ---------------------------------------------------------------------

 SCF Done:  E(RwB97XD) =  -4070.62279459     A.U. after   18 cycles

 Excitation energies and oscillator strengths:

 Excited State   1:      Singlet-A      1.6113 eV  769.46 nm  f=0.4001  <S**2>=0.000
     309 -> 316        0.17509
     311 -> 313        0.68588
     309 <- 316        0.11583
 This state for optimization and/or second-order correction.
 Total Energy, E(TD-HF/TD-DFT) =  -4070.56357964
 Copying the excited state density for this state as the 1-particle RhoCI density.

 Excited State   2:      Singlet-A      1.6550 eV  749.16 nm  f=0.3803  <S**2>=0.000
     310 -> 315        0.20533
     312 -> 314        0.67767
     310 <- 315        0.12135

 Excited State   3:      Singlet-A      2.1827 eV  568.03 nm  f=0.1248  <S**2>=0.000
     309 -> 313        0.63926
     311 -> 316       -0.28429

 Excited State   4:      Singlet-A      2.2347 eV  554.80 nm  f=0.0334  <S**2>=0.000
     310 -> 314        0.58749
     312 -> 315       -0.38608

 Excited State   5:      Singlet-A      3.1526 eV  393.28 nm  f=0.0019  <S**2>=0.000
     307 -> 313       -0.12402
     308 -> 313        0.66821
     311 -> 316        0.10222

 The electronic state is 1-A.
 Alpha  occ. eigenvalues --  -46.95693 -46.94410 -19.30534 -19.29210 -19.25702
 Alpha  occ. eigenvalues --  -19.25217 -19.24820 -19.24259 -19.23444 -19.23009
 Alpha  occ. eigenvalues --  -14.47431 -14.46730 -14.46298 -14.46121 -14.44569
 Alpha  occ. eigenvalues --  -14.44494 -14.43976 -14.43779 -10.44139 -10.43273
 Alpha  occ. eigenvalues --  -10.39573 -10.39471 -10.39226 -10.38486 -10.36056
 Alpha  occ. eigenvalues --  -10.35482 -10.35452 -10.35364 -10.34931 -10.34752
 Alpha  occ. eigenvalues --  -10.34731 -10.34653 -10.34514 -10.34383 -10.34362
 Alpha  occ. eigenvalues --  -10.34359 -10.34334 -10.34319 -10.34165 -10.33582
 Alpha  occ. eigenvalues --  -10.33535 -10.33483 -10.33399 -10.33249 -10.33232
 Alpha  occ. eigenvalues --  -10.33149 -10.32929 -10.32882 -10.32820 -10.32730
 Alpha  occ. eigenvalues --  -10.32609 -10.32342 -10.32285 -10.32238 -10.32123
 Alpha  occ. eigenvalues --  -10.32090 -10.31857 -10.31794 -10.31742 -10.31690
 Alpha  occ. eigenvalues --  -10.31659 -10.31555 -10.31326 -10.31104 -10.31075
 Alpha  occ. eigenvalues --  -10.30978 -10.30879 -10.30636 -10.30630 -10.30522
 Alpha  occ. eigenvalues --  -10.30424 -10.30390 -10.30372 -10.30323 -10.30294
 Alpha  occ. eigenvalues --  -10.30078 -10.30045 -10.29934 -10.29780 -10.29657
 Alpha  occ. eigenvalues --  -10.29608 -10.29567 -10.29421 -10.29316 -10.29192
 Alpha  occ. eigenvalues --  -10.29189  -3.21728  -3.20508  -1.95260  -1.94850
 Alpha  occ. eigenvalues --   -1.94699  -1.94109  -1.93621  -1.93512  -1.17614
 Alpha  occ. eigenvalues --   -1.17553  -1.14021  -1.12439  -1.11370  -1.10122
 Alpha  occ. eigenvalues --   -1.10015  -1.09977  -1.06611  -1.06318  -1.05623
 Alpha  occ. eigenvalues --   -1.05470  -1.04833  -1.04817  -1.03569  -1.03396
 Alpha  occ. eigenvalues --   -0.94785  -0.93572  -0.91295  -0.90844  -0.90790
 Alpha  occ. eigenvalues --   -0.90424  -0.90377  -0.89740  -0.89562  -0.89479
 Alpha  occ. eigenvalues --   -0.88637  -0.88232  -0.88204  -0.87620  -0.86431
 Alpha  occ. eigenvalues --   -0.86143  -0.85882  -0.84839  -0.84435  -0.84106
 Alpha  occ. eigenvalues --   -0.83807  -0.83772  -0.82682  -0.82524  -0.82204
 Alpha  occ. eigenvalues --   -0.81951  -0.80930  -0.80114  -0.79467  -0.79338
 Alpha  occ. eigenvalues --   -0.78886  -0.78774  -0.78284  -0.77691  -0.77196
 Alpha  occ. eigenvalues --   -0.76473  -0.74676  -0.74060  -0.73782  -0.73429
 Alpha  occ. eigenvalues --   -0.71472  -0.71334  -0.70926  -0.70506  -0.70280
 Alpha  occ. eigenvalues --   -0.69944  -0.69075  -0.68716  -0.67886  -0.67402
 Alpha  occ. eigenvalues --   -0.67105  -0.67091  -0.66583  -0.66351  -0.65905
 Alpha  occ. eigenvalues --   -0.65755  -0.64370  -0.63265  -0.62650  -0.61834
 Alpha  occ. eigenvalues --   -0.61531  -0.61459  -0.61224  -0.61071  -0.60693
 Alpha  occ. eigenvalues --   -0.60358  -0.59729  -0.59664  -0.59514  -0.58754
 Alpha  occ. eigenvalues --   -0.58530  -0.58122  -0.57811  -0.57630  -0.57452
 Alpha  occ. eigenvalues --   -0.56518  -0.56260  -0.56122  -0.55875  -0.55857
 Alpha  occ. eigenvalues --   -0.55590  -0.55338  -0.55191  -0.55083  -0.54870
 Alpha  occ. eigenvalues --   -0.54436  -0.54195  -0.54138  -0.53822  -0.53796
 Alpha  occ. eigenvalues --   -0.53703  -0.53639  -0.53343  -0.53264  -0.53087
 Alpha  occ. eigenvalues --   -0.53062  -0.52866  -0.52778  -0.52385  -0.52370
 Alpha  occ. eigenvalues --   -0.52025  -0.51895  -0.51837  -0.51704  -0.51451
 Alpha  occ. eigenvalues --   -0.51367  -0.51275  -0.51226  -0.51044  -0.50909
 Alpha  occ. eigenvalues --   -0.50771  -0.50681  -0.50556  -0.50421  -0.50120
 Alpha  occ. eigenvalues --   -0.50046  -0.50010  -0.49632  -0.49346  -0.49038
 Alpha  occ. eigenvalues --   -0.48961  -0.48774  -0.48403  -0.48367  -0.48162
 Alpha  occ. eigenvalues --   -0.48094  -0.48012  -0.48002  -0.47931  -0.47780
 Alpha  occ. eigenvalues --   -0.47663  -0.47503  -0.47225  -0.47130  -0.47087
 Alpha  occ. eigenvalues --   -0.46932  -0.46761  -0.46625  -0.46615  -0.46094
 Alpha  occ. eigenvalues --   -0.45904  -0.45748  -0.45593  -0.45429  -0.45409
 Alpha  occ. eigenvalues --   -0.45276  -0.45058  -0.44988  -0.44846  -0.44826
 Alpha  occ. eigenvalues --   -0.44579  -0.44512  -0.44467  -0.44418  -0.44217
 Alpha  occ. eigenvalues --   -0.44091  -0.43864  -0.43587  -0.43482  -0.43287
 Alpha  occ. eigenvalues --   -0.43048  -0.42815  -0.42756  -0.42498  -0.42247
 Alpha  occ. eigenvalues --   -0.42181  -0.42074  -0.41212  -0.41107  -0.40949
 Alpha  occ. eigenvalues --   -0.40456  -0.40440  -0.40096  -0.39887  -0.39680
 Alpha  occ. eigenvalues --   -0.39380  -0.39181  -0.38818  -0.38638  -0.38245
 Alpha  occ. eigenvalues --   -0.37798  -0.37789  -0.37019  -0.36477  -0.36419
 Alpha  occ. eigenvalues --   -0.36133  -0.35486  -0.35402  -0.33659  -0.33469
 Alpha  occ. eigenvalues --   -0.33349  -0.33058  -0.32588  -0.32440  -0.32436
 Alpha  occ. eigenvalues --   -0.32224  -0.31890  -0.30945  -0.26254  -0.25904
 Alpha  occ. eigenvalues --   -0.22949  -0.22212
 Alpha virt. eigenvalues --   -0.07371  -0.06230  -0.00232   0.00406   0.01844
 Alpha virt. eigenvalues --    0.02691   0.04205   0.04265   0.04791   0.06321
 Alpha virt. eigenvalues --    0.06491   0.06711   0.06899   0.07709   0.07951

 Mulliken charges:
               1
     1  Mg   0.984975
     2  C   -0.030003
     3  C   -0.097698
     4  C   -0.087967
     5  C   -0.091679
     6  N   -0.320927
     7  C   -0.001372
     8  C   -0.052307
     9  C   -0.133856
    10  C    0.011242
    11  C    0.044500
    12  C   -0.023295
    13  C   -0.099804
    14  H    0.046684
    15  N   -0.499555
    16  C    0.214834
    17  C   -0.158540
    18  C   -0.076595
    19  C    0.174987
    20  C    0.073599
    21  C    0.037554
    22  O   -0.272514
    23  C    0.020974
    24  N   -0.349039
    25  C    0.045786
    26  C   -0.087818
    27  C   -0.049366
    28  C    0.040553
    29  C    0.013480
    30  C   -0.039892
    31  C   -0.032196
    32  N   -0.452083
    33  C    0.124906
    34  C   -0.194183
    35  C   -0.008942
    36  C    0.139365
    37  C    0.070679
    38  C    0.151171
    39  O   -0.215058
    40  C   -0.144193
    41  C    0.289195
    42  O   -0.219321
    43  O   -0.405867
    44  C    0.143372
    45  H   -0.011074
    46  H    0.021189
    47  H    0.001189
    48  H    0.028667
    49  H    0.029482
    50  H    0.028648
    51  H    0.059066
    52  H    0.036167
    53  H    0.041272
    54  H    0.036875
    55  H    0.058440
    56  H    0.059613
    57  H    0.054148
    58  H    0.057894
    59  H    0.036183
    60  H    0.065545
    61  H    0.039176
    62  H    0.055197
    63  H    0.050629
    64  H    0.044456
    65  H    0.052668
    66  H    0.038265
    67  H    0.049597
    68  H    0.034807
    69  H    0.019201
    70  H    0.041751
    71  H    0.039424
    72  H    0.036808
    73  H    0.060576
    74  H    0.027106
    75  H    0.060431
    76  H    0.091809
    77  H    0.068510
    78  H    0.050167
    79  H    0.052328
    80  Mg   0.981234
    81  C   -0.076442
    82  C   -0.054024
    83  C   -0.079990
    84  C   -0.124485
    85  N   -0.312966
    86  C   -0.015779
    87  C   -0.066061
    88  C   -0.119731
    89  C    0.048971
    90  C    0.041515
    91  C    0.037370
    92  C   -0.107680
    93  H    0.023613
    94  N   -0.419622
    95  C    0.112278
    96  C   -0.143837
    97  C   -0.073762
    98  C    0.168708
    99  C    0.081267
   100  C    0.035475
   101  O   -0.235068
   102  C   -0.012102
   103  N   -0.451656
   104  C    0.092024
   105  C   -0.128618
   106  C   -0.033743
   107  C    0.089340
   108  C    0.013842
   109  C    0.000945
   110  C   -0.047256
   111  N   -0.442214
   112  C    0.135313
   113  C   -0.189395
   114  C   -0.106288
   115  C    0.178285
   116  C    0.090764
   117  C    0.132764
   118  O   -0.173988
   119  C   -0.015241
   120  C    0.278389
   121  O   -0.234445
   122  O   -0.404957
   123  C    0.133346
   124  H   -0.006195
   125  H   -0.037556
   126  H   -0.011797
   127  H    0.025671
   128  H    0.028713
   129  H    0.043260
   130  H    0.042570
   131  H    0.036764
   132  H    0.037356
   133  H    0.040607
   134  H    0.055522
   135  H    0.048150
   136  H    0.055401
   137  H    0.053734
   138  H    0.036828
   139  H    0.051148
   140  H    0.050124
   141  H    0.057986
   142  H    0.051509
   143  H    0.033596
   144  H    0.044804
   145  H    0.038356
   146  H    0.031026
   147  H    0.038663
   148  H    0.025393
   149  H    0.036283
   150  H    0.036923
   151  H    0.035851
   152  H    0.071633
   153  H    0.053915
   154  H    0.034446
   155  H    0.072754
   156  H    0.063833
   157  H    0.051484
   158  H    0.065152
 Sum of Mulliken charges =  -0.00000

 Dipole moment (field-independent basis, Debye):
    X=             -2.6952    Y=              5.1999    Z=              2.5651  Tot=              6.3940
 Quadrupole moment (field-independent basis, Debye-Ang):
   XX=           -497.6265   YY=           -533.0804   ZZ=           -503.2590
   XY=            -15.9286   XZ=            -16.0269   YZ=             15.1785

 Normal termination of Gaussian 16 at Sun Sep 19 13:01:10 2021.
