 Gaussian 16, Revision A.03,
 Gaussian 16:  ES64L-G16RevA.03 25-Dec-2016

 --------------------------------
 #p wB97XD/Def2SVP td=(nstates=5)
 --------------------------------

 --------------------------------
 TDDFT excited states in gaussian
 --------------------------------
 Symbolic Z-matrix:
 Charge =  0 Multiplicity = 1

                         Standard orientation:
 ---------------------------------------------------------------------
 Center     Atomic      Atomic             Coordinates (Angstroms)
 Number     Number       Type             X           Y           Z
 ---------------------------------------------------------------------
      1         12           0       21.256129    0.577421   -0.043979
      2          6           0       20.117415   -2.711954   -0.410879
      3          6           0       18.443549    1.090680    1.901948
      4          6           0       22.429755    3.623458    0.653349
      5          6           0       24.374775   -0.385657   -1.295742
      6          7           0       19.506697   -0.854733    0.837125
      7          6           0       19.222820   -2.105250    0.425427
      8          6           0       17.970930   -2.676288    1.046967
      9          6           0       17.360787   -1.301575    1.518582
     10          6           0       18.480692   -0.266678    1.484844
     11          6           0       16.247121   -0.851464    0.535758
     12          6           0       18.303979   -3.767004    2.072829
     13          6           0       19.511772   -3.590182    3.016466
     14          1           0       19.246483   -3.850100    4.494623
     15          7           0       20.549017    2.126988    1.088977
     16          6           0       19.323363    2.165389    1.699236
     17          6           0       18.968885    3.565570    1.965625
     18          6           0       20.178038    4.343389    1.761161
     19          6           0       21.102655    3.352950    1.129856
     20          6           0       17.643898    3.984016    2.710618
     21          6           0       20.395734    5.815693    2.118929
     22          8           0       19.481482    6.493957    2.496895
     23          6           0       21.752919    6.436261    1.953342
     24          7           0       23.267036    1.399946   -0.116472
     25          6           0       23.506523    2.765228    0.126417
     26          6           0       24.998623    3.199372   -0.196765
     27          6           0       25.567322    1.869870   -0.887851
     28          6           0       24.308262    0.890647   -0.805286
     29          6           0       25.291964    4.541084   -1.036748
     30          6           0       26.904647    1.240383   -0.284284
     31          6           0       27.785558    0.563167   -1.446774
     32          7           0       22.130322   -1.169152   -0.787431
     33          6           0       23.376961   -1.377235   -1.341675
     34          6           0       23.447472   -2.737022   -1.862523
     35          6           0       22.185894   -3.333219   -1.605769
     36          6           0       21.433769   -2.349109   -0.868221
     37          6           0       24.564126   -3.326912   -2.683494
     38          6           0       21.321755   -4.557565   -1.651194
     39          8           0       21.579808   -5.684161   -2.012150
     40          6           0       19.970562   -4.137777   -0.930807
     41          6           0       18.878243   -4.273134   -1.955785
     42          8           0       18.378938   -5.370541   -2.309610
     43          8           0       18.423980   -3.014052   -2.320646
     44          6           0       17.238245   -2.994967   -3.110380
     45          1           0       17.512220    1.281367    2.439434
     46          1           0       22.846893    4.632814    0.643037
     47          1           0       25.281338   -0.609919   -1.861922
     48          1           0       17.280845   -3.052521    0.291998
     49          1           0       16.921384   -1.253164    2.513995
     50          1           0       16.293322    0.237606    0.513812
     51          1           0       15.287483   -1.278984    0.822861
     52          1           0       16.362938   -1.056520   -0.528961
     53          1           0       18.564919   -4.648004    1.487251
     54          1           0       17.407383   -3.961742    2.661420
     55          1           0       19.852774   -2.556634    2.961802
     56          1           0       20.277925   -4.306609    2.721482
     57          1           0       17.652668    3.831220    3.790162
     58          1           0       16.799553    3.444107    2.281906
     59          1           0       17.311421    5.009867    2.556132
     60          1           0       21.800349    7.435690    2.386998
     61          1           0       22.069776    6.504311    0.912443
     62          1           0       22.362564    5.810282    2.605485
     63          1           0       25.374273    3.306837    0.820106
     64          1           0       25.748865    2.029320   -1.950342
     65          1           0       25.387172    5.353471   -0.317229
     66          1           0       24.495312    4.748091   -1.750771
     67          1           0       26.209858    4.395835   -1.606743
     68          1           0       26.680652    0.394013    0.364912
     69          1           0       27.463398    1.980353    0.289261
     70          1           0       27.910339   -0.505236   -1.270109
     71          1           0       28.771362    1.026744   -1.469806
     72          1           0       27.392255    0.538720   -2.462465
     73          1           0       25.482074   -3.278486   -2.098702
     74          1           0       24.699258   -2.739579   -3.591977
     75          1           0       24.395384   -4.377330   -2.920098
     76          1           0       19.801712   -4.937198   -0.209683
     77          1           0       16.920629   -1.962592   -3.254937
     78          1           0       16.478704   -3.660089   -2.699146
     79          1           0       17.426040   -3.305870   -4.138048
     80         12           0      -21.783119    0.068535   -0.575363
     81          6           0      -18.354899    0.217022    0.473192
     82          6           0      -21.909462   -3.010949    1.230376
     83          6           0      -25.141324    0.153851   -0.511783
     84          6           0      -21.544275    3.330470   -1.574883
     85          7           0      -20.303890   -1.170537    0.703333
     86          6           0      -18.985418   -0.933073    0.961642
     87          6           0      -18.347747   -2.068207    1.836502
     88          6           0      -19.442756   -3.228356    1.675874
     89          6           0      -20.645528   -2.401498    1.250145
     90          6           0      -19.115805   -4.265784    0.626348
     91          6           0      -17.969692   -1.612893    3.236285
     92          6           0      -16.592531   -2.063797    3.788674
     93          1           0      -16.478241   -3.288038    4.811430
     94          7           0      -23.378922   -1.323668    0.173725
     95          6           0      -23.173051   -2.570951    0.799384
     96          6           0      -24.477748   -3.205057    1.024727
     97          6           0      -25.442881   -2.280574    0.461162
     98          6           0      -24.712051   -1.085020    0.099686
     99          6           0      -24.741339   -4.487868    1.719232
    100          6           0      -26.915857   -2.559674    0.297101
    101          8           0      -27.310614   -3.684305    0.508291
    102          6           0      -27.938033   -1.530705   -0.127670
    103          7           0      -23.061762    1.558785   -0.869511
    104          6           0      -24.423788    1.280036   -0.940022
    105          6           0      -25.134529    2.574532   -1.341792
    106          6           0      -23.977074    3.494455   -1.877498
    107          6           0      -22.774004    2.722587   -1.451688
    108          6           0      -26.388987    2.472812   -2.285076
    109          6           0      -23.973006    4.994292   -1.450020
    110          6           0      -23.933946    6.029602   -2.526392
    111          7           0      -20.291328    1.469168   -0.691265
    112          6           0      -20.307592    2.757073   -1.197657
    113          6           0      -18.935941    3.285638   -1.327462
    114          6           0      -18.158263    2.301485   -0.602337
    115          6           0      -19.037399    1.272163   -0.252093
    116          6           0      -18.439926    4.563376   -1.951565
    117          6           0      -16.767342    1.977977   -0.167952
    118          8           0      -15.759668    2.622263   -0.236810
    119          6           0      -16.905260    0.685167    0.629545
    120          6           0      -15.956479   -0.317326    0.043415
    121          8           0      -16.151412   -0.717005   -1.084368
    122          8           0      -14.937106   -0.800736    0.917620
    123          6           0      -14.117057   -1.945520    0.417346
    124          1           0      -21.978035   -3.981014    1.727413
    125          1           0      -26.215342    0.334568   -0.580457
    126          1           0      -21.483536    4.295210   -2.082277
    127          1           0      -17.473762   -2.507076    1.356062
    128          1           0      -19.695202   -3.673580    2.638166
    129          1           0      -19.383367   -3.862166   -0.349907
    130          1           0      -19.658157   -5.172568    0.893755
    131          1           0      -18.077292   -4.570688    0.493272
    132          1           0      -18.712942   -2.048620    3.903271
    133          1           0      -18.160826   -0.541722    3.300235
    134          1           0      -16.217966   -1.161869    4.273345
    135          1           0      -15.875519   -2.317266    3.007714
    136          1           0      -24.859572   -5.236972    0.936896
    137          1           0      -25.718648   -4.439273    2.199546
    138          1           0      -24.041252   -4.863523    2.466427
    139          1           0      -28.975995   -1.860616   -0.088819
    140          1           0      -27.700908   -1.298924   -1.166083
    141          1           0      -27.940412   -0.551510    0.349720
    142          1           0      -25.571687    2.882972   -0.391688
    143          1           0      -23.929629    3.380139   -2.960037
    144          1           0      -26.391553    1.522825   -2.820185
    145          1           0      -26.431167    3.329679   -2.957216
    146          1           0      -27.305303    2.555475   -1.700993
    147          1           0      -23.128547    5.165198   -0.782433
    148          1           0      -24.828553    5.138925   -0.790440
    149          1           0      -22.942439    6.481292   -2.549847
    150          1           0      -24.652507    6.817523   -2.301076
    151          1           0      -24.139469    5.705471   -3.546359
    152          1           0      -17.383990    4.488351   -2.210507
    153          1           0      -18.615719    5.351535   -1.218907
    154          1           0      -19.096693    4.800649   -2.788698
    155          1           0      -16.758035    0.934209    1.680560
    156          1           0      -13.363994   -1.568874   -0.275059
    157          1           0      -14.729827   -2.642502   -0.153952
    158          1           0      -13.661143   -2.486403    1.246393
 ---------------------------------------------------------------------

 SCF Done:  E(RwB97XD) =  -4070.60592022     A.U. after   18 cycles

 Excitation energies and oscillator strengths:

 Excited State   1:      Singlet-A      1.6113 eV  769.45 nm  f=0.3985  <S**2>=0.000
     309 -> 316        0.17520
     312 -> 313        0.68623
     309 <- 316        0.11590
 This state for optimization and/or second-order correction.
 Total Energy, E(TD-HF/TD-DFT) =  -4070.54670453
 Copying the excited state density for this state as the 1-particle RhoCI density.

 Excited State   2:      Singlet-A      1.6941 eV  731.86 nm  f=0.3578  <S**2>=0.000
     310 -> 315        0.19919
     311 -> 314        0.67862
     310 <- 315        0.11861

 Excited State   3:      Singlet-A      2.1826 eV  568.05 nm  f=0.1347  <S**2>=0.000
     309 -> 313        0.63459
     312 -> 316       -0.28227

 Excited State   4:      Singlet-A      2.1842 eV  567.65 nm  f=0.0923  <S**2>=0.000
     310 -> 314        0.62873
     311 -> 315       -0.29874

 Excited State   5:      Singlet-A      3.1512 eV  393.45 nm  f=0.0019  <S**2>=0.000
     306 -> 313       -0.12193
     308 -> 313        0.66859
     312 -> 316        0.10231

 The electronic state is 1-A.
 Alpha  occ. eigenvalues --  -46.96730 -46.95672 -19.31238 -19.30521 -19.25687
 Alpha  occ. eigenvalues --  -19.24978 -19.24800 -19.24561 -19.24067 -19.22975
 Alpha  occ. eigenvalues --  -14.47410 -14.46834 -14.46405 -14.46273 -14.45121
 Alpha  occ. eigenvalues --  -14.44034 -14.43952 -14.43751 -10.44123 -10.43841
 Alpha  occ. eigenvalues --  -10.39799 -10.39451 -10.39278 -10.38454 -10.36947
 Alpha  occ. eigenvalues --  -10.36045 -10.35941 -10.35695 -10.35429 -10.35340
 Alpha  occ. eigenvalues --  -10.35174 -10.34951 -10.34710 -10.34552 -10.34488
 Alpha  occ. eigenvalues --  -10.34310 -10.34292 -10.34188 -10.33949 -10.33791
 Alpha  occ. eigenvalues --  -10.33549 -10.33513 -10.33241 -10.33234 -10.33124
 Alpha  occ. eigenvalues --  -10.33012 -10.32910 -10.32859 -10.32795 -10.32705
 Alpha  occ. eigenvalues --  -10.32582 -10.32494 -10.32474 -10.32438 -10.32157
 Alpha  occ. eigenvalues --  -10.32133 -10.32098 -10.32070 -10.32030 -10.31896
 Alpha  occ. eigenvalues --  -10.31836 -10.31807 -10.31725 -10.31636 -10.31618
 Alpha  occ. eigenvalues --  -10.31302 -10.31050 -10.30860 -10.30808 -10.30609
 Alpha  occ. eigenvalues --  -10.30500 -10.30399 -10.30370 -10.30319 -10.30299
 Alpha  occ. eigenvalues --  -10.30269 -10.30144 -10.30108 -10.30107 -10.29924
 Alpha  occ. eigenvalues --  -10.29912 -10.29777 -10.29747 -10.29634 -10.29546
 Alpha  occ. eigenvalues --  -10.29284  -3.22575  -3.21706  -1.96119  -1.95708
 Alpha  occ. eigenvalues --   -1.95525  -1.95237  -1.94828  -1.94678  -1.18620
 Alpha  occ. eigenvalues --   -1.17538  -1.14002  -1.13741  -1.12875  -1.12405
 Alpha  occ. eigenvalues --   -1.10108  -1.09239  -1.06789  -1.06587  -1.05953
 Alpha  occ. eigenvalues --   -1.05599  -1.04942  -1.04810  -1.03897  -1.03544
 Alpha  occ. eigenvalues --   -0.94763  -0.94458  -0.91272  -0.90886  -0.90769
 Alpha  occ. eigenvalues --   -0.90354  -0.90289  -0.89581  -0.89539  -0.89255
 Alpha  occ. eigenvalues --   -0.88180  -0.87970  -0.87660  -0.87595  -0.86752
 Alpha  occ. eigenvalues --   -0.86408  -0.85859  -0.85240  -0.84606  -0.84413
 Alpha  occ. eigenvalues --   -0.83797  -0.83744  -0.82743  -0.82502  -0.82335
 Alpha  occ. eigenvalues --   -0.82182  -0.80092  -0.79487  -0.79443  -0.79213
 Alpha  occ. eigenvalues --   -0.78752  -0.78624  -0.78316  -0.78264  -0.77272
 Alpha  occ. eigenvalues --   -0.77172  -0.74784  -0.74653  -0.74032  -0.73759
 Alpha  occ. eigenvalues --   -0.71852  -0.71451  -0.71327  -0.70904  -0.70214
 Alpha  occ. eigenvalues --   -0.69924  -0.69198  -0.68692  -0.67863  -0.67819
 Alpha  occ. eigenvalues --   -0.67070  -0.66844  -0.66835  -0.66612  -0.66560
 Alpha  occ. eigenvalues --   -0.66328  -0.65684  -0.64352  -0.62071  -0.61810
 Alpha  occ. eigenvalues --   -0.61511  -0.61260  -0.61199  -0.61051  -0.60933
 Alpha  occ. eigenvalues --   -0.60335  -0.60147  -0.59706  -0.59639  -0.59327
 Alpha  occ. eigenvalues --   -0.58503  -0.58258  -0.58012  -0.57609  -0.57469
 Alpha  occ. eigenvalues --   -0.57429  -0.56996  -0.56240  -0.56202  -0.55838
 Alpha  occ. eigenvalues --   -0.55645  -0.55318  -0.55130  -0.55063  -0.55010
 Alpha  occ. eigenvalues --   -0.54849  -0.54753  -0.54174  -0.53840  -0.53774
 Alpha  occ. eigenvalues --   -0.53677  -0.53615  -0.53346  -0.53244  -0.53034
 Alpha  occ. eigenvalues --   -0.53021  -0.52844  -0.52638  -0.52471  -0.52347
 Alpha  occ. eigenvalues --   -0.52002  -0.51898  -0.51874  -0.51816  -0.51682
 Alpha  occ. eigenvalues --   -0.51671  -0.51490  -0.51246  -0.51020  -0.50878
 Alpha  occ. eigenvalues --   -0.50651  -0.50587  -0.50534  -0.50290  -0.50099
 Alpha  occ. eigenvalues --   -0.49608  -0.49498  -0.49261  -0.49167  -0.49015
 Alpha  occ. eigenvalues --   -0.48939  -0.48874  -0.48621  -0.48376  -0.48346
 Alpha  occ. eigenvalues --   -0.48250  -0.48136  -0.47997  -0.47990  -0.47908
 Alpha  occ. eigenvalues --   -0.47756  -0.47614  -0.47444  -0.47239  -0.47205
 Alpha  occ. eigenvalues --   -0.47106  -0.46909  -0.46821  -0.46603  -0.46169
 Alpha  occ. eigenvalues --   -0.45888  -0.45801  -0.45725  -0.45592  -0.45572
 Alpha  occ. eigenvalues --   -0.45407  -0.45382  -0.45249  -0.45224  -0.44922
 Alpha  occ. eigenvalues --   -0.44821  -0.44691  -0.44557  -0.44491  -0.44399
 Alpha  occ. eigenvalues --   -0.44235  -0.44161  -0.43918  -0.43839  -0.43626
 Alpha  occ. eigenvalues --   -0.43556  -0.43117  -0.43025  -0.42734  -0.42476
 Alpha  occ. eigenvalues --   -0.42254  -0.42159  -0.41813  -0.41189  -0.40999
 Alpha  occ. eigenvalues --   -0.40844  -0.40421  -0.40070  -0.39657  -0.39358
 Alpha  occ. eigenvalues --   -0.39343  -0.39221  -0.39164  -0.38782  -0.38616
 Alpha  occ. eigenvalues --   -0.38237  -0.37770  -0.37003  -0.36667  -0.36395
 Alpha  occ. eigenvalues --   -0.36394  -0.35462  -0.35379  -0.33639  -0.33549
 Alpha  occ. eigenvalues --   -0.33325  -0.33217  -0.32920  -0.32806  -0.32402
 Alpha  occ. eigenvalues --   -0.31867  -0.31851  -0.30918  -0.26231  -0.25949
 Alpha  occ. eigenvalues --   -0.23205  -0.22924
 Alpha virt. eigenvalues --   -0.07347  -0.06978  -0.00168   0.00430   0.02192
 Alpha virt. eigenvalues --    0.02715   0.03936   0.04154   0.04230   0.04817
 Alpha virt. eigenvalues --    0.06508   0.06667   0.06914   0.07909   0.07973

 Mulliken charges:
               1
     1  Mg   0.954614
     2  C    0.126749
     3  C   -0.086887
     4  C   -0.102767
     5  C   -0.086768
     6  N   -0.280302
     7  C   -0.106222
     8  C    0.024745
     9  C   -0.115318
    10  C    0.019703
    11  C    0.017968
    12  C    0.021208
    13  C   -0.133123
    14  H    0.032690
    15  N   -0.458815
    16  C    0.175406
    17  C   -0.148406
    18  C   -0.099880
    19  C    0.211707
    20  C    0.047892
    21  C    0.038231
    22  O   -0.200602
    23  C   -0.012946
    24  N   -0.367921
    25  C    0.007518
    26  C   -0.062969
    27  C   -0.084141
    28  C    0.069758
    29  C    0.005020
    30  C   -0.009885
    31  C   -0.094155
    32  N   -0.439562
    33  C    0.138863
    34  C   -0.213551
    35  C   -0.016296
    36  C    0.078861
    37  C    0.071694
    38  C    0.139938
    39  O   -0.173447
    40  C   -0.211131
    41  C    0.295925
    42  O   -0.266944
    43  O   -0.352049
    44  C    0.141255
    45  H    0.007275
    46  H   -0.025086
    47  H   -0.020903
    48  H    0.029505
    49  H    0.028330
    50  H    0.024575
    51  H    0.050188
    52  H    0.027484
    53  H    0.036926
    54  H    0.046186
    55  H    0.070670
    56  H    0.060462
    57  H    0.063281
    58  H    0.025830
    59  H    0.056093
    60  H    0.047005
    61  H    0.080176
    62  H    0.053756
    63  H    0.053697
    64  H    0.040263
    65  H    0.049436
    66  H    0.047515
    67  H    0.050473
    68  H    0.049741
    69  H    0.043971
    70  H    0.038447
    71  H    0.044451
    72  H    0.040075
    73  H    0.037435
    74  H    0.051957
    75  H    0.058869
    76  H    0.085125
    77  H    0.049549
    78  H    0.054980
    79  H    0.046609
    80  Mg   0.981313
    81  C   -0.076421
    82  C   -0.054048
    83  C   -0.080060
    84  C   -0.124503
    85  N   -0.312943
    86  C   -0.015807
    87  C   -0.066168
    88  C   -0.119737
    89  C    0.049050
    90  C    0.041508
    91  C    0.037370
    92  C   -0.107624
    93  H    0.023555
    94  N   -0.419543
    95  C    0.112324
    96  C   -0.143757
    97  C   -0.073645
    98  C    0.168678
    99  C    0.080988
   100  C    0.035441
   101  O   -0.234891
   102  C   -0.012017
   103  N   -0.451681
   104  C    0.092165
   105  C   -0.128661
   106  C   -0.033725
   107  C    0.089138
   108  C    0.013860
   109  C    0.000897
   110  C   -0.047236
   111  N   -0.442148
   112  C    0.135446
   113  C   -0.189506
   114  C   -0.106327
   115  C    0.178130
   116  C    0.090758
   117  C    0.132722
   118  O   -0.174110
   119  C   -0.015192
   120  C    0.278372
   121  O   -0.234447
   122  O   -0.404981
   123  C    0.133380
   124  H   -0.006103
   125  H   -0.037486
   126  H   -0.011843
   127  H    0.025644
   128  H    0.028742
   129  H    0.043280
   130  H    0.042643
   131  H    0.036719
   132  H    0.037373
   133  H    0.040601
   134  H    0.055476
   135  H    0.048117
   136  H    0.055570
   137  H    0.053926
   138  H    0.036889
   139  H    0.051246
   140  H    0.050083
   141  H    0.057927
   142  H    0.051511
   143  H    0.033586
   144  H    0.044836
   145  H    0.038334
   146  H    0.031053
   147  H    0.038663
   148  H    0.025393
   149  H    0.036242
   150  H    0.036907
   151  H    0.035851
   152  H    0.071559
   153  H    0.053856
   154  H    0.034433
   155  H    0.072693
   156  H    0.063757
   157  H    0.051505
   158  H    0.065101
 Sum of Mulliken charges =  -0.00000

 Dipole moment (field-independent basis, Debye):
    X=              0.1507    Y=              6.1923    Z=             -1.4194  Tot=              6.3547
 Quadrupole moment (field-independent basis, Debye-Ang):
   XX=           -376.9265   YY=           -554.7604   ZZ=           -509.7310
   XY=             57.7410   XZ=              9.4973   YZ=            -35.1877

 Normal termination of Gaussian 16 at Sun Sep 19 19:38:34 2021.
