 Gaussian 16, Revision A.03,
 Gaussian 16:  ES64L-G16RevA.03 25-Dec-2016

 --------------------------------
 #p wB97XD/Def2SVP td=(nstates=5)
 --------------------------------

 --------------------------------
 TDDFT excited states in gaussian
 --------------------------------
 Symbolic Z-matrix:
 Charge =  0 Multiplicity = 1

                         Standard orientation:
 ---------------------------------------------------------------------
 Center     Atomic      Atomic             Coordinates (Angstroms)
 Number     Number       Type             X           Y           Z
 ---------------------------------------------------------------------
      1         12           0        0.692023    0.021524   -0.196965
      2          6           0       -2.823424    0.191343   -0.357245
      3          6           0        0.475593   -3.362474   -0.016926
      4          6           0        4.062191   -0.076602    0.071896
      5          6           0        0.782477    3.483027    0.064488
      6          7           0       -0.952273   -1.395856   -0.089038
      7          6           0       -2.306401   -1.113224   -0.288096
      8          6           0       -3.067803   -2.397651   -0.422582
      9          6           0       -2.082596   -3.432733    0.170498
     10          6           0       -0.740266   -2.673595    0.009729
     11          6           0       -2.278424   -3.841336    1.664648
     12          6           0       -3.544807   -2.765103   -1.878055
     13          6           0       -4.973930   -3.196159   -1.970817
     14          1           0       -5.262673   -4.440647   -2.830970
     15          7           0        2.031157   -1.487092   -0.110070
     16          6           0        1.762282   -2.865653   -0.138728
     17          6           0        2.968483   -3.592982   -0.133597
     18          6           0        4.090023   -2.636913   -0.113459
     19          6           0        3.432291   -1.362342   -0.064425
     20          6           0        3.093822   -5.083788   -0.014803
     21          6           0        5.667044   -2.828874   -0.042441
     22          8           0        6.409332   -1.875741   -0.058138
     23          6           0        6.288826   -4.218029   -0.056680
     24          7           0        2.196734    1.499166    0.146372
     25          6           0        3.513457    1.178282    0.234530
     26          6           0        4.386882    2.496395    0.499237
     27          6           0        3.358083    3.670949    0.192465
     28          6           0        2.002873    2.845669    0.129849
     29          6           0        5.016114    2.633427    1.913240
     30          6           0        3.650828    4.454637   -1.136363
     31          6           0        3.725993    5.904330   -0.898808
     32          7           0       -0.709437    1.541336   -0.103859
     33          6           0       -0.517941    2.922167   -0.107640
     34          6           0       -1.788629    3.591082   -0.175184
     35          6           0       -2.710020    2.566133   -0.245129
     36          6           0       -2.049588    1.378210   -0.229712
     37          6           0       -1.915804    5.135138   -0.247803
     38          6           0       -4.126772    2.257113   -0.307132
     39          8           0       -5.061678    3.021765   -0.214753
     40          6           0       -4.261191    0.654766   -0.360731
     41          6           0       -5.051138    0.202230    0.799036
     42          8           0       -4.746980    0.425883    2.000105
     43          8           0       -6.158570   -0.447081    0.337726
     44          6           0       -7.231328   -0.624785    1.351941
     45          1           0        0.326252   -4.439820    0.080041
     46          1           0        5.147372   -0.017801    0.176988
     47          1           0        0.823316    4.562787    0.219073
     48          1           0       -3.934905   -2.470484    0.234986
     49          1           0       -2.072846   -4.381521   -0.366255
     50          1           0       -3.320617   -3.855926    1.986257
     51          1           0       -1.693700   -3.141771    2.262541
     52          1           0       -1.827290   -4.788322    1.959851
     53          1           0       -2.852129   -3.536608   -2.213785
     54          1           0       -3.370091   -1.945906   -2.576156
     55          1           0       -5.436917   -2.292776   -2.368173
     56          1           0       -5.333890   -3.481864   -0.982519
     57          1           0        3.392659   -5.606850   -0.923476
     58          1           0        2.113126   -5.507830    0.197096
     59          1           0        3.753629   -5.488366    0.752238
     60          1           0        7.362325   -4.056295   -0.146363
     61          1           0        5.828659   -4.857037   -0.810917
     62          1           0        5.958694   -4.777333    0.819192
     63          1           0        5.268838    2.491146   -0.141460
     64          1           0        3.349016    4.348856    1.047263
     65          1           0        4.752915    1.863298    2.639057
     66          1           0        4.764867    3.574130    2.403827
     67          1           0        6.097544    2.617529    1.775163
     68          1           0        2.816961    4.297610   -1.821564
     69          1           0        4.589941    4.190399   -1.622082
     70          1           0        4.776223    6.191550   -0.841221
     71          1           0        3.174349    6.334770   -0.063787
     72          1           0        3.238914    6.429498   -1.720498
     73          1           0       -0.950576    5.555720   -0.530848
     74          1           0       -2.369683    5.542590    0.656727
     75          1           0       -2.584217    5.305162   -1.091029
     76          1           0       -4.735039    0.321887   -1.284529
     77          1           0       -8.130901   -1.024688    0.884318
     78          1           0       -7.504461    0.387721    1.649939
     79          1           0       -6.803250   -1.218522    2.160094
 ---------------------------------------------------------------------

 SCF Done:  E(RwB97XD) =  -2035.32448770     A.U. after   19 cycles

 Excitation energies and oscillator strengths:

 Excited State   1:      Singlet-A      1.6894 eV  733.89 nm  f=0.3941  <S**2>=0.000
     155 ->158         0.18349
     156 ->157         0.68253
     155 <-158         0.11557
 This state for optimization and/or second-order correction.
 Total Energy, E(TD-HF/TD-DFT) =  -2035.26240280
 Copying the excited state density for this state as the 1-particle RhoCI density.

 Excited State   2:      Singlet-A      2.1432 eV  578.51 nm  f=0.1545  <S**2>=0.000
     155 ->157         0.65155
     156 ->158        -0.25243

 Excited State   3:      Singlet-A      3.1998 eV  387.47 nm  f=0.0021  <S**2>=0.000
     153 ->157         0.29725
     154 ->157         0.62271

 Excited State   4:      Singlet-A      3.4879 eV  355.47 nm  f=0.0020  <S**2>=0.000
     153 ->157         0.58754
     154 ->157        -0.30259
     156 ->158         0.19582

 Excited State   5:      Singlet-A      3.6811 eV  336.81 nm  f=0.0061  <S**2>=0.000
     152 ->157         0.56076
     152 ->159         0.30048
     152 ->160         0.23442

 The electronic state is 1-A.
 Alpha  occ. eigenvalues --  -46.93547 -19.30876 -19.24936 -19.24477 -19.24071
 Alpha  occ. eigenvalues --  -14.46675 -14.46094 -14.43972 -14.43151 -10.43281
 Alpha  occ. eigenvalues --  -10.40359 -10.39041 -10.35912 -10.35072 -10.34737
 Alpha  occ. eigenvalues --  -10.34691 -10.34653 -10.34422 -10.34009 -10.33153
 Alpha  occ. eigenvalues --  -10.33082 -10.32616 -10.32184 -10.32154 -10.32038
 Alpha  occ. eigenvalues --  -10.31850 -10.31830 -10.31818 -10.31700 -10.31674
 Alpha  occ. eigenvalues --  -10.31480 -10.31199 -10.31030 -10.30629 -10.30422
 Alpha  occ. eigenvalues --  -10.30352 -10.29976 -10.29956 -10.29855 -10.29608
 Alpha  occ. eigenvalues --  -10.29186 -10.28441 -10.28341  -3.19681  -1.93282
 Alpha  occ. eigenvalues --   -1.92799  -1.92681  -1.17935  -1.13959  -1.12548
 Alpha  occ. eigenvalues --   -1.08517  -1.06953  -1.05350  -1.04572  -1.03511
 Alpha  occ. eigenvalues --   -0.94545  -0.91074  -0.90556  -0.89940  -0.88965
 Alpha  occ. eigenvalues --   -0.88384  -0.87769  -0.86217  -0.85705  -0.84815
 Alpha  occ. eigenvalues --   -0.84053  -0.83145  -0.82636  -0.80233  -0.79245
 Alpha  occ. eigenvalues --   -0.78691  -0.77651  -0.76831  -0.74868  -0.72918
 Alpha  occ. eigenvalues --   -0.70605  -0.70028  -0.69523  -0.68528  -0.67463
 Alpha  occ. eigenvalues --   -0.67103  -0.66588  -0.66054  -0.63937  -0.62342
 Alpha  occ. eigenvalues --   -0.62099  -0.61256  -0.60153  -0.59694  -0.59594
 Alpha  occ. eigenvalues --   -0.58188  -0.57647  -0.57423  -0.56893  -0.55722
 Alpha  occ. eigenvalues --   -0.55538  -0.55390  -0.54575  -0.54505  -0.53829
 Alpha  occ. eigenvalues --   -0.53750  -0.53517  -0.52974  -0.52814  -0.52448
 Alpha  occ. eigenvalues --   -0.52059  -0.51747  -0.51363  -0.51352  -0.51112
 Alpha  occ. eigenvalues --   -0.50651  -0.49895  -0.49586  -0.49172  -0.48760
 Alpha  occ. eigenvalues --   -0.48575  -0.48390  -0.48067  -0.47781  -0.47681
 Alpha  occ. eigenvalues --   -0.47322  -0.46994  -0.46697  -0.46591  -0.46407
 Alpha  occ. eigenvalues --   -0.46290  -0.45357  -0.45262  -0.44869  -0.44791
 Alpha  occ. eigenvalues --   -0.44577  -0.44305  -0.43878  -0.43793  -0.43142
 Alpha  occ. eigenvalues --   -0.42885  -0.42352  -0.41970  -0.41050  -0.40738
 Alpha  occ. eigenvalues --   -0.40280  -0.39903  -0.39761  -0.38771  -0.38410
 Alpha  occ. eigenvalues --   -0.37923  -0.36240  -0.36108  -0.35382  -0.33748
 Alpha  occ. eigenvalues --   -0.33488  -0.32837  -0.32166  -0.31755  -0.25888
 Alpha  occ. eigenvalues --   -0.23345
 Alpha virt. eigenvalues --   -0.07375   0.00635   0.02777   0.04867   0.06470
 Alpha virt. eigenvalues --    0.06691   0.08043   0.08654   0.09610   0.10398
 Alpha virt. eigenvalues --    0.11509   0.12215   0.12772   0.13032   0.13752

 Mulliken charges:
               1
     1  Mg   0.978654
     2  C   -0.032819
     3  C   -0.099747
     4  C   -0.063598
     5  C   -0.089454
     6  N   -0.322109
     7  C    0.015291
     8  C   -0.082352
     9  C   -0.128353
    10  C    0.030438
    11  C    0.020654
    12  C    0.044862
    13  C   -0.121112
    14  H    0.030800
    15  N   -0.523132
    16  C    0.242110
    17  C   -0.149165
    18  C   -0.081312
    19  C    0.154474
    20  C    0.041696
    21  C    0.076119
    22  O   -0.213761
    23  C   -0.007454
    24  N   -0.359229
    25  C    0.071738
    26  C   -0.108412
    27  C   -0.079664
    28  C    0.063558
    29  C    0.008314
    30  C    0.027460
    31  C   -0.074068
    32  N   -0.443818
    33  C    0.130133
    34  C   -0.214743
    35  C    0.007922
    36  C    0.121424
    37  C    0.094285
    38  C    0.108390
    39  O   -0.190840
    40  C   -0.041961
    41  C    0.275541
    42  O   -0.281937
    43  O   -0.372028
    44  C    0.141506
    45  H   -0.011114
    46  H    0.021683
    47  H   -0.003644
    48  H    0.026649
    49  H    0.025655
    50  H    0.045046
    51  H    0.043247
    52  H    0.033149
    53  H    0.030102
    54  H    0.030096
    55  H    0.065254
    56  H    0.054075
    57  H    0.051135
    58  H    0.023074
    59  H    0.045406
    60  H    0.070838
    61  H    0.046586
    62  H    0.048645
    63  H    0.037843
    64  H    0.037774
    65  H    0.044167
    66  H    0.029744
    67  H    0.037022
    68  H    0.035363
    69  H    0.037549
    70  H    0.038907
    71  H    0.028200
    72  H    0.026668
    73  H    0.030823
    74  H    0.066458
    75  H    0.049393
    76  H    0.057625
    77  H    0.060442
    78  H    0.064173
    79  H    0.067667
 Sum of Mulliken charges =  -0.00000

 Dipole moment (field-independent basis, Debye):
    X=              1.4078    Y=             -4.0801    Z=             -1.0279  Tot=              4.4368
 Quadrupole moment (field-independent basis, Debye-Ang):
   XX=           -257.4981   YY=           -223.9838   ZZ=           -259.6618
   XY=             18.6610   XZ=              1.4398   YZ=             -4.9249

 Normal termination of Gaussian 16 at Sat Sep 18 18:45:11 2021.
