 Gaussian 16, Revision A.03,
 Gaussian 16:  ES64L-G16RevA.03 25-Dec-2016

 --------------------------------
 #p wB97XD/Def2SVP td=(nstates=5)
 --------------------------------

 --------------------------------
 TDDFT excited states in gaussian
 --------------------------------
 Symbolic Z-matrix:
 Charge =  0 Multiplicity = 1

                         Standard orientation:
 ---------------------------------------------------------------------
 Center     Atomic      Atomic             Coordinates (Angstroms)
 Number     Number       Type             X           Y           Z
 ---------------------------------------------------------------------
      1         12           0      -29.132829   -0.010553   -0.536242
      2          6           0      -25.633104    0.029383   -0.219179
      3          6           0      -29.059726   -3.421230   -0.107189
      4          6           0      -32.407051    0.140269   -0.086495
      5          6           0      -29.087045    3.537289   -0.705253
      6          7           0      -27.568175   -1.457329    0.045475
      7          6           0      -26.169646   -1.230184    0.120492
      8          6           0      -25.385328   -2.476816    0.092593
      9          6           0      -26.521228   -3.586926    0.027867
     10          6           0      -27.810662   -2.785107   -0.052921
     11          6           0      -26.270250   -4.629628   -1.088288
     12          6           0      -24.577299   -2.736258    1.327382
     13          6           0      -25.210002   -2.327890    2.666069
     14          1           0      -24.981748   -3.177168    3.976724
     15          7           0      -30.592630   -1.445669   -0.180095
     16          6           0      -30.352714   -2.770778   -0.166401
     17          6           0      -31.616007   -3.461323   -0.094298
     18          6           0      -32.618511   -2.462542   -0.161172
     19          6           0      -31.909039   -1.173186   -0.177303
     20          6           0      -31.803000   -4.947085    0.056737
     21          6           0      -34.125753   -2.713479   -0.196637
     22          8           0      -34.574581   -3.842374   -0.156460
     23          6           0      -35.221410   -1.689396   -0.166326
     24          7           0      -30.515786    1.598374   -0.156991
     25          6           0      -31.866228    1.397834   -0.050004
     26          6           0      -32.657929    2.738344   -0.200784
     27          6           0      -31.523351    3.800660   -0.083086
     28          6           0      -30.304126    2.944569   -0.347289
     29          6           0      -33.432508    2.908102   -1.530040
     30          6           0      -31.278573    4.409734    1.377571
     31          6           0      -31.129640    5.884985    1.472957
     32          7           0      -27.750226    1.464891   -0.582236
     33          6           0      -27.885350    2.773250   -0.837492
     34          6           0      -26.561392    3.355514   -1.276790
     35          6           0      -25.673114    2.250311   -1.082024
     36          6           0      -26.419326    1.175080   -0.521919
     37          6           0      -26.206518    4.755600   -1.756466
     38          6           0      -24.280565    1.906112   -1.075356
     39          8           0      -23.294517    2.576890   -1.336719
     40          6           0      -24.211812    0.420305   -0.536529
     41          6           0      -23.505585    0.469547    0.802477
     42          8           0      -23.901773    0.945651    1.814578
     43          8           0      -22.333715   -0.247863    0.689477
     44          6           0      -21.688298   -0.528676    1.975908
     45          1           0      -29.015412   -4.510363   -0.169659
     46          1           0      -33.496217    0.200705   -0.117267
     47          1           0      -29.157779    4.610079   -0.896428
     48          1           0      -24.720758   -2.428641   -0.770029
     49          1           0      -26.715702   -4.127211    0.954295
     50          1           0      -26.427542   -5.553681   -0.531689
     51          1           0      -25.246102   -4.485422   -1.432609
     52          1           0      -27.010661   -4.586263   -1.887292
     53          1           0      -23.537734   -2.416477    1.250897
     54          1           0      -24.358160   -3.787350    1.516506
     55          1           0      -26.277580   -2.252536    2.456665
     56          1           0      -24.847631   -1.306494    2.783747
     57          1           0      -32.544478   -5.172433    0.823959
     58          1           0      -30.840230   -5.424168    0.239547
     59          1           0      -32.184151   -5.263727   -0.914415
     60          1           0      -35.299159   -1.113229    0.755115
     61          1           0      -36.102771   -2.330417   -0.141416
     62          1           0      -35.326886   -1.145150   -1.105429
     63          1           0      -33.380904    2.788430    0.613302
     64          1           0      -31.599382    4.599637   -0.821074
     65          1           0      -32.958415    3.701455   -2.107625
     66          1           0      -34.510095    2.938935   -1.369759
     67          1           0      -33.305756    2.001596   -2.120802
     68          1           0      -30.428940    3.930989    1.863882
     69          1           0      -32.165898    4.107801    1.934243
     70          1           0      -31.840676    6.341692    2.161084
     71          1           0      -31.197156    6.392765    0.510546
     72          1           0      -30.157374    6.167748    1.875590
     73          1           0      -25.448873    5.132281   -1.069287
     74          1           0      -27.137766    5.309670   -1.880580
     75          1           0      -25.687344    4.613600   -2.704216
     76          1           0      -23.709907   -0.250067   -1.233876
     77          1           0      -22.397404   -0.612896    2.799308
     78          1           0      -21.035131    0.331535    2.122903
     79          1           0      -21.017542   -1.367449    1.791754
     80         12           0       28.477176    0.714897   -0.510670
     81          6           0       27.514848   -2.676593   -0.527788
     82          6           0       25.605293    1.389355    1.193606
     83          6           0       29.750193    3.813216    0.168520
     84          6           0       31.601626   -0.389795   -1.821198
     85          7           0       26.796196   -0.557506    0.382141
     86          6           0       26.500149   -1.868849    0.143004
     87          6           0       25.250571   -2.333847    0.910608
     88          6           0       24.567984   -0.888258    1.074531
     89          6           0       25.729823    0.051457    0.867989
     90          6           0       23.407121   -0.576053    0.092463
     91          6           0       25.551490   -2.995610    2.330078
     92          6           0       24.532524   -3.955126    2.925178
     93          1           0       23.694112   -3.595692    4.170327
     94          7           0       27.802580    2.476021    0.522266
     95          6           0       26.533321    2.549382    1.018068
     96          6           0       26.216565    3.854931    1.397177
     97          6           0       27.399342    4.628219    1.091820
     98          6           0       28.420886    3.663442    0.595230
     99          6           0       24.877410    4.300035    1.972465
    100          6           0       27.472906    6.122472    1.310601
    101          8           0       26.472080    6.733012    1.767000
    102          6           0       28.703462    7.003650    0.895895
    103          7           0       30.374403    1.515899   -0.808147
    104          6           0       30.649460    2.867892   -0.467162
    105          6           0       31.940042    3.304472   -1.102846
    106          6           0       32.677256    1.985065   -1.418983
    107          6           0       31.498454    0.968704   -1.435837
    108          6           0       31.913503    4.135630   -2.405482
    109          6           0       33.739776    1.582284   -0.266202
    110          6           0       35.131991    2.193434   -0.315993
    111          7           0       29.292768   -1.143090   -1.229874
    112          6           0       30.552871   -1.427490   -1.734330
    113          6           0       30.707480   -2.776539   -1.992270
    114          6           0       29.488741   -3.341072   -1.578523
    115          6           0       28.674556   -2.300720   -1.099938
    116          6           0       31.930538   -3.408963   -2.577644
    117          6           0       28.761287   -4.498078   -1.554581
    118          8           0       29.010113   -5.590081   -2.026187
    119          6           0       27.564097   -4.159005   -0.641790
    120          6           0       27.837300   -4.889645    0.638954
    121          8           0       28.817194   -4.736148    1.299499
    122          8           0       26.824098   -5.816250    0.891279
    123          6           0       27.120665   -6.650462    2.003533
    124          1           0       24.616362    1.684672    1.551010
    125          1           0       30.135252    4.835498    0.174258
    126          1           0       32.527995   -0.627012   -2.348050
    127          1           0       24.565944   -2.905737    0.285138
    128          1           0       24.132871   -0.867400    2.073316
    129          1           0       22.525343   -0.790132    0.697051
    130          1           0       23.403112   -1.243731   -0.769017
    131          1           0       23.395819    0.475552   -0.194535
    132          1           0       25.645585   -2.225257    3.095514
    133          1           0       26.542319   -3.444201    2.255257
    134          1           0       25.115415   -4.850894    3.144366
    135          1           0       23.840387   -4.222923    2.127008
    136          1           0       24.475904    5.279767    1.711421
    137          1           0       25.115152    4.165366    3.027406
    138          1           0       24.081373    3.654291    1.601676
    139          1           0       28.837168    6.953388   -0.184366
    140          1           0       29.512197    6.553837    1.471511
    141          1           0       28.699509    8.033490    1.252740
    142          1           0       32.500921    3.824324   -0.326819
    143          1           0       33.198593    2.021096   -2.375614
    144          1           0       32.301092    3.626813   -3.287907
    145          1           0       32.132617    5.185665   -2.210682
    146          1           0       30.852236    4.206481   -2.643257
    147          1           0       33.775654    0.503717   -0.418194
    148          1           0       33.336604    1.795706    0.723930
    149          1           0       35.357573    2.646080    0.649200
    150          1           0       35.159372    2.961296   -1.089627
    151          1           0       35.894689    1.431909   -0.480748
    152          1           0       32.168061   -4.253074   -1.930868
    153          1           0       32.801201   -2.752948   -2.542740
    154          1           0       31.770796   -3.786985   -3.587585
    155          1           0       26.661438   -4.544539   -1.114531
    156          1           0       27.616279   -7.557352    1.658176
    157          1           0       26.234197   -7.070480    2.480303
    158          1           0       27.760236   -6.157844    2.733921
 ---------------------------------------------------------------------

 SCF Done:  E(RwB97XD) =  -4070.57736970     A.U. after   20 cycles

 Excitation energies and oscillator strengths:

 Excited State   1:      Singlet-A      1.6066 eV  771.70 nm  f=0.3719  <S**2>=0.000
     310 -> 316        0.17859
     312 -> 314        0.68544
     310 <- 316        0.11727
 This state for optimization and/or second-order correction.
 Total Energy, E(TD-HF/TD-DFT) =  -4070.51832700
 Copying the excited state density for this state as the 1-particle RhoCI density.

 Excited State   2:      Singlet-A      1.6462 eV  753.17 nm  f=0.4025  <S**2>=0.000
     309 -> 315       -0.19122
     311 -> 313        0.68053
     309 <- 315       -0.11798

 Excited State   3:      Singlet-A      2.0913 eV  592.87 nm  f=0.1262  <S**2>=0.000
     309 -> 313        0.64852
     311 -> 315        0.26306

 Excited State   4:      Singlet-A      2.2111 eV  560.74 nm  f=0.0984  <S**2>=0.000
     310 -> 314        0.62751
     312 -> 316       -0.31206

 Excited State   5:      Singlet-A      3.1710 eV  390.99 nm  f=0.0098  <S**2>=0.000
     306 -> 313       -0.26113
     308 -> 313        0.61007
     308 -> 317       -0.13663

 The electronic state is 1-A.
 Alpha  occ. eigenvalues --  -46.96657 -46.94939 -19.30635 -19.29847 -19.25849
 Alpha  occ. eigenvalues --  -19.25339 -19.24186 -19.23254 -19.23171 -19.22929
 Alpha  occ. eigenvalues --  -14.47781 -14.47278 -14.46999 -14.46490 -14.44410
 Alpha  occ. eigenvalues --  -14.44182 -14.44115 -14.43822 -10.43563 -10.43086
 Alpha  occ. eigenvalues --  -10.39025 -10.39011 -10.38567 -10.37358 -10.36475
 Alpha  occ. eigenvalues --  -10.36370 -10.35693 -10.35247 -10.35206 -10.34996
 Alpha  occ. eigenvalues --  -10.34975 -10.34840 -10.34746 -10.34731 -10.34658
 Alpha  occ. eigenvalues --  -10.34604 -10.34512 -10.34290 -10.33998 -10.33983
 Alpha  occ. eigenvalues --  -10.33328 -10.33325 -10.33084 -10.32867 -10.32563
 Alpha  occ. eigenvalues --  -10.32557 -10.32477 -10.32460 -10.32378 -10.32372
 Alpha  occ. eigenvalues --  -10.32296 -10.32182 -10.32111 -10.32107 -10.32096
 Alpha  occ. eigenvalues --  -10.32039 -10.31904 -10.31885 -10.31881 -10.31870
 Alpha  occ. eigenvalues --  -10.31714 -10.31653 -10.31533 -10.31525 -10.31500
 Alpha  occ. eigenvalues --  -10.31307 -10.31072 -10.30860 -10.30543 -10.30495
 Alpha  occ. eigenvalues --  -10.30474 -10.30434 -10.30423 -10.30369 -10.30352
 Alpha  occ. eigenvalues --  -10.30305 -10.30235 -10.29967 -10.29961 -10.29796
 Alpha  occ. eigenvalues --  -10.29467 -10.29438 -10.29368 -10.29186 -10.29159
 Alpha  occ. eigenvalues --  -10.28198  -3.22428  -3.21009  -1.96008  -1.95536
 Alpha  occ. eigenvalues --   -1.95386  -1.94563  -1.94139  -1.93998  -1.19803
 Alpha  occ. eigenvalues --   -1.19412  -1.12613  -1.12266  -1.12196  -1.11746
 Alpha  occ. eigenvalues --   -1.11163  -1.09533  -1.07783  -1.06718  -1.06595
 Alpha  occ. eigenvalues --   -1.06037  -1.05983  -1.05332  -1.04654  -1.03910
 Alpha  occ. eigenvalues --   -0.96378  -0.95162  -0.91747  -0.91314  -0.90870
 Alpha  occ. eigenvalues --   -0.90637  -0.90564  -0.90300  -0.89530  -0.89453
 Alpha  occ. eigenvalues --   -0.89033  -0.88287  -0.87871  -0.87758  -0.86650
 Alpha  occ. eigenvalues --   -0.86305  -0.86055  -0.85537  -0.84838  -0.84634
 Alpha  occ. eigenvalues --   -0.83822  -0.83603  -0.82820  -0.82656  -0.82470
 Alpha  occ. eigenvalues --   -0.82306  -0.80024  -0.79887  -0.79444  -0.79313
 Alpha  occ. eigenvalues --   -0.78900  -0.78782  -0.77983  -0.77911  -0.77652
 Alpha  occ. eigenvalues --   -0.77096  -0.75613  -0.74695  -0.74246  -0.73657
 Alpha  occ. eigenvalues --   -0.71560  -0.71482  -0.70814  -0.70574  -0.70422
 Alpha  occ. eigenvalues --   -0.70396  -0.69169  -0.69093  -0.68257  -0.67792
 Alpha  occ. eigenvalues --   -0.67329  -0.67077  -0.66717  -0.66525  -0.66371
 Alpha  occ. eigenvalues --   -0.66242  -0.64811  -0.64101  -0.62509  -0.62165
 Alpha  occ. eigenvalues --   -0.61979  -0.61590  -0.61428  -0.61195  -0.61037
 Alpha  occ. eigenvalues --   -0.61010  -0.60927  -0.60109  -0.60092  -0.59400
 Alpha  occ. eigenvalues --   -0.58539  -0.58500  -0.58020  -0.57697  -0.57365
 Alpha  occ. eigenvalues --   -0.57287  -0.57082  -0.57057  -0.56564  -0.56027
 Alpha  occ. eigenvalues --   -0.55814  -0.55514  -0.55128  -0.54995  -0.54807
 Alpha  occ. eigenvalues --   -0.54740  -0.54531  -0.54301  -0.54223  -0.54213
 Alpha  occ. eigenvalues --   -0.54020  -0.53789  -0.53533  -0.53360  -0.53344
 Alpha  occ. eigenvalues --   -0.53156  -0.53078  -0.52875  -0.52795  -0.52552
 Alpha  occ. eigenvalues --   -0.52102  -0.52073  -0.51786  -0.51669  -0.51554
 Alpha  occ. eigenvalues --   -0.51341  -0.51341  -0.51216  -0.50938  -0.50849
 Alpha  occ. eigenvalues --   -0.50746  -0.50691  -0.50553  -0.50422  -0.50287
 Alpha  occ. eigenvalues --   -0.49875  -0.49466  -0.49282  -0.49160  -0.49133
 Alpha  occ. eigenvalues --   -0.49046  -0.48968  -0.48826  -0.48739  -0.48548
 Alpha  occ. eigenvalues --   -0.48349  -0.48313  -0.48262  -0.47976  -0.47951
 Alpha  occ. eigenvalues --   -0.47826  -0.47727  -0.47427  -0.47240  -0.47171
 Alpha  occ. eigenvalues --   -0.47009  -0.46670  -0.46603  -0.46518  -0.46298
 Alpha  occ. eigenvalues --   -0.46026  -0.45839  -0.45822  -0.45721  -0.45538
 Alpha  occ. eigenvalues --   -0.45291  -0.45177  -0.45153  -0.44901  -0.44699
 Alpha  occ. eigenvalues --   -0.44558  -0.44524  -0.44443  -0.44383  -0.44160
 Alpha  occ. eigenvalues --   -0.44115  -0.44082  -0.43791  -0.43454  -0.43297
 Alpha  occ. eigenvalues --   -0.43178  -0.43059  -0.42920  -0.42675  -0.42399
 Alpha  occ. eigenvalues --   -0.42299  -0.42208  -0.41765  -0.41362  -0.41034
 Alpha  occ. eigenvalues --   -0.40445  -0.40412  -0.39828  -0.39812  -0.39584
 Alpha  occ. eigenvalues --   -0.39317  -0.39137  -0.39078  -0.38902  -0.38636
 Alpha  occ. eigenvalues --   -0.38477  -0.37713  -0.37497  -0.37066  -0.37051
 Alpha  occ. eigenvalues --   -0.36218  -0.35676  -0.35299  -0.33660  -0.33580
 Alpha  occ. eigenvalues --   -0.33122  -0.32467  -0.32466  -0.32162  -0.32074
 Alpha  occ. eigenvalues --   -0.31985  -0.31827  -0.31642  -0.26240  -0.26229
 Alpha  occ. eigenvalues --   -0.23842  -0.22853
 Alpha virt. eigenvalues --   -0.07959  -0.07122  -0.00586   0.00126   0.02001
 Alpha virt. eigenvalues --    0.02296   0.04491   0.04559   0.04651   0.04692
 Alpha virt. eigenvalues --    0.06748   0.07436   0.07575   0.07771   0.07989

 Mulliken charges:
               1
     1  Mg   0.971280
     2  C   -0.073503
     3  C   -0.088698
     4  C   -0.070237
     5  C   -0.087602
     6  N   -0.366594
     7  C    0.021308
     8  C   -0.041259
     9  C   -0.131884
    10  C    0.060131
    11  C    0.036722
    12  C   -0.026234
    13  C   -0.106253
    14  H    0.042072
    15  N   -0.438614
    16  C    0.155020
    17  C   -0.199062
    18  C   -0.050506
    19  C    0.165458
    20  C    0.110752
    21  C    0.017551
    22  O   -0.237359
    23  C   -0.009431
    24  N   -0.357035
    25  C    0.045890
    26  C   -0.080110
    27  C   -0.111463
    28  C    0.037454
    29  C    0.042899
    30  C    0.014713
    31  C   -0.045861
    32  N   -0.434612
    33  C    0.147961
    34  C   -0.205231
    35  C   -0.044333
    36  C    0.163025
    37  C    0.102111
    38  C    0.124311
    39  O   -0.206590
    40  C   -0.072884
    41  C    0.257887
    42  O   -0.210169
    43  O   -0.374911
    44  C    0.128912
    45  H   -0.001810
    46  H   -0.030302
    47  H    0.001581
    48  H    0.040529
    49  H    0.052533
    50  H    0.037920
    51  H    0.045544
    52  H    0.046140
    53  H    0.018124
    54  H    0.023461
    55  H    0.051766
    56  H    0.057259
    57  H    0.065755
    58  H    0.021439
    59  H    0.056289
    60  H    0.066087
    61  H    0.044679
    62  H    0.054441
    63  H    0.033932
    64  H    0.029526
    65  H    0.040563
    66  H    0.046107
    67  H    0.027744
    68  H    0.057233
    69  H    0.024515
    70  H    0.038663
    71  H    0.024907
    72  H    0.035854
    73  H    0.069379
    74  H    0.037734
    75  H    0.057396
    76  H    0.064939
    77  H    0.073177
    78  H    0.055941
    79  H    0.055931
    80  Mg   0.948674
    81  C    0.000461
    82  C   -0.064843
    83  C   -0.087434
    84  C   -0.085798
    85  N   -0.297882
    86  C   -0.038007
    87  C   -0.036596
    88  C   -0.151921
    89  C    0.082440
    90  C    0.029912
    91  C   -0.001010
    92  C   -0.097745
    93  H    0.043774
    94  N   -0.425844
    95  C    0.122604
    96  C   -0.157859
    97  C   -0.085146
    98  C    0.168940
    99  C    0.086399
   100  C    0.032101
   101  O   -0.271705
   102  C   -0.011493
   103  N   -0.428449
   104  C    0.087301
   105  C   -0.091956
   106  C   -0.113483
   107  C    0.082467
   108  C    0.055275
   109  C   -0.033191
   110  C   -0.022708
   111  N   -0.388535
   112  C    0.120772
   113  C   -0.174795
   114  C    0.038916
   115  C    0.121328
   116  C    0.098370
   117  C    0.025944
   118  O   -0.206350
   119  C   -0.074452
   120  C    0.254104
   121  O   -0.209754
   122  O   -0.358117
   123  C    0.118690
   124  H   -0.004338
   125  H   -0.015905
   126  H    0.009958
   127  H    0.028210
   128  H    0.041462
   129  H    0.039144
   130  H    0.042955
   131  H    0.043392
   132  H    0.044045
   133  H    0.047716
   134  H    0.049660
   135  H    0.043089
   136  H    0.069599
   137  H    0.065472
   138  H    0.029180
   139  H    0.067727
   140  H    0.050357
   141  H    0.051459
   142  H    0.031762
   143  H    0.027927
   144  H    0.049148
   145  H    0.044392
   146  H    0.015817
   147  H    0.024911
   148  H    0.036998
   149  H    0.036025
   150  H    0.032855
   151  H    0.043085
   152  H    0.055726
   153  H    0.023770
   154  H    0.063710
   155  H    0.047909
   156  H    0.048932
   157  H    0.048428
   158  H    0.062027
 Sum of Mulliken charges =  -0.00000

 Dipole moment (field-independent basis, Debye):
    X=             -0.9875    Y=              1.7769    Z=             -2.3076  Tot=              3.0753
 Quadrupole moment (field-independent basis, Debye-Ang):
   XX=           -378.1813   YY=           -534.4534   ZZ=           -511.9648
   XY=              8.1571   XZ=             15.1666   YZ=            -26.9697

 Normal termination of Gaussian 16 at Sat Sep 18 15:12:40 2021.
