 Gaussian 16, Revision A.03,
 Gaussian 16:  ES64L-G16RevA.03 25-Dec-2016

 --------------------------------
 #p wB97XD/Def2SVP td=(nstates=5)
 --------------------------------

 --------------------------------
 TDDFT excited states in gaussian
 --------------------------------
 Symbolic Z-matrix:
 Charge =  0 Multiplicity = 1

                         Standard orientation:
 ---------------------------------------------------------------------
 Center     Atomic      Atomic             Coordinates (Angstroms)
 Number     Number       Type             X           Y           Z
 ---------------------------------------------------------------------
      1         12           0      -20.141144   -0.190721   -0.528403
      2          6           0      -17.573149   -0.796352    1.632214
      3          6           0      -20.290253    3.119881    0.709175
      4          6           0      -22.812709    0.379202   -2.465195
      5          6           0      -19.859121   -3.407898   -1.698450
      6          7           0      -19.290091    0.931324    1.190987
      7          6           0      -18.147822    0.481847    1.865711
      8          6           0      -17.613468    1.539396    2.872692
      9          6           0      -18.585073    2.702769    2.539909
     10          6           0      -19.512419    2.217099    1.440599
     11          6           0      -19.416173    3.442185    3.673291
     12          6           0      -16.083963    1.957241    2.729269
     13          6           0      -15.679336    3.042491    3.762706
     14          1           0      -14.772810    2.510518    4.873590
     15          7           0      -21.372476    1.576267   -0.870099
     16          6           0      -21.092346    2.852851   -0.432388
     17          6           0      -22.174788    3.689592   -0.936952
     18          6           0      -22.909022    2.873896   -1.856890
     19          6           0      -22.376865    1.549127   -1.793191
     20          6           0      -22.282847    5.112656   -0.544742
     21          6           0      -24.175322    3.382833   -2.630229
     22          8           0      -24.944949    2.633631   -3.265287
     23          6           0      -24.560482    4.837879   -2.567130
     24          7           0      -21.148234   -1.291358   -1.792508
     25          6           0      -22.287433   -0.853136   -2.524606
     26          6           0      -22.993554   -2.020423   -3.176315
     27          6           0      -21.826060   -2.997849   -3.297902
     28          6           0      -20.833266   -2.538795   -2.239437
     29          6           0      -24.172054   -2.582351   -2.312240
     30          6           0      -21.124382   -2.923727   -4.672471
     31          6           0      -21.682462   -3.739803   -5.807395
     32          7           0      -19.013283   -1.875350   -0.153603
     33          6           0      -18.885987   -3.053464   -0.785220
     34          6           0      -17.877715   -3.835782   -0.133140
     35          6           0      -17.309929   -3.004657    0.809025
     36          6           0      -18.010007   -1.790493    0.733915
     37          6           0      -17.534290   -5.219451   -0.562627
     38          6           0      -16.307067   -2.942250    1.784689
     39          8           0      -15.466916   -3.748638    2.134350
     40          6           0      -16.431607   -1.462679    2.382100
     41          6           0      -16.645938   -1.579542    3.849626
     42          8           0      -17.617708   -2.022475    4.411991
     43          8           0      -15.663043   -0.983358    4.531065
     44          6           0      -15.792860   -0.987296    6.039174
     45          1           0      -20.171760    4.158054    1.025912
     46          1           0      -23.678927    0.552077   -3.106997
     47          1           0      -19.624135   -4.394364   -2.102693
     48          1           0      -17.799832    1.177190    3.883770
     49          1           0      -18.031907    3.510180    2.059188
     50          1           0      -19.556393    4.516032    3.546805
     51          1           0      -19.060362    3.129426    4.655125
     52          1           0      -20.428095    3.056373    3.550476
     53          1           0      -16.003304    2.256545    1.684996
     54          1           0      -15.473463    1.065041    2.867841
     55          1           0      -16.567423    3.560600    4.124601
     56          1           0      -15.078350    3.773029    3.221996
     57          1           0      -23.168680    5.220257    0.081508
     58          1           0      -22.231272    5.680234   -1.473892
     59          1           0      -21.401026    5.428453    0.012907
     60          1           0      -25.423062    5.020935   -3.207876
     61          1           0      -23.731490    5.347345   -3.060288
     62          1           0      -24.723007    5.265239   -1.578008
     63          1           0      -23.407827   -1.739509   -4.144991
     64          1           0      -22.104775   -4.032451   -3.098911
     65          1           0      -23.798572   -3.148766   -1.460023
     66          1           0      -24.828284   -3.201468   -2.924501
     67          1           0      -24.730077   -1.706147   -1.983967
     68          1           0      -20.057826   -3.137711   -4.616258
     69          1           0      -21.082518   -1.885599   -5.002371
     70          1           0      -21.950439   -3.034823   -6.593828
     71          1           0      -22.634401   -4.091817   -5.409604
     72          1           0      -21.047238   -4.565725   -6.127875
     73          1           0      -16.667062   -5.207187   -1.221683
     74          1           0      -18.332052   -5.857742   -0.943685
     75          1           0      -17.199282   -5.720480    0.345746
     76          1           0      -15.498426   -0.935132    2.183363
     77          1           0      -16.790466   -0.614651    6.272633
     78          1           0      -15.088376   -0.317666    6.533224
     79          1           0      -15.664791   -2.014899    6.380077
     80         12           0       20.211344   -0.457486    0.084717
     81          6           0       18.289477    2.480527    0.056667
     82          6           0       17.658686   -2.003579    1.708252
     83          6           0       21.923108   -3.209550   -0.353918
     84          6           0       22.287823    1.220935   -2.331384
     85          7           0       18.270071    0.204692    0.836621
     86          6           0       17.675629    1.427596    0.702531
     87          6           0       16.196982    1.287902    1.094240
     88          6           0       16.240705    0.114522    2.066844
     89          6           0       17.414681   -0.652513    1.428583
     90          6           0       16.559297    0.546198    3.516944
     91          6           0       15.295432    0.992277   -0.161023
     92          6           0       14.234185    2.108797   -0.619643
     93          1           0       14.362835    2.731425   -2.020305
     94          7           0       19.819975   -2.356648    0.552485
     95          6           0       18.718766   -2.802181    1.246856
     96          6           0       18.911843   -4.186389    1.547068
     97          6           0       20.204498   -4.594112    1.078467
     98          6           0       20.727698   -3.384631    0.379542
     99          6           0       17.856398   -5.056434    2.311898
    100          6           0       20.843728   -6.009464    1.320855
    101          8           0       20.288479   -6.805173    2.014140
    102          6           0       22.230630   -6.217836    0.922870
    103          7           0       21.690178   -1.016865   -1.413695
    104          6           0       22.425533   -2.094917   -1.051696
    105          6           0       23.864182   -2.028831   -1.536308
    106          6           0       23.862795   -0.821996   -2.462142
    107          6           0       22.510361   -0.138248   -2.058592
    108          6           0       24.900936   -1.876501   -0.362510
    109          6           0       23.987687   -1.038945   -4.043435
    110          6           0       25.241257   -0.689558   -4.799785
    111          7           0       20.429943    1.476036   -0.781085
    112          6           0       21.305312    2.012031   -1.734343
    113          6           0       20.960317    3.376936   -2.068457
    114          6           0       19.802709    3.599580   -1.364078
    115          6           0       19.471143    2.431005   -0.602304
    116          6           0       21.682669    4.232827   -3.023743
    117          6           0       18.773177    4.590694   -1.091214
    118          8           0       18.698652    5.770729   -1.455494
    119          6           0       17.828349    3.956334   -0.092364
    120          6           0       17.882801    4.797024    1.178589
    121          8           0       18.943135    4.970046    1.775194
    122          8           0       16.647208    5.405122    1.449646
    123          6           0       16.636266    6.242672    2.619135
    124          1           0       16.892504   -2.423829    2.362607
    125          1           0       22.604059   -4.047940   -0.199370
    126          1           0       22.985850    1.756892   -2.978202
    127          1           0       15.875094    2.265832    1.453084
    128          1           0       15.282334   -0.400786    2.016533
    129          1           0       15.749776    0.021363    4.023013
    130          1           0       16.448136    1.630867    3.511791
    131          1           0       17.540026    0.274748    3.907750
    132          1           0       14.695911    0.112813    0.073643
    133          1           0       15.953880    0.695965   -0.977184
    134          1           0       14.389537    2.946387    0.060785
    135          1           0       13.190552    1.820282   -0.500201
    136          1           0       17.574338   -6.015908    1.879466
    137          1           0       16.961090   -4.437403    2.378122
    138          1           0       18.158357   -5.280575    3.335130
    139          1           0       22.424560   -6.052263   -0.137106
    140          1           0       22.510154   -7.240262    1.176919
    141          1           0       22.897959   -5.675925    1.591620
    142          1           0       24.180472   -2.944826   -2.036439
    143          1           0       24.641562   -0.118808   -2.166883
    144          1           0       25.368124   -2.818133   -0.074633
    145          1           0       24.443200   -1.324111    0.458113
    146          1           0       25.706079   -1.239065   -0.730728
    147          1           0       23.146773   -0.742383   -4.669419
    148          1           0       23.933029   -2.126987   -3.998877
    149          1           0       25.757071   -1.556841   -5.210707
    150          1           0       25.941429   -0.186550   -4.132382
    151          1           0       24.901060   -0.018218   -5.587911
    152          1           0       22.192947    3.580459   -3.732878
    153          1           0       22.443929    4.746199   -2.435662
    154          1           0       21.022230    4.971123   -3.476233
    155          1           0       16.860335    4.078597   -0.576378
    156          1           0       16.596364    5.701520    3.564850
    157          1           0       15.786675    6.924939    2.615166
    158          1           0       17.493872    6.909719    2.702364
 ---------------------------------------------------------------------

 SCF Done:  E(RwB97XD) =  -4070.63648493     A.U. after   19 cycles

 Excitation energies and oscillator strengths:

 Excited State   1:      Singlet-A      1.5970 eV  776.37 nm  f=0.3858  <S**2>=0.000
     309 -> 316        0.16563
     311 -> 313        0.68827
     309 <- 316        0.11237
 This state for optimization and/or second-order correction.
 Total Energy, E(TD-HF/TD-DFT) =  -4070.57779734
 Copying the excited state density for this state as the 1-particle RhoCI density.

 Excited State   2:      Singlet-A      1.6667 eV  743.87 nm  f=0.3641  <S**2>=0.000
     310 -> 315       -0.19753
     312 -> 314        0.68092
     310 <- 315       -0.12066

 Excited State   3:      Singlet-A      2.1949 eV  564.86 nm  f=0.1057  <S**2>=0.000
     309 -> 313        0.63720
     311 -> 316       -0.28942

 Excited State   4:      Singlet-A      2.2261 eV  556.95 nm  f=0.0510  <S**2>=0.000
     310 -> 314        0.60366
     312 -> 315        0.35677

 Excited State   5:      Singlet-A      3.2157 eV  385.56 nm  f=0.0019  <S**2>=0.000
     308 -> 313        0.67726

 The electronic state is 1-A.
 Alpha  occ. eigenvalues --  -46.95035 -46.93870 -19.31299 -19.30165 -19.25565
 Alpha  occ. eigenvalues --  -19.24504 -19.24072 -19.23863 -19.23713 -19.23561
 Alpha  occ. eigenvalues --  -14.47347 -14.46734 -14.46686 -14.46377 -14.43998
 Alpha  occ. eigenvalues --  -14.43981 -14.43492 -14.43450 -10.44163 -10.42392
 Alpha  occ. eigenvalues --  -10.39178 -10.39016 -10.38983 -10.38621 -10.36151
 Alpha  occ. eigenvalues --  -10.36083 -10.35415 -10.35269 -10.35178 -10.35147
 Alpha  occ. eigenvalues --  -10.34879 -10.34701 -10.34577 -10.34538 -10.34039
 Alpha  occ. eigenvalues --  -10.33842 -10.33554 -10.33552 -10.33478 -10.33292
 Alpha  occ. eigenvalues --  -10.33268 -10.33047 -10.33036 -10.32687 -10.32664
 Alpha  occ. eigenvalues --  -10.32633 -10.32500 -10.32284 -10.32203 -10.32163
 Alpha  occ. eigenvalues --  -10.32152 -10.31954 -10.31950 -10.31949 -10.31926
 Alpha  occ. eigenvalues --  -10.31882 -10.31806 -10.31664 -10.31529 -10.31405
 Alpha  occ. eigenvalues --  -10.31365 -10.31223 -10.31169 -10.31031 -10.30947
 Alpha  occ. eigenvalues --  -10.30942 -10.30912 -10.30739 -10.30737 -10.30680
 Alpha  occ. eigenvalues --  -10.30422 -10.30391 -10.30369 -10.30131 -10.30101
 Alpha  occ. eigenvalues --  -10.30093 -10.29864 -10.29689 -10.29600 -10.29525
 Alpha  occ. eigenvalues --  -10.29504 -10.29504 -10.29428 -10.29209 -10.29114
 Alpha  occ. eigenvalues --  -10.28905  -3.21081  -3.20055  -1.94647  -1.94220
 Alpha  occ. eigenvalues --   -1.94049  -1.93654  -1.93199  -1.93030  -1.19115
 Alpha  occ. eigenvalues --   -1.18181  -1.14107  -1.12747  -1.11365  -1.10475
 Alpha  occ. eigenvalues --   -1.10467  -1.09370  -1.07531  -1.06789  -1.06285
 Alpha  occ. eigenvalues --   -1.05944  -1.05107  -1.04918  -1.04118  -1.03989
 Alpha  occ. eigenvalues --   -0.95371  -0.95065  -0.91019  -0.90954  -0.90853
 Alpha  occ. eigenvalues --   -0.90683  -0.90562  -0.90463  -0.89886  -0.89580
 Alpha  occ. eigenvalues --   -0.89128  -0.89058  -0.88496  -0.86941  -0.86510
 Alpha  occ. eigenvalues --   -0.86296  -0.86151  -0.85856  -0.84473  -0.84450
 Alpha  occ. eigenvalues --   -0.84433  -0.83512  -0.83181  -0.83017  -0.82834
 Alpha  occ. eigenvalues --   -0.82591  -0.80355  -0.79956  -0.79491  -0.79184
 Alpha  occ. eigenvalues --   -0.79157  -0.78348  -0.78228  -0.78162  -0.77148
 Alpha  occ. eigenvalues --   -0.77050  -0.75243  -0.74885  -0.74118  -0.73796
 Alpha  occ. eigenvalues --   -0.71442  -0.70959  -0.70943  -0.70606  -0.70232
 Alpha  occ. eigenvalues --   -0.70112  -0.68762  -0.68064  -0.67798  -0.67783
 Alpha  occ. eigenvalues --   -0.67570  -0.66890  -0.66872  -0.66653  -0.66482
 Alpha  occ. eigenvalues --   -0.66167  -0.64736  -0.64119  -0.62222  -0.62217
 Alpha  occ. eigenvalues --   -0.62058  -0.62035  -0.61141  -0.61112  -0.60888
 Alpha  occ. eigenvalues --   -0.60884  -0.60494  -0.60333  -0.60010  -0.59715
 Alpha  occ. eigenvalues --   -0.58543  -0.58225  -0.58071  -0.58012  -0.57260
 Alpha  occ. eigenvalues --   -0.57032  -0.56901  -0.56701  -0.56224  -0.55928
 Alpha  occ. eigenvalues --   -0.55487  -0.55398  -0.55338  -0.55110  -0.54948
 Alpha  occ. eigenvalues --   -0.54842  -0.54724  -0.54662  -0.54624  -0.54239
 Alpha  occ. eigenvalues --   -0.54135  -0.53742  -0.53737  -0.53603  -0.53284
 Alpha  occ. eigenvalues --   -0.52962  -0.52822  -0.52392  -0.52302  -0.52187
 Alpha  occ. eigenvalues --   -0.52098  -0.51940  -0.51844  -0.51744  -0.51692
 Alpha  occ. eigenvalues --   -0.51590  -0.51262  -0.51188  -0.51051  -0.50892
 Alpha  occ. eigenvalues --   -0.50697  -0.50619  -0.50269  -0.50179  -0.50026
 Alpha  occ. eigenvalues --   -0.49994  -0.49699  -0.49450  -0.49446  -0.49096
 Alpha  occ. eigenvalues --   -0.49039  -0.48849  -0.48526  -0.48461  -0.48420
 Alpha  occ. eigenvalues --   -0.48317  -0.48217  -0.48048  -0.47964  -0.47903
 Alpha  occ. eigenvalues --   -0.47863  -0.47457  -0.47380  -0.47292  -0.47233
 Alpha  occ. eigenvalues --   -0.46665  -0.46395  -0.46251  -0.46188  -0.46104
 Alpha  occ. eigenvalues --   -0.45804  -0.45693  -0.45682  -0.45538  -0.45498
 Alpha  occ. eigenvalues --   -0.45283  -0.45270  -0.45041  -0.44819  -0.44547
 Alpha  occ. eigenvalues --   -0.44387  -0.44097  -0.43920  -0.43895  -0.43733
 Alpha  occ. eigenvalues --   -0.43658  -0.43549  -0.43543  -0.43534  -0.43112
 Alpha  occ. eigenvalues --   -0.43009  -0.42837  -0.42768  -0.42612  -0.42562
 Alpha  occ. eigenvalues --   -0.42301  -0.42297  -0.41973  -0.41962  -0.41746
 Alpha  occ. eigenvalues --   -0.40903  -0.40323  -0.40046  -0.39948  -0.39478
 Alpha  occ. eigenvalues --   -0.39402  -0.39180  -0.39046  -0.38677  -0.38629
 Alpha  occ. eigenvalues --   -0.38595  -0.38581  -0.36842  -0.36725  -0.36267
 Alpha  occ. eigenvalues --   -0.36008  -0.35746  -0.35478  -0.33692  -0.33559
 Alpha  occ. eigenvalues --   -0.33302  -0.33202  -0.32957  -0.32820  -0.32440
 Alpha  occ. eigenvalues --   -0.32332  -0.31826  -0.31256  -0.26551  -0.26329
 Alpha  occ. eigenvalues --   -0.22935  -0.22809
 Alpha virt. eigenvalues --   -0.07435  -0.06663  -0.00339   0.00360   0.02436
 Alpha virt. eigenvalues --    0.02582   0.04463   0.04596   0.05184   0.06354
 Alpha virt. eigenvalues --    0.06366   0.07288   0.07469   0.07987   0.08377

 Mulliken charges:
               1
     1  Mg   0.971439
     2  C   -0.005959
     3  C   -0.072358
     4  C   -0.076280
     5  C   -0.099812
     6  N   -0.340822
     7  C   -0.009311
     8  C   -0.022524
     9  C   -0.153757
    10  C    0.065275
    11  C    0.013367
    12  C   -0.006026
    13  C   -0.111453
    14  H    0.047882
    15  N   -0.435356
    16  C    0.162703
    17  C   -0.218418
    18  C   -0.077959
    19  C    0.134422
    20  C    0.083599
    21  C    0.066606
    22  O   -0.256633
    23  C   -0.006786
    24  N   -0.468634
    25  C    0.098570
    26  C   -0.069417
    27  C   -0.080672
    28  C    0.140352
    29  C    0.040743
    30  C   -0.043637
    31  C   -0.003970
    32  N   -0.428260
    33  C    0.106831
    34  C   -0.178904
    35  C    0.017644
    36  C    0.137207
    37  C    0.064717
    38  C    0.098834
    39  O   -0.191665
    40  C   -0.124090
    41  C    0.249515
    42  O   -0.247099
    43  O   -0.362912
    44  C    0.139170
    45  H   -0.004156
    46  H    0.019934
    47  H   -0.001727
    48  H    0.044542
    49  H    0.034737
    50  H    0.042247
    51  H    0.043390
    52  H    0.037644
    53  H    0.035430
    54  H    0.054640
    55  H    0.050953
    56  H    0.052987
    57  H    0.065811
    58  H    0.049355
    59  H    0.025700
    60  H    0.051276
    61  H    0.045804
    62  H    0.060797
    63  H    0.028082
    64  H    0.023077
    65  H    0.041816
    66  H    0.042120
    67  H    0.041572
    68  H    0.022338
    69  H    0.020620
    70  H    0.035343
    71  H    0.017899
    72  H    0.051255
    73  H    0.062384
    74  H    0.045012
    75  H    0.051481
    76  H    0.073920
    77  H    0.057985
    78  H    0.059945
    79  H    0.069624
    80  Mg   0.956997
    81  C   -0.054879
    82  C   -0.098145
    83  C   -0.053105
    84  C   -0.094274
    85  N   -0.331897
    86  C   -0.023699
    87  C   -0.114954
    88  C   -0.115711
    89  C    0.039123
    90  C    0.060823
    91  C    0.025444
    92  C   -0.134586
    93  H    0.044803
    94  N   -0.518692
    95  C    0.210562
    96  C   -0.172926
    97  C   -0.106207
    98  C    0.151706
    99  C    0.083429
   100  C    0.062122
   101  O   -0.196850
   102  C   -0.021501
   103  N   -0.326812
   104  C    0.062332
   105  C   -0.102031
   106  C   -0.070091
   107  C    0.069782
   108  C    0.021099
   109  C   -0.022397
   110  C   -0.034778
   111  N   -0.428886
   112  C    0.127756
   113  C   -0.206662
   114  C   -0.016869
   115  C    0.192744
   116  C    0.097460
   117  C    0.099097
   118  O   -0.220901
   119  C   -0.021977
   120  C    0.288754
   121  O   -0.244364
   122  O   -0.362526
   123  C    0.139837
   124  H    0.001652
   125  H   -0.029220
   126  H   -0.001568
   127  H    0.017270
   128  H    0.023697
   129  H    0.042925
   130  H    0.038766
   131  H    0.055139
   132  H    0.032715
   133  H    0.055665
   134  H    0.047932
   135  H    0.058770
   136  H    0.056063
   137  H    0.011844
   138  H    0.051549
   139  H    0.070915
   140  H    0.042045
   141  H    0.069558
   142  H    0.033448
   143  H    0.024319
   144  H    0.046137
   145  H    0.041568
   146  H    0.029650
   147  H    0.043968
   148  H    0.016346
   149  H    0.044051
   150  H    0.026338
   151  H    0.041562
   152  H    0.036661
   153  H    0.058293
   154  H    0.066009
   155  H    0.061028
   156  H    0.042326
   157  H    0.050397
   158  H    0.054029
 Sum of Mulliken charges =  -0.00000

 Dipole moment (field-independent basis, Debye):
    X=              2.8544    Y=              2.4219    Z=              0.1427  Tot=              3.7461
 Quadrupole moment (field-independent basis, Debye-Ang):
   XX=           -462.9144   YY=           -532.1942   ZZ=           -493.2350
   XY=            -95.2834   XZ=            -12.0483   YZ=             43.1122

 Normal termination of Gaussian 16 at Mon Sep 20 04:36:08 2021.
