 Gaussian 16, Revision A.03,
 Gaussian 16:  ES64L-G16RevA.03 25-Dec-2016

 --------------------------------
 #p wB97XD/Def2SVP td=(nstates=5)
 --------------------------------

 --------------------------------
 TDDFT excited states in gaussian
 --------------------------------
 Symbolic Z-matrix:
 Charge =  0 Multiplicity = 1

                         Standard orientation:
 ---------------------------------------------------------------------
 Center     Atomic      Atomic             Coordinates (Angstroms)
 Number     Number       Type             X           Y           Z
 ---------------------------------------------------------------------
      1         12           0       11.758317   -0.022739    0.610490
      2          6           0        8.371443    0.162801   -0.389315
      3          6           0       12.491164    2.318519   -1.779180
      4          6           0       14.969432   -0.672667    1.094393
      5          6           0       10.905324   -2.736280    2.650234
      6          7           0       10.580275    0.991885   -1.023800
      7          6           0        9.187802    0.977411   -1.140204
      8          6           0        8.725588    2.116591   -2.081942
      9          6           0       10.077029    2.783060   -2.531236
     10          6           0       11.163109    2.032436   -1.711797
     11          6           0       10.296787    2.967363   -4.022626
     12          6           0        7.723704    3.125092   -1.498501
     13          6           0        6.426460    3.282411   -2.338438
     14          1           0        6.107557    4.692051   -2.784745
     15          7           0       13.485211    0.804339   -0.188257
     16          6           0       13.613584    1.729416   -1.182327
     17          6           0       15.008582    2.090694   -1.267415
     18          6           0       15.779482    1.100370   -0.520677
     19          6           0       14.712721    0.361603    0.137258
     20          6           0       15.554006    3.211041   -2.295939
     21          6           0       17.186342    0.689219   -0.603892
     22          8           0       17.744661   -0.138124    0.058706
     23          6           0       18.023525    1.391585   -1.668705
     24          7           0       12.784833   -1.661218    1.576507
     25          6           0       14.127954   -1.647529    1.681566
     26          6           0       14.600934   -2.676697    2.710849
     27          6           0       13.299792   -3.052858    3.437666
     28          6           0       12.246865   -2.430209    2.548273
     29          6           0       15.286736   -3.934972    2.005122
     30          6           0       13.299241   -2.341946    4.885468
     31          6           0       13.075029   -0.805085    4.881529
     32          7           0       10.010250   -1.063277    1.194930
     33          6           0        9.836257   -2.107821    2.020677
     34          6           0        8.432648   -2.418942    2.060862
     35          6           0        7.831410   -1.535037    1.184590
     36          6           0        8.831729   -0.747155    0.608578
     37          6           0        7.712786   -3.495421    2.850655
     38          6           0        6.513924   -1.225805    0.622535
     39          8           0        5.398656   -1.664128    0.654397
     40          6           0        6.792273   -0.060091   -0.362873
     41          6           0        6.319233   -0.536619   -1.686324
     42          8           0        6.717118   -1.570490   -2.161456
     43          8           0        5.338686    0.267117   -2.245307
     44          6           0        4.603567   -0.301002   -3.424538
     45          1           0       12.679364    3.204714   -2.389048
     46          1           0       16.008497   -0.850326    1.380776
     47          1           0       10.520530   -3.420024    3.409800
     48          1           0        8.308575    1.672736   -2.986168
     49          1           0       10.055865    3.826190   -2.215145
     50          1           0        9.610313    2.350858   -4.601062
     51          1           0       11.320006    2.770593   -4.343625
     52          1           0       10.011386    3.996622   -4.238586
     53          1           0        8.044046    4.161448   -1.391381
     54          1           0        7.436903    2.841571   -0.486103
     55          1           0        5.577603    2.796836   -1.857134
     56          1           0        6.574674    2.741135   -3.271998
     57          1           0       16.218271    3.874642   -1.742438
     58          1           0       14.805030    3.871107   -2.731853
     59          1           0       16.057749    2.885707   -3.206129
     60          1           0       17.996428    2.436309   -1.358114
     61          1           0       17.485671    1.219580   -2.600493
     62          1           0       19.072241    1.093906   -1.694081
     63          1           0       15.268132   -2.262016    3.467234
     64          1           0       13.011178   -4.098673    3.545220
     65          1           0       16.016599   -4.332523    2.710847
     66          1           0       15.830912   -3.778636    1.073094
     67          1           0       14.469198   -4.645385    1.883441
     68          1           0       14.201361   -2.552621    5.459500
     69          1           0       12.414540   -2.651952    5.441787
     70          1           0       13.244933   -0.304610    5.834229
     71          1           0       12.034812   -0.627737    4.607937
     72          1           0       13.717641   -0.382448    4.108488
     73          1           0        7.784305   -3.383175    3.932261
     74          1           0        8.229247   -4.410611    2.562360
     75          1           0        6.677227   -3.626535    2.536814
     76          1           0        6.132814    0.729997   -0.004188
     77          1           0        4.603367    0.584888   -4.059594
     78          1           0        3.577759   -0.586040   -3.191667
     79          1           0        5.002683   -1.163225   -3.958162
     80         12           0      -11.478004   -0.442903   -0.492538
     81          6           0      -10.667814    2.598699    1.084069
     82          6           0       -8.500581   -0.102670   -2.256908
     83          6           0      -11.900384   -3.508210   -1.724226
     84          6           0      -13.836099   -0.976933    1.996959
     85          7           0       -9.716765    1.043766   -0.407672
     86          6           0       -9.628578    2.280651    0.200792
     87          6           0       -8.560581    3.201377   -0.351188
     88          6           0       -7.879733    2.340166   -1.441598
     89          6           0       -8.701277    1.010539   -1.387871
     90          6           0       -7.870749    2.997307   -2.881265
     91          6           0       -7.487610    3.751945    0.690805
     92          6           0       -7.112630    2.854570    1.881482
     93          1           0       -5.743067    2.113889    1.845910
     94          7           0      -10.380698   -1.604704   -1.786306
     95          6           0       -9.231475   -1.274205   -2.446447
     96          6           0       -8.868126   -2.344256   -3.386101
     97          6           0       -9.862870   -3.360094   -3.247286
     98          6           0      -10.780275   -2.832044   -2.191307
     99          6           0       -7.656770   -2.282082   -4.308879
    100          6           0       -9.705434   -4.702526   -4.054263
    101          8           0       -8.708334   -4.839287   -4.749345
    102          6           0      -10.769774   -5.866793   -3.884833
    103          7           0      -12.587837   -2.025287    0.135723
    104          6           0      -12.733428   -3.173776   -0.639015
    105          6           0      -13.900488   -4.136329   -0.027547
    106          6           0      -14.343460   -3.269055    1.271621
    107          6           0      -13.540316   -2.018848    1.108904
    108          6           0      -15.054468   -4.397670   -1.039766
    109          6           0      -14.070710   -3.961732    2.675205
    110          6           0      -15.218813   -4.061749    3.691503
    111          7           0      -12.246895    0.630033    1.155709
    112          6           0      -13.189965    0.313451    2.099661
    113          6           0      -13.282950    1.430632    3.063097
    114          6           0      -12.360032    2.403796    2.594481
    115          6           0      -11.734757    1.819450    1.457726
    116          6           0      -14.148593    1.518229    4.289400
    117          6           0      -11.779738    3.715762    2.937759
    118          8           0      -12.070241    4.568596    3.789313
    119          6           0      -10.780595    3.959479    1.816546
    120          6           0      -11.127257    5.070865    0.996271
    121          8           0      -12.004692    4.989064    0.098094
    122          8           0      -10.349177    6.204108    1.305628
    123          6           0      -10.467145    7.378575    0.447443
    124          1           0       -7.675340    0.028512   -2.959457
    125          1           0      -12.162098   -4.447400   -2.215185
    126          1           0      -14.635838   -1.195816    2.706939
    127          1           0       -9.146893    4.027179   -0.752382
    128          1           0       -6.907290    2.068830   -1.032299
    129          1           0       -6.850005    3.270682   -3.148419
    130          1           0       -8.509329    3.878283   -2.811143
    131          1           0       -8.239414    2.303972   -3.637954
    132          1           0       -8.012127    4.620670    1.090693
    133          1           0       -6.604637    4.089436    0.147589
    134          1           0       -7.880808    2.098998    2.049471
    135          1           0       -7.156050    3.459463    2.786234
    136          1           0       -6.807047   -2.885118   -3.988774
    137          1           0       -7.427035   -1.252998   -4.585401
    138          1           0       -7.910858   -2.647108   -5.303861
    139          1           0      -11.754604   -5.407764   -3.974715
    140          1           0      -10.617798   -6.304174   -2.898428
    141          1           0      -10.571719   -6.742076   -4.503503
    142          1           0      -13.434983   -5.110665    0.118013
    143          1           0      -15.395647   -3.016437    1.138584
    144          1           0      -15.836541   -3.666176   -0.837420
    145          1           0      -15.402946   -5.430452   -1.027125
    146          1           0      -14.759678   -4.305447   -2.084956
    147          1           0      -13.209550   -3.452706    3.109287
    148          1           0      -13.803109   -4.971804    2.364996
    149          1           0      -14.854619   -4.222496    4.706579
    150          1           0      -15.770901   -4.928705    3.329317
    151          1           0      -15.741684   -3.109984    3.595113
    152          1           0      -14.308792    0.478345    4.572861
    153          1           0      -15.080384    1.913964    3.885387
    154          1           0      -13.788585    2.192222    5.067278
    155          1           0       -9.867985    4.146885    2.381910
    156          1           0      -11.427635    7.893724    0.431568
    157          1           0      -10.217323    7.114361   -0.580537
    158          1           0       -9.628825    8.027673    0.700937
 ---------------------------------------------------------------------

 SCF Done:  E(RwB97XD) =  -4070.61297489     A.U. after   20 cycles

 Excitation energies and oscillator strengths:

 Excited State   1:      Singlet-A      1.6440 eV  754.14 nm  f=0.4331  <S**2>=0.000
     309 -> 316       -0.18056
     311 -> 313        0.68179
     309 <- 316       -0.11638
 This state for optimization and/or second-order correction.
 Total Energy, E(TD-HF/TD-DFT) =  -4070.55255735
 Copying the excited state density for this state as the 1-particle RhoCI density.

 Excited State   2:      Singlet-A      1.6640 eV  745.11 nm  f=0.3479  <S**2>=0.000
     310 -> 315       -0.18604
     312 -> 314        0.67960
     310 <- 315       -0.11651

 Excited State   3:      Singlet-A      2.1359 eV  580.47 nm  f=0.1352  <S**2>=0.000
     309 -> 313        0.65463
     311 -> 316        0.25217

 Excited State   4:      Singlet-A      2.2613 eV  548.30 nm  f=0.0698  <S**2>=0.000
     310 -> 314        0.61503
     312 -> 315        0.33673

 Excited State   5:      Singlet-A      3.4595 eV  358.39 nm  f=0.0000  <S**2>=0.000
     312 -> 313        0.70690

 The electronic state is 1-A.
 Alpha  occ. eigenvalues --  -46.95891 -46.95240 -19.30993 -19.30389 -19.25168
 Alpha  occ. eigenvalues --  -19.24663 -19.24593 -19.24225 -19.24217 -19.23413
 Alpha  occ. eigenvalues --  -14.47247 -14.46731 -14.46610 -14.46523 -14.44515
 Alpha  occ. eigenvalues --  -14.44368 -14.43849 -14.43832 -10.43858 -10.42653
 Alpha  occ. eigenvalues --  -10.40456 -10.39345 -10.39190 -10.38314 -10.35930
 Alpha  occ. eigenvalues --  -10.35824 -10.35591 -10.35587 -10.35377 -10.34963
 Alpha  occ. eigenvalues --  -10.34800 -10.34781 -10.34768 -10.34572 -10.34536
 Alpha  occ. eigenvalues --  -10.34266 -10.34058 -10.33986 -10.33853 -10.33821
 Alpha  occ. eigenvalues --  -10.33375 -10.33322 -10.33203 -10.32899 -10.32832
 Alpha  occ. eigenvalues --  -10.32514 -10.32473 -10.32312 -10.32305 -10.32275
 Alpha  occ. eigenvalues --  -10.32217 -10.32113 -10.32085 -10.32063 -10.32061
 Alpha  occ. eigenvalues --  -10.31944 -10.31919 -10.31840 -10.31764 -10.31567
 Alpha  occ. eigenvalues --  -10.31559 -10.31370 -10.31305 -10.31205 -10.31085
 Alpha  occ. eigenvalues --  -10.30998 -10.30973 -10.30710 -10.30684 -10.30644
 Alpha  occ. eigenvalues --  -10.30620 -10.30580 -10.30500 -10.30442 -10.30403
 Alpha  occ. eigenvalues --  -10.30362 -10.30075 -10.29827 -10.29824 -10.29820
 Alpha  occ. eigenvalues --  -10.29661 -10.29464 -10.29368 -10.29183 -10.29110
 Alpha  occ. eigenvalues --  -10.28930  -3.21754  -3.21305  -1.95321  -1.94888
 Alpha  occ. eigenvalues --   -1.94850  -1.94714  -1.94445  -1.94280  -1.17862
 Alpha  occ. eigenvalues --   -1.17111  -1.13931  -1.13281  -1.12592  -1.11253
 Alpha  occ. eigenvalues --   -1.09841  -1.09186  -1.07215  -1.06340  -1.06106
 Alpha  occ. eigenvalues --   -1.05875  -1.05550  -1.04560  -1.04017  -1.03856
 Alpha  occ. eigenvalues --   -0.95087  -0.94356  -0.91013  -0.90779  -0.90693
 Alpha  occ. eigenvalues --   -0.90666  -0.90161  -0.89909  -0.89682  -0.88680
 Alpha  occ. eigenvalues --   -0.88517  -0.88280  -0.87968  -0.87490  -0.86416
 Alpha  occ. eigenvalues --   -0.86352  -0.85742  -0.85402  -0.84642  -0.84405
 Alpha  occ. eigenvalues --   -0.83525  -0.83159  -0.82907  -0.82832  -0.82120
 Alpha  occ. eigenvalues --   -0.81998  -0.80333  -0.80056  -0.79364  -0.79111
 Alpha  occ. eigenvalues --   -0.78717  -0.78649  -0.78407  -0.78092  -0.77165
 Alpha  occ. eigenvalues --   -0.76817  -0.75109  -0.74277  -0.73756  -0.73683
 Alpha  occ. eigenvalues --   -0.71291  -0.71212  -0.71185  -0.70826  -0.70323
 Alpha  occ. eigenvalues --   -0.70073  -0.69259  -0.68776  -0.67648  -0.67434
 Alpha  occ. eigenvalues --   -0.67294  -0.67151  -0.67142  -0.66538  -0.66463
 Alpha  occ. eigenvalues --   -0.66139  -0.64395  -0.64300  -0.62424  -0.62195
 Alpha  occ. eigenvalues --   -0.61702  -0.61559  -0.61295  -0.60984  -0.60743
 Alpha  occ. eigenvalues --   -0.60601  -0.60110  -0.59674  -0.59546  -0.59153
 Alpha  occ. eigenvalues --   -0.58065  -0.57991  -0.57492  -0.57351  -0.57168
 Alpha  occ. eigenvalues --   -0.56833  -0.56600  -0.56326  -0.56126  -0.56107
 Alpha  occ. eigenvalues --   -0.55676  -0.55377  -0.54945  -0.54940  -0.54611
 Alpha  occ. eigenvalues --   -0.54456  -0.54336  -0.54255  -0.54074  -0.54011
 Alpha  occ. eigenvalues --   -0.53842  -0.53478  -0.53434  -0.53222  -0.53111
 Alpha  occ. eigenvalues --   -0.52839  -0.52704  -0.52608  -0.52191  -0.52008
 Alpha  occ. eigenvalues --   -0.51898  -0.51754  -0.51446  -0.51308  -0.51274
 Alpha  occ. eigenvalues --   -0.51242  -0.51213  -0.51136  -0.50981  -0.50858
 Alpha  occ. eigenvalues --   -0.50437  -0.50353  -0.50220  -0.50199  -0.50027
 Alpha  occ. eigenvalues --   -0.49882  -0.49539  -0.49414  -0.49226  -0.49142
 Alpha  occ. eigenvalues --   -0.48965  -0.48505  -0.48380  -0.48331  -0.48123
 Alpha  occ. eigenvalues --   -0.48071  -0.48051  -0.48034  -0.47839  -0.47633
 Alpha  occ. eigenvalues --   -0.47496  -0.47244  -0.47242  -0.47057  -0.46850
 Alpha  occ. eigenvalues --   -0.46679  -0.46524  -0.46487  -0.46421  -0.46070
 Alpha  occ. eigenvalues --   -0.46004  -0.45825  -0.45603  -0.45368  -0.45293
 Alpha  occ. eigenvalues --   -0.45108  -0.45004  -0.44976  -0.44854  -0.44835
 Alpha  occ. eigenvalues --   -0.44598  -0.44400  -0.44311  -0.44306  -0.44133
 Alpha  occ. eigenvalues --   -0.44041  -0.44004  -0.43948  -0.43502  -0.43385
 Alpha  occ. eigenvalues --   -0.43302  -0.42911  -0.42807  -0.42441  -0.42236
 Alpha  occ. eigenvalues --   -0.42099  -0.41717  -0.41658  -0.41552  -0.40986
 Alpha  occ. eigenvalues --   -0.40784  -0.40251  -0.40030  -0.39822  -0.39546
 Alpha  occ. eigenvalues --   -0.39410  -0.39159  -0.39110  -0.38940  -0.38595
 Alpha  occ. eigenvalues --   -0.38368  -0.38229  -0.36693  -0.36412  -0.36277
 Alpha  occ. eigenvalues --   -0.36051  -0.35654  -0.35426  -0.33836  -0.33488
 Alpha  occ. eigenvalues --   -0.33252  -0.33186  -0.32974  -0.32564  -0.32394
 Alpha  occ. eigenvalues --   -0.32380  -0.32223  -0.31719  -0.26111  -0.26021
 Alpha  occ. eigenvalues --   -0.23400  -0.22589
 Alpha virt. eigenvalues --   -0.07540  -0.06458   0.00162   0.00476   0.02389
 Alpha virt. eigenvalues --    0.02588   0.04154   0.04573   0.04794   0.04965
 Alpha virt. eigenvalues --    0.05617   0.07542   0.07543   0.07885   0.07903

 Mulliken charges:
               1
     1  Mg   0.945906
     2  C   -0.040763
     3  C   -0.093402
     4  C   -0.065083
     5  C   -0.068504
     6  N   -0.371972
     7  C    0.009124
     8  C   -0.037788
     9  C   -0.103069
    10  C    0.075431
    11  C    0.021463
    12  C    0.015431
    13  C   -0.141851
    14  H    0.025353
    15  N   -0.445213
    16  C    0.174441
    17  C   -0.128431
    18  C   -0.081791
    19  C    0.149785
    20  C    0.018116
    21  C    0.023431
    22  O   -0.210394
    23  C   -0.005976
    24  N   -0.330978
    25  C    0.048441
    26  C   -0.089165
    27  C   -0.066724
    28  C    0.055797
    29  C    0.021700
    30  C   -0.041501
    31  C   -0.066459
    32  N   -0.411912
    33  C    0.080784
    34  C   -0.175876
    35  C   -0.085175
    36  C    0.178109
    37  C    0.073462
    38  C    0.147908
    39  O   -0.174160
    40  C   -0.066891
    41  C    0.252347
    42  O   -0.231105
    43  O   -0.382190
    44  C    0.126268
    45  H   -0.010042
    46  H    0.025882
    47  H   -0.003805
    48  H    0.040923
    49  H    0.033914
    50  H    0.030215
    51  H    0.043390
    52  H    0.031278
    53  H    0.042710
    54  H    0.033054
    55  H    0.067697
    56  H    0.036398
    57  H    0.048973
    58  H    0.026992
    59  H    0.053795
    60  H    0.041759
    61  H    0.056531
    62  H    0.049665
    63  H    0.042175
    64  H    0.039984
    65  H    0.039828
    66  H    0.057657
    67  H    0.036753
    68  H    0.045266
    69  H    0.027692
    70  H    0.048366
    71  H    0.041041
    72  H    0.039378
    73  H    0.051950
    74  H    0.041835
    75  H    0.060957
    76  H    0.062854
    77  H    0.052732
    78  H    0.061535
    79  H    0.073749
    80  Mg   0.986960
    81  C   -0.108738
    82  C   -0.085492
    83  C   -0.110608
    84  C   -0.096026
    85  N   -0.341909
    86  C   -0.038398
    87  C   -0.062343
    88  C   -0.058607
    89  C    0.026715
    90  C    0.027365
    91  C   -0.014828
    92  C   -0.119078
    93  H    0.037778
    94  N   -0.448695
    95  C    0.153605
    96  C   -0.157614
    97  C   -0.113639
    98  C    0.206923
    99  C    0.095389
   100  C    0.069715
   101  O   -0.226445
   102  C   -0.026115
   103  N   -0.421792
   104  C    0.079363
   105  C   -0.103190
   106  C   -0.075592
   107  C    0.085727
   108  C    0.009870
   109  C   -0.024318
   110  C   -0.038144
   111  N   -0.406482
   112  C    0.119676
   113  C   -0.211639
   114  C   -0.096423
   115  C    0.263378
   116  C    0.092504
   117  C    0.145512
   118  O   -0.218038
   119  C   -0.059646
   120  C    0.315924
   121  O   -0.277716
   122  O   -0.382205
   123  C    0.152307
   124  H   -0.009091
   125  H   -0.035047
   126  H   -0.015992
   127  H    0.049303
   128  H    0.045981
   129  H    0.043600
   130  H    0.040272
   131  H    0.046298
   132  H    0.037984
   133  H    0.048266
   134  H    0.063109
   135  H    0.056290
   136  H    0.065796
   137  H    0.022811
   138  H    0.043991
   139  H    0.073487
   140  H    0.061042
   141  H    0.052802
   142  H    0.044504
   143  H    0.036027
   144  H    0.037509
   145  H    0.038487
   146  H    0.031743
   147  H    0.048617
   148  H    0.025161
   149  H    0.051620
   150  H    0.041568
   151  H    0.037650
   152  H    0.034759
   153  H    0.054812
   154  H    0.066612
   155  H    0.059926
   156  H    0.069263
   157  H    0.033732
   158  H    0.052119
 Sum of Mulliken charges =  -0.00000

 Dipole moment (field-independent basis, Debye):
    X=              0.2598    Y=              1.3299    Z=             -1.2661  Tot=              1.8545
 Quadrupole moment (field-independent basis, Debye-Ang):
   XX=           -493.6258   YY=           -486.6767   ZZ=           -502.1856
   XY=             89.3719   XZ=             31.0205   YZ=            -45.0512

 Normal termination of Gaussian 16 at Sun Sep 19 16:26:45 2021.
