 Gaussian 16, Revision A.03,
 Gaussian 16:  ES64L-G16RevA.03 25-Dec-2016

 --------------------------------
 #p wB97XD/Def2SVP td=(nstates=5)
 --------------------------------

 --------------------------------
 TDDFT excited states in gaussian
 --------------------------------
 Symbolic Z-matrix:
 Charge =  0 Multiplicity = 1

                         Standard orientation:
 ---------------------------------------------------------------------
 Center     Atomic      Atomic             Coordinates (Angstroms)
 Number     Number       Type             X           Y           Z
 ---------------------------------------------------------------------
      1         12           0        8.801051    0.668006   -0.178717
      2          6           0        6.547264   -1.467460   -2.082707
      3          6           0        7.126228    3.359167   -1.498640
      4          6           0        9.718418    2.452963    2.496125
      5          6           0       10.430011   -2.105035    0.918129
      6          7           0        6.885438    0.877156   -1.495414
      7          6           0        6.182880   -0.151153   -2.221308
      8          6           0        5.215359    0.498913   -3.214331
      9          6           0        5.672843    1.985739   -3.284362
     10          6           0        6.643887    2.147507   -2.033443
     11          6           0        6.441052    2.358078   -4.639688
     12          6           0        3.749993    0.245673   -3.011999
     13          6           0        3.300825   -0.283962   -1.629674
     14          1           0        1.855937   -0.549157   -1.168777
     15          7           0        8.580194    2.704071    0.357050
     16          6           0        7.830449    3.640257   -0.320165
     17          6           0        8.030845    4.965095    0.345686
     18          6           0        8.675368    4.646962    1.538394
     19          6           0        8.993234    3.221274    1.569251
     20          6           0        7.459562    6.208554   -0.237933
     21          6           0        8.989319    5.669558    2.669060
     22          8           0        8.569671    6.805979    2.540500
     23          6           0        9.637580    5.324765    3.968792
     24          7           0        9.795067    0.127105    1.534285
     25          6           0       10.167785    1.133287    2.424835
     26          6           0       11.131926    0.598319    3.483668
     27          6           0       11.618602   -0.755646    2.851060
     28          6           0       10.617757   -0.908973    1.703570
     29          6           0       12.320922    1.492107    3.920843
     30          6           0       11.671567   -1.985136    3.813668
     31          6           0       13.129531   -2.464845    4.254737
     32          7           0        8.634651   -1.387226   -0.546302
     33          6           0        9.452063   -2.400796   -0.067678
     34          6           0        9.125417   -3.629749   -0.748224
     35          6           0        7.965251   -3.285998   -1.455345
     36          6           0        7.740466   -1.895421   -1.303543
     37          6           0        9.849724   -4.963707   -0.497312
     38          6           0        6.959775   -3.761521   -2.355402
     39          8           0        6.890540   -4.922539   -2.806683
     40          6           0        6.052487   -2.590290   -2.940381
     41          6           0        4.668391   -3.053195   -2.716491
     42          8           0        4.200346   -3.501021   -1.664402
     43          8           0        3.980667   -2.773066   -3.850528
     44          6           0        2.592002   -3.324207   -3.937346
     45          1           0        6.581352    4.212843   -1.905895
     46          1           0       10.022064    3.052801    3.356921
     47          1           0       11.053392   -2.956950    1.196250
     48          1           0        5.564856   -0.021529   -4.106044
     49          1           0        4.873186    2.688632   -3.050048
     50          1           0        5.754283    3.045740   -5.131621
     51          1           0        6.650985    1.446384   -5.199527
     52          1           0        7.340824    2.889610   -4.327838
     53          1           0        3.438426   -0.390954   -3.839889
     54          1           0        3.345216    1.240128   -3.202887
     55          1           0        3.732086    0.416966   -0.914264
     56          1           0        3.743414   -1.264697   -1.454246
     57          1           0        6.664556    6.517329    0.440205
     58          1           0        7.086650    5.975125   -1.234747
     59          1           0        8.252196    6.947744   -0.359014
     60          1           0        9.105425    4.661739    4.649866
     61          1           0        9.755904    6.189130    4.621564
     62          1           0       10.609261    4.977887    3.617484
     63          1           0       10.400106    0.487433    4.284658
     64          1           0       12.592818   -0.519635    2.422348
     65          1           0       12.150666    2.012175    4.864067
     66          1           0       12.469215    2.284247    3.187691
     67          1           0       13.211884    0.863450    3.937312
     68          1           0       11.151050   -2.868142    3.441856
     69          1           0       11.078388   -1.669273    4.671938
     70          1           0       12.993310   -2.639681    5.321671
     71          1           0       13.925033   -1.739938    4.081486
     72          1           0       13.379725   -3.320405    3.628437
     73          1           0        9.868698   -5.649992   -1.344213
     74          1           0        9.222866   -5.388814    0.285795
     75          1           0       10.911217   -4.788652   -0.323502
     76          1           0        6.292736   -2.442751   -3.994315
     77          1           0        2.146040   -3.025572   -4.886680
     78          1           0        1.961125   -2.931600   -3.139652
     79          1           0        2.771599   -4.396081   -3.866947
     80         12           0       -8.767800   -0.045257   -0.028470
     81          6           0       -6.017476   -2.170703    0.265340
     82          6           0       -7.099571    1.815958   -2.226143
     83          6           0      -10.844778    2.546774    0.779389
     84          6           0      -10.453993   -1.996433    2.313737
     85          7           0       -6.816865   -0.264729   -1.017465
     86          6           0       -5.908550   -1.195038   -0.749737
     87          6           0       -4.719646   -1.055134   -1.767912
     88          6           0       -5.045823    0.286621   -2.466502
     89          6           0       -6.394012    0.673842   -1.866221
     90          6           0       -4.024255    1.476759   -2.108029
     91          6           0       -4.577790   -2.249751   -2.816767
     92          6           0       -3.157701   -2.645447   -3.035123
     93          1           0       -2.616343   -2.742303   -4.453147
     94          7           0       -8.947076    1.898155   -0.667376
     95          6           0       -8.161043    2.491529   -1.619351
     96          6           0       -8.799547    3.747174   -2.037931
     97          6           0       -9.893211    3.948890   -1.150391
     98          6           0       -9.888132    2.777715   -0.258133
     99          6           0       -8.219621    4.668237   -3.158363
    100          6           0      -10.858310    5.168890   -1.055587
    101          8           0      -11.783381    5.254215   -0.255703
    102          6           0      -10.662092    6.285475   -2.010045
    103          7           0      -10.342006    0.252307    1.321552
    104          6           0      -11.045336    1.437867    1.555009
    105          6           0      -11.953633    1.265503    2.800483
    106          6           0      -12.243824   -0.299255    2.812778
    107          6           0      -10.924683   -0.684628    2.085132
    108          6           0      -11.340256    1.856141    4.088218
    109          6           0      -13.447035   -0.781108    2.053113
    110          6           0      -13.415797   -0.920609    0.560070
    111          7           0       -8.478117   -1.842068    0.947843
    112          6           0       -9.215739   -2.506423    1.900310
    113          6           0       -8.557747   -3.737601    2.343702
    114          6           0       -7.203992   -3.611393    1.792061
    115          6           0       -7.238633   -2.423186    0.963056
    116          6           0       -9.058463   -4.678850    3.314978
    117          6           0       -5.868049   -4.193333    1.748283
    118          8           0       -5.376943   -5.096271    2.314984
    119          6           0       -5.060623   -3.299603    0.669653
    120          6           0       -3.695229   -2.854385    1.129040
    121          8           0       -3.449735   -1.793863    1.696227
    122          8           0       -2.757847   -3.800192    0.715019
    123          6           0       -1.342064   -3.543139    1.035306
    124          1           0       -6.793813    2.434728   -3.072791
    125          1           0      -11.460415    3.422534    0.996752
    126          1           0      -11.075560   -2.609844    2.968798
    127          1           0       -3.761584   -0.920715   -1.265147
    128          1           0       -5.058242    0.273730   -3.556340
    129          1           0       -3.247620    1.464050   -2.873006
    130          1           0       -3.489237    1.364259   -1.165407
    131          1           0       -4.574006    2.416841   -2.167140
    132          1           0       -4.989809   -1.982965   -3.790134
    133          1           0       -5.127652   -3.158470   -2.571447
    134          1           0       -3.132321   -3.672833   -2.672925
    135          1           0       -2.386322   -2.104625   -2.487583
    136          1           0       -7.547624    5.359780   -2.650917
    137          1           0       -9.011243    5.152882   -3.730321
    138          1           0       -7.482691    4.180577   -3.797389
    139          1           0       -9.667501    6.643842   -2.275029
    140          1           0      -11.195280    7.167345   -1.655782
    141          1           0      -11.287722    6.118975   -2.887417
    142          1           0      -12.864947    1.793462    2.521124
    143          1           0      -12.320446   -0.698269    3.824065
    144          1           0      -11.267607    1.187445    4.945951
    145          1           0      -11.740517    2.834791    4.354000
    146          1           0      -10.300578    2.130222    3.910068
    147          1           0      -14.345493   -0.186500    2.213904
    148          1           0      -13.705313   -1.767805    2.437859
    149          1           0      -13.169655   -1.974737    0.433544
    150          1           0      -12.641178   -0.352821    0.044159
    151          1           0      -14.401629   -0.686749    0.156847
    152          1           0       -8.722566   -5.659006    2.976012
    153          1           0      -10.146428   -4.638296    3.268357
    154          1           0       -8.643308   -4.461701    4.298655
    155          1           0       -4.912487   -3.924911   -0.210783
    156          1           0       -1.290242   -3.350316    2.107204
    157          1           0       -0.985479   -2.648046    0.526320
    158          1           0       -0.590984   -4.297304    0.799747
 ---------------------------------------------------------------------

 SCF Done:  E(RwB97XD) =  -4070.58599388     A.U. after   19 cycles

 Excitation energies and oscillator strengths:

 Excited State   1:      Singlet-A      1.6090 eV  770.57 nm  f=0.1683  <S**2>=0.000
     309 -> 315        0.15240
     311 -> 313        0.65141
     312 -> 314        0.22232
     309 <- 315        0.10399
 This state for optimization and/or second-order correction.
 Total Energy, E(TD-HF/TD-DFT) =  -4070.52686419
 Copying the excited state density for this state as the 1-particle RhoCI density.

 Excited State   2:      Singlet-A      1.6269 eV  762.09 nm  f=0.5450  <S**2>=0.000
     310 -> 316        0.17318
     311 -> 313       -0.22323
     312 -> 314        0.64706
     310 <- 316        0.11118

 Excited State   3:      Singlet-A      2.1999 eV  563.59 nm  f=0.1119  <S**2>=0.000
     310 -> 314        0.62959
     312 -> 316       -0.30659

 Excited State   4:      Singlet-A      2.2294 eV  556.13 nm  f=0.0740  <S**2>=0.000
     309 -> 313        0.61623
     311 -> 315       -0.32482

 Excited State   5:      Singlet-A      3.3784 eV  366.99 nm  f=0.0000  <S**2>=0.000
     312 -> 313        0.70685

 The electronic state is 1-A.
 Alpha  occ. eigenvalues --  -46.95739 -46.94168 -19.30761 -19.29927 -19.24773
 Alpha  occ. eigenvalues --  -19.24602 -19.24554 -19.24195 -19.24103 -19.22197
 Alpha  occ. eigenvalues --  -14.47144 -14.46669 -14.46291 -14.45928 -14.44445
 Alpha  occ. eigenvalues --  -14.43803 -14.43701 -14.43357 -10.43287 -10.43157
 Alpha  occ. eigenvalues --  -10.39576 -10.39516 -10.39393 -10.37633 -10.36166
 Alpha  occ. eigenvalues --  -10.36078 -10.35823 -10.35272 -10.35090 -10.35054
 Alpha  occ. eigenvalues --  -10.35029 -10.35020 -10.34638 -10.34530 -10.34460
 Alpha  occ. eigenvalues --  -10.33921 -10.33776 -10.33714 -10.33425 -10.33271
 Alpha  occ. eigenvalues --  -10.33139 -10.33030 -10.32934 -10.32813 -10.32746
 Alpha  occ. eigenvalues --  -10.32609 -10.32504 -10.32490 -10.32290 -10.32280
 Alpha  occ. eigenvalues --  -10.32264 -10.32259 -10.32075 -10.32014 -10.31926
 Alpha  occ. eigenvalues --  -10.31859 -10.31836 -10.31825 -10.31751 -10.31620
 Alpha  occ. eigenvalues --  -10.31529 -10.31468 -10.31401 -10.31351 -10.31312
 Alpha  occ. eigenvalues --  -10.31149 -10.31051 -10.30917 -10.30867 -10.30788
 Alpha  occ. eigenvalues --  -10.30741 -10.30646 -10.30302 -10.30248 -10.30095
 Alpha  occ. eigenvalues --  -10.30078 -10.30065 -10.29934 -10.29869 -10.29715
 Alpha  occ. eigenvalues --  -10.29602 -10.29400 -10.29285 -10.29283 -10.28286
 Alpha  occ. eigenvalues --  -10.28033  -3.21679  -3.20288  -1.95236  -1.94823
 Alpha  occ. eigenvalues --   -1.94629  -1.93886  -1.93392  -1.93291  -1.18427
 Alpha  occ. eigenvalues --   -1.17022  -1.15065  -1.13003  -1.12268  -1.09800
 Alpha  occ. eigenvalues --   -1.09361  -1.08999  -1.07075  -1.06910  -1.06111
 Alpha  occ. eigenvalues --   -1.05477  -1.05006  -1.04795  -1.04079  -1.02461
 Alpha  occ. eigenvalues --   -0.93994  -0.93725  -0.91328  -0.90974  -0.90805
 Alpha  occ. eigenvalues --   -0.90626  -0.90407  -0.89849  -0.89038  -0.88874
 Alpha  occ. eigenvalues --   -0.88733  -0.88726  -0.88126  -0.88078  -0.86394
 Alpha  occ. eigenvalues --   -0.85977  -0.85697  -0.85372  -0.84741  -0.84349
 Alpha  occ. eigenvalues --   -0.84320  -0.83691  -0.83044  -0.82806  -0.82218
 Alpha  occ. eigenvalues --   -0.82159  -0.80103  -0.80100  -0.79722  -0.79049
 Alpha  occ. eigenvalues --   -0.78550  -0.78537  -0.78030  -0.77580  -0.77312
 Alpha  occ. eigenvalues --   -0.76687  -0.75090  -0.74150  -0.73783  -0.73324
 Alpha  occ. eigenvalues --   -0.71616  -0.71099  -0.71053  -0.70384  -0.69694
 Alpha  occ. eigenvalues --   -0.69627  -0.69008  -0.68629  -0.68202  -0.67536
 Alpha  occ. eigenvalues --   -0.67474  -0.66791  -0.66510  -0.66078  -0.65930
 Alpha  occ. eigenvalues --   -0.65634  -0.64260  -0.63589  -0.62041  -0.61736
 Alpha  occ. eigenvalues --   -0.61452  -0.61208  -0.61120  -0.60752  -0.60083
 Alpha  occ. eigenvalues --   -0.60003  -0.59615  -0.59608  -0.59281  -0.59031
 Alpha  occ. eigenvalues --   -0.58854  -0.58326  -0.57694  -0.57347  -0.57234
 Alpha  occ. eigenvalues --   -0.57137  -0.56658  -0.56612  -0.56313  -0.55813
 Alpha  occ. eigenvalues --   -0.55766  -0.55495  -0.55337  -0.55186  -0.54800
 Alpha  occ. eigenvalues --   -0.54736  -0.54625  -0.54337  -0.54319  -0.53951
 Alpha  occ. eigenvalues --   -0.53865  -0.53613  -0.53456  -0.53455  -0.53228
 Alpha  occ. eigenvalues --   -0.53194  -0.53094  -0.53090  -0.52699  -0.52246
 Alpha  occ. eigenvalues --   -0.51991  -0.51956  -0.51859  -0.51664  -0.51595
 Alpha  occ. eigenvalues --   -0.51360  -0.51336  -0.50951  -0.50919  -0.50841
 Alpha  occ. eigenvalues --   -0.50427  -0.50419  -0.50153  -0.50128  -0.49777
 Alpha  occ. eigenvalues --   -0.49777  -0.49634  -0.49612  -0.49196  -0.48963
 Alpha  occ. eigenvalues --   -0.48855  -0.48805  -0.48609  -0.48577  -0.48439
 Alpha  occ. eigenvalues --   -0.48262  -0.48108  -0.47933  -0.47742  -0.47636
 Alpha  occ. eigenvalues --   -0.47514  -0.47332  -0.47211  -0.47050  -0.46904
 Alpha  occ. eigenvalues --   -0.46791  -0.46434  -0.46398  -0.46182  -0.46045
 Alpha  occ. eigenvalues --   -0.45971  -0.45967  -0.45554  -0.45495  -0.45404
 Alpha  occ. eigenvalues --   -0.45171  -0.45100  -0.44932  -0.44779  -0.44621
 Alpha  occ. eigenvalues --   -0.44571  -0.44511  -0.44315  -0.44156  -0.44018
 Alpha  occ. eigenvalues --   -0.43804  -0.43700  -0.43366  -0.43293  -0.43220
 Alpha  occ. eigenvalues --   -0.43023  -0.42914  -0.42896  -0.42287  -0.42026
 Alpha  occ. eigenvalues --   -0.41913  -0.41368  -0.41053  -0.40953  -0.40611
 Alpha  occ. eigenvalues --   -0.40546  -0.39874  -0.39507  -0.39445  -0.39343
 Alpha  occ. eigenvalues --   -0.38887  -0.38799  -0.38575  -0.38401  -0.38267
 Alpha  occ. eigenvalues --   -0.37990  -0.37771  -0.36505  -0.36202  -0.36158
 Alpha  occ. eigenvalues --   -0.35915  -0.35015  -0.34950  -0.33834  -0.33304
 Alpha  occ. eigenvalues --   -0.33222  -0.33176  -0.32987  -0.32401  -0.32091
 Alpha  occ. eigenvalues --   -0.31658  -0.31633  -0.31255  -0.26491  -0.25802
 Alpha  occ. eigenvalues --   -0.22664  -0.22490
 Alpha virt. eigenvalues --   -0.07004  -0.06707   0.00048   0.00636   0.02584
 Alpha virt. eigenvalues --    0.03063   0.04395   0.04551   0.04649   0.06000
 Alpha virt. eigenvalues --    0.06882   0.06956   0.07645   0.07989   0.08161

 Mulliken charges:
               1
     1  Mg   0.954357
     2  C   -0.033492
     3  C   -0.082941
     4  C   -0.079353
     5  C   -0.082716
     6  N   -0.368402
     7  C   -0.054170
     8  C   -0.005081
     9  C   -0.142592
    10  C    0.044727
    11  C    0.037121
    12  C    0.030634
    13  C   -0.099738
    14  H    0.031990
    15  N   -0.471042
    16  C    0.145110
    17  C   -0.159798
    18  C   -0.079357
    19  C    0.169833
    20  C    0.104887
    21  C    0.036296
    22  O   -0.227324
    23  C    0.001914
    24  N   -0.386303
    25  C    0.091565
    26  C   -0.126960
    27  C   -0.015503
    28  C    0.025837
    29  C    0.031598
    30  C   -0.022428
    31  C   -0.061805
    32  N   -0.378176
    33  C    0.092148
    34  C   -0.180360
    35  C   -0.010997
    36  C    0.119096
    37  C    0.073316
    38  C    0.083559
    39  O   -0.250474
    40  C   -0.041400
    41  C    0.265714
    42  O   -0.262404
    43  O   -0.368265
    44  C    0.139536
    45  H    0.004029
    46  H   -0.041374
    47  H   -0.008706
    48  H    0.025929
    49  H    0.039907
    50  H    0.048460
    51  H    0.050527
    52  H    0.041171
    53  H    0.031500
    54  H    0.017628
    55  H    0.048668
    56  H    0.071473
    57  H    0.073838
    58  H    0.022010
    59  H    0.061052
    60  H    0.077008
    61  H    0.049198
    62  H    0.056528
    63  H    0.052548
    64  H    0.031624
    65  H    0.041778
    66  H    0.036500
    67  H    0.042552
    68  H    0.044510
    69  H    0.024803
    70  H    0.051416
    71  H    0.034978
    72  H    0.047455
    73  H    0.051740
    74  H    0.071858
    75  H    0.038939
    76  H    0.074495
    77  H    0.060371
    78  H    0.064310
    79  H    0.073317
    80  Mg   0.983947
    81  C    0.017105
    82  C   -0.090062
    83  C   -0.082581
    84  C   -0.106165
    85  N   -0.316756
    86  C    0.009699
    87  C   -0.040760
    88  C   -0.129004
    89  C    0.104199
    90  C   -0.004609
    91  C    0.027859
    92  C   -0.146123
    93  H    0.021079
    94  N   -0.452974
    95  C    0.111659
    96  C   -0.155841
    97  C   -0.103537
    98  C    0.123473
    99  C    0.045844
   100  C    0.084695
   101  O   -0.233224
   102  C   -0.023304
   103  N   -0.364542
   104  C    0.051392
   105  C   -0.053067
   106  C   -0.060069
   107  C    0.046812
   108  C    0.044662
   109  C   -0.025374
   110  C   -0.034977
   111  N   -0.448313
   112  C    0.163802
   113  C   -0.168923
   114  C   -0.084058
   115  C    0.117421
   116  C    0.077048
   117  C    0.137820
   118  O   -0.141176
   119  C   -0.138798
   120  C    0.283265
   121  O   -0.249076
   122  O   -0.383942
   123  C    0.145196
   124  H   -0.013638
   125  H    0.021429
   126  H   -0.009742
   127  H    0.044210
   128  H    0.043234
   129  H    0.030259
   130  H    0.052376
   131  H    0.037796
   132  H    0.037610
   133  H    0.037548
   134  H    0.055342
   135  H    0.051757
   136  H    0.057461
   137  H    0.063261
   138  H    0.032247
   139  H    0.059172
   140  H    0.038466
   141  H    0.062367
   142  H    0.024193
   143  H    0.023842
   144  H    0.039122
   145  H    0.044311
   146  H    0.032222
   147  H    0.026574
   148  H    0.023415
   149  H    0.026981
   150  H    0.051761
   151  H    0.039989
   152  H    0.057617
   153  H    0.036450
   154  H    0.074815
   155  H    0.075677
   156  H    0.054529
   157  H    0.040196
   158  H    0.067236
 Sum of Mulliken charges =  -0.00000

 Dipole moment (field-independent basis, Debye):
    X=              3.5913    Y=              3.8452    Z=             -3.0868  Tot=              6.1001
 Quadrupole moment (field-independent basis, Debye-Ang):
   XX=           -415.3611   YY=           -557.9244   ZZ=           -474.4216
   XY=             25.9360   XZ=             37.1140   YZ=            -24.4283

 Normal termination of Gaussian 16 at Sat Sep 18 14:06:51 2021.
