 Gaussian 16, Revision A.03,
 Gaussian 16:  ES64L-G16RevA.03 25-Dec-2016

 --------------------------------
 #p wB97XD/Def2SVP td=(nstates=5)
 --------------------------------

 --------------------------------
 TDDFT excited states in gaussian
 --------------------------------
 Symbolic Z-matrix:
 Charge =  0 Multiplicity = 1

                         Standard orientation:
 ---------------------------------------------------------------------
 Center     Atomic      Atomic             Coordinates (Angstroms)
 Number     Number       Type             X           Y           Z
 ---------------------------------------------------------------------
      1         12           0      -26.718792   -0.597207   -0.039187
      2          6           0      -25.430795    2.296597   -1.537322
      3          6           0      -27.053425    1.237158    2.970649
      4          6           0      -27.640715   -3.462707    1.531944
      5          6           0      -25.657432   -2.406877   -2.781383
      6          7           0      -26.439304    1.525757    0.532498
      7          6           0      -26.063801    2.546881   -0.345170
      8          6           0      -26.432856    3.934780    0.292172
      9          6           0      -26.842306    3.547957    1.718023
     10          6           0      -26.729699    1.984422    1.773951
     11          6           0      -25.908733    4.230978    2.753474
     12          6           0      -27.507499    4.592983   -0.564512
     13          6           0      -27.578444    6.111177   -0.580112
     14          1           0      -26.788056    6.891416    0.494554
     15          7           0      -27.289403   -1.095357    1.955730
     16          6           0      -27.332712   -0.206165    3.046386
     17          6           0      -27.720833   -0.904206    4.259441
     18          6           0      -27.979328   -2.285241    3.899506
     19          6           0      -27.617203   -2.330406    2.418006
     20          6           0      -27.996016   -0.216351    5.602710
     21          6           0      -28.479270   -3.451401    4.730390
     22          8           0      -28.648689   -4.548723    4.215722
     23          6           0      -28.957191   -3.188404    6.106684
     24          7           0      -26.706245   -2.649734   -0.616355
     25          6           0      -27.226006   -3.623150    0.182219
     26          6           0      -27.294714   -4.960649   -0.600344
     27          6           0      -26.714222   -4.621521   -2.027920
     28          6           0      -26.424500   -3.105374   -1.880237
     29          6           0      -26.514387   -6.058052    0.145252
     30          6           0      -27.696385   -4.857283   -3.206005
     31          6           0      -27.337519   -6.165786   -3.903393
     32          7           0      -25.640613   -0.249695   -1.798281
     33          6           0      -25.206801   -1.055406   -2.797591
     34          6           0      -24.309913   -0.247510   -3.659369
     35          6           0      -24.445071    1.057600   -3.286044
     36          6           0      -25.236662    0.990558   -2.111102
     37          6           0      -23.595108   -0.857684   -4.853303
     38          6           0      -24.109872    2.457343   -3.579826
     39          8           0      -23.403930    2.913486   -4.471130
     40          6           0      -24.812577    3.271127   -2.510372
     41          6           0      -23.783151    4.165145   -1.957074
     42          8           0      -22.873236    3.934966   -1.149108
     43          8           0      -23.933586    5.394355   -2.565732
     44          6           0      -22.970646    6.415824   -2.215767
     45          1           0      -27.218793    1.854763    3.855648
     46          1           0      -28.049436   -4.312823    2.082193
     47          1           0      -25.276289   -3.062314   -3.567346
     48          1           0      -25.463916    4.433463    0.247061
     49          1           0      -27.808736    4.022526    1.887740
     50          1           0      -25.244869    3.553539    3.290829
     51          1           0      -26.549528    4.534347    3.580908
     52          1           0      -25.282603    4.999238    2.300197
     53          1           0      -28.434793    4.124228   -0.233725
     54          1           0      -27.410139    4.232014   -1.587711
     55          1           0      -28.625614    6.409600   -0.554558
     56          1           0      -27.202760    6.327463   -1.580821
     57          1           0      -27.722925    0.838849    5.623581
     58          1           0      -27.435403   -0.713741    6.395302
     59          1           0      -29.038481   -0.384435    5.870520
     60          1           0      -29.843273   -2.555597    6.050687
     61          1           0      -28.137709   -2.875595    6.753710
     62          1           0      -29.337473   -4.092271    6.582717
     63          1           0      -28.337059   -5.278290   -0.614423
     64          1           0      -25.771954   -5.167894   -2.086401
     65          1           0      -25.711997   -6.547022   -0.406419
     66          1           0      -27.319588   -6.780918    0.274708
     67          1           0      -26.001765   -5.719179    1.045083
     68          1           0      -27.491478   -4.154341   -4.013658
     69          1           0      -28.744903   -4.873159   -2.907980
     70          1           0      -28.297724   -6.670335   -4.009709
     71          1           0      -26.774627   -6.863807   -3.284173
     72          1           0      -26.848730   -6.061900   -4.872501
     73          1           0      -23.599201   -1.947282   -4.892444
     74          1           0      -22.558159   -0.533361   -4.931745
     75          1           0      -24.171313   -0.623482   -5.749116
     76          1           0      -25.619241    3.822653   -2.992200
     77          1           0      -21.976232    5.986020   -2.338921
     78          1           0      -23.069070    6.774683   -1.191016
     79          1           0      -22.969985    7.093740   -3.068632
     80         12           0       26.774044   -0.557393    0.093380
     81          6           0       24.532486    2.035620    0.943043
     82          6           0       28.767888    1.704961   -1.514258
     83          6           0       28.417436   -3.101487   -1.209285
     84          6           0       24.390495   -2.858850    1.361385
     85          7           0       26.689587    1.651560   -0.130929
     86          6           0       25.724310    2.441201    0.296713
     87          6           0       26.221000    3.874458    0.237790
     88          6           0       27.311536    3.830743   -0.900891
     89          6           0       27.631630    2.289570   -0.878450
     90          6           0       26.762983    4.441335   -2.246260
     91          6           0       26.886133    4.327817    1.562754
     92          6           0       26.973227    5.901152    1.788445
     93          1           0       26.464653    6.898715    0.744234
     94          7           0       28.458902   -0.676394   -0.992794
     95          6           0       29.234408    0.378265   -1.539072
     96          6           0       30.429132   -0.212715   -2.185981
     97          6           0       30.274111   -1.645300   -2.163764
     98          6           0       29.014799   -1.914564   -1.436287
     99          6           0       31.552300    0.589393   -2.742066
    100          6           0       31.166599   -2.829613   -2.703943
    101          8           0       30.919916   -4.028184   -2.512630
    102          6           0       32.308220   -2.498171   -3.620776
    103          7           0       26.388495   -2.708358   -0.022247
    104          6           0       27.240577   -3.537388   -0.564299
    105          6           0       26.886353   -4.992950   -0.441917
    106          6           0       25.559215   -4.937403    0.393502
    107          6           0       25.462975   -3.407072    0.690118
    108          6           0       26.871967   -5.692067   -1.804465
    109          6           0       25.583294   -5.747935    1.683309
    110          6           0       24.271375   -6.530417    2.049099
    111          7           0       24.835846   -0.511130    1.068013
    112          6           0       24.017049   -1.545521    1.561937
    113          6           0       22.939717   -0.966584    2.288395
    114          6           0       22.971800    0.422648    1.945170
    115          6           0       24.140601    0.648970    1.263439
    116          6           0       22.027491   -1.695601    3.232758
    117          6           0       22.414509    1.784707    2.125905
    118          8           0       21.413229    2.147024    2.707819
    119          6           0       23.298580    2.794697    1.250620
    120          6           0       23.321281    4.152301    1.873107
    121          8           0       23.747900    4.436109    2.953439
    122          8           0       22.670318    5.098894    1.060051
    123          6           0       22.000587    6.218570    1.755200
    124          1           0       29.343026    2.327056   -2.203840
    125          1           0       28.959538   -4.012054   -1.470506
    126          1           0       23.715993   -3.592414    1.808078
    127          1           0       25.299277    4.444644    0.122444
    128          1           0       28.205815    4.388784   -0.621446
    129          1           0       25.727761    4.757568   -2.122594
    130          1           0       26.702729    3.577518   -2.908332
    131          1           0       27.312985    5.308454   -2.612128
    132          1           0       27.899409    3.928638    1.501908
    133          1           0       26.347289    3.838496    2.374040
    134          1           0       28.030894    6.088546    1.979868
    135          1           0       26.460734    6.071543    2.735552
    136          1           0       31.599178    1.656880   -2.529750
    137          1           0       31.573124    0.572677   -3.831379
    138          1           0       32.437161    0.136320   -2.294329
    139          1           0       33.240115   -2.267376   -3.104849
    140          1           0       31.866681   -1.651706   -4.148180
    141          1           0       32.405309   -3.348280   -4.295488
    142          1           0       27.708101   -5.369540    0.167053
    143          1           0       24.676135   -5.259766   -0.156808
    144          1           0       26.678535   -5.022199   -2.642863
    145          1           0       26.033927   -6.386373   -1.757876
    146          1           0       27.800241   -6.223708   -2.014825
    147          1           0       25.802371   -5.113355    2.541870
    148          1           0       26.496743   -6.337109    1.603552
    149          1           0       23.451615   -6.270354    1.379643
    150          1           0       24.023802   -6.185701    3.052863
    151          1           0       24.303134   -7.619561    2.093123
    152          1           0       21.703347   -2.577775    2.680458
    153          1           0       21.142936   -1.134212    3.534154
    154          1           0       22.592431   -2.048344    4.096198
    155          1           0       22.763771    3.007323    0.325500
    156          1           0       22.508796    7.139330    1.468416
    157          1           0       21.997811    6.091889    2.838370
    158          1           0       20.977570    6.215142    1.379086
 ---------------------------------------------------------------------

 SCF Done:  E(RwB97XD) =  -4070.59280339     A.U. after   19 cycles

 Excitation energies and oscillator strengths:

 Excited State   1:      Singlet-A      1.6258 eV  762.61 nm  f=0.3932  <S**2>=0.000
     309 -> 316       -0.17888
     312 -> 313        0.68467
     309 <- 316       -0.11343
 This state for optimization and/or second-order correction.
 Total Energy, E(TD-HF/TD-DFT) =  -4070.53305668
 Copying the excited state density for this state as the 1-particle RhoCI density.

 Excited State   2:      Singlet-A      1.7664 eV  701.90 nm  f=0.3726  <S**2>=0.000
     310 -> 315        0.19125
     311 -> 314        0.67833
     310 <- 315        0.11016

 Excited State   3:      Singlet-A      2.1196 eV  584.94 nm  f=0.0959  <S**2>=0.000
     310 -> 314        0.63986
     311 -> 315       -0.27486

 Excited State   4:      Singlet-A      2.1420 eV  578.83 nm  f=0.1184  <S**2>=0.000
     309 -> 313        0.64311
     312 -> 316        0.27656

 Excited State   5:      Singlet-A      3.2681 eV  379.37 nm  f=0.0031  <S**2>=0.000
     304 -> 314       -0.16736
     307 -> 314        0.15661
     308 -> 314        0.64097
     308 -> 317        0.10646

 The electronic state is 1-A.
 Alpha  occ. eigenvalues --  -46.95435 -46.94850 -19.29653 -19.28447 -19.25405
 Alpha  occ. eigenvalues --  -19.24708 -19.24427 -19.24294 -19.24264 -19.23302
 Alpha  occ. eigenvalues --  -14.46770 -14.46503 -14.46313 -14.46297 -14.44741
 Alpha  occ. eigenvalues --  -14.44417 -14.43731 -14.42545 -10.43183 -10.42342
 Alpha  occ. eigenvalues --  -10.40841 -10.39466 -10.39363 -10.38740 -10.36319
 Alpha  occ. eigenvalues --  -10.36062 -10.35707 -10.35294 -10.35255 -10.35095
 Alpha  occ. eigenvalues --  -10.34936 -10.34881 -10.34662 -10.34642 -10.34630
 Alpha  occ. eigenvalues --  -10.34560 -10.34041 -10.34023 -10.33762 -10.33643
 Alpha  occ. eigenvalues --  -10.33414 -10.33276 -10.32986 -10.32518 -10.32399
 Alpha  occ. eigenvalues --  -10.32272 -10.32237 -10.32226 -10.32156 -10.31966
 Alpha  occ. eigenvalues --  -10.31962 -10.31931 -10.31809 -10.31791 -10.31790
 Alpha  occ. eigenvalues --  -10.31742 -10.31717 -10.31637 -10.31633 -10.31623
 Alpha  occ. eigenvalues --  -10.31594 -10.31590 -10.31579 -10.31422 -10.31371
 Alpha  occ. eigenvalues --  -10.30803 -10.30725 -10.30697 -10.30505 -10.30380
 Alpha  occ. eigenvalues --  -10.30313 -10.30189 -10.30119 -10.30106 -10.29936
 Alpha  occ. eigenvalues --  -10.29898 -10.29697 -10.29673 -10.29519 -10.29386
 Alpha  occ. eigenvalues --  -10.29381 -10.29305 -10.29107 -10.28788 -10.28734
 Alpha  occ. eigenvalues --  -10.28351  -3.21286  -3.20761  -1.94886  -1.94364
 Alpha  occ. eigenvalues --   -1.94363  -1.94285  -1.93883  -1.93723  -1.17926
 Alpha  occ. eigenvalues --   -1.17286  -1.12761  -1.12701  -1.12190  -1.11679
 Alpha  occ. eigenvalues --   -1.09147  -1.09022  -1.07084  -1.06492  -1.06280
 Alpha  occ. eigenvalues --   -1.04776  -1.04622  -1.03681  -1.03637  -1.03057
 Alpha  occ. eigenvalues --   -0.95305  -0.93711  -0.91137  -0.91098  -0.90830
 Alpha  occ. eigenvalues --   -0.90612  -0.89889  -0.89650  -0.89519  -0.89160
 Alpha  occ. eigenvalues --   -0.89020  -0.88782  -0.87496  -0.87294  -0.86233
 Alpha  occ. eigenvalues --   -0.85888  -0.85733  -0.85559  -0.84824  -0.84603
 Alpha  occ. eigenvalues --   -0.84318  -0.83579  -0.82818  -0.82553  -0.81973
 Alpha  occ. eigenvalues --   -0.81780  -0.80600  -0.80080  -0.79169  -0.79062
 Alpha  occ. eigenvalues --   -0.78688  -0.78262  -0.77835  -0.77270  -0.77068
 Alpha  occ. eigenvalues --   -0.76467  -0.74492  -0.74435  -0.73665  -0.72969
 Alpha  occ. eigenvalues --   -0.71726  -0.71019  -0.70584  -0.70383  -0.69852
 Alpha  occ. eigenvalues --   -0.69210  -0.69064  -0.68617  -0.67927  -0.67307
 Alpha  occ. eigenvalues --   -0.67087  -0.66811  -0.66630  -0.66528  -0.65867
 Alpha  occ. eigenvalues --   -0.65419  -0.64087  -0.62995  -0.62247  -0.62136
 Alpha  occ. eigenvalues --   -0.61581  -0.61066  -0.61037  -0.60729  -0.60552
 Alpha  occ. eigenvalues --   -0.60319  -0.59994  -0.59627  -0.59513  -0.58751
 Alpha  occ. eigenvalues --   -0.58445  -0.57832  -0.57696  -0.57379  -0.57000
 Alpha  occ. eigenvalues --   -0.56993  -0.56700  -0.56129  -0.55656  -0.55545
 Alpha  occ. eigenvalues --   -0.55473  -0.55300  -0.55222  -0.55113  -0.55036
 Alpha  occ. eigenvalues --   -0.54835  -0.54736  -0.54733  -0.54115  -0.53902
 Alpha  occ. eigenvalues --   -0.53791  -0.53649  -0.53643  -0.53297  -0.53253
 Alpha  occ. eigenvalues --   -0.53141  -0.52839  -0.52677  -0.52427  -0.52305
 Alpha  occ. eigenvalues --   -0.52046  -0.51916  -0.51814  -0.51535  -0.51202
 Alpha  occ. eigenvalues --   -0.51176  -0.51157  -0.50938  -0.50813  -0.50618
 Alpha  occ. eigenvalues --   -0.50542  -0.50222  -0.50054  -0.49919  -0.49771
 Alpha  occ. eigenvalues --   -0.49730  -0.49452  -0.49326  -0.49205  -0.49089
 Alpha  occ. eigenvalues --   -0.48909  -0.48624  -0.48531  -0.48416  -0.48286
 Alpha  occ. eigenvalues --   -0.48061  -0.47938  -0.47805  -0.47473  -0.47322
 Alpha  occ. eigenvalues --   -0.47146  -0.46931  -0.46880  -0.46737  -0.46680
 Alpha  occ. eigenvalues --   -0.46363  -0.46295  -0.46139  -0.46114  -0.45864
 Alpha  occ. eigenvalues --   -0.45621  -0.45509  -0.45339  -0.45301  -0.45122
 Alpha  occ. eigenvalues --   -0.44992  -0.44955  -0.44782  -0.44690  -0.44599
 Alpha  occ. eigenvalues --   -0.44510  -0.44231  -0.44188  -0.43914  -0.43733
 Alpha  occ. eigenvalues --   -0.43590  -0.43436  -0.43410  -0.43241  -0.43174
 Alpha  occ. eigenvalues --   -0.43038  -0.42976  -0.42878  -0.42292  -0.41999
 Alpha  occ. eigenvalues --   -0.41868  -0.41849  -0.40947  -0.40802  -0.40668
 Alpha  occ. eigenvalues --   -0.40328  -0.39893  -0.39867  -0.39691  -0.39656
 Alpha  occ. eigenvalues --   -0.39576  -0.38592  -0.38354  -0.38285  -0.37745
 Alpha  occ. eigenvalues --   -0.37650  -0.37324  -0.36281  -0.36193  -0.36033
 Alpha  occ. eigenvalues --   -0.35760  -0.35188  -0.34856  -0.33900  -0.33538
 Alpha  occ. eigenvalues --   -0.33490  -0.33388  -0.33369  -0.32488  -0.32440
 Alpha  occ. eigenvalues --   -0.32155  -0.32005  -0.30367  -0.25709  -0.25643
 Alpha  occ. eigenvalues --   -0.23132  -0.22721
 Alpha virt. eigenvalues --   -0.06999  -0.06794  -0.00073   0.00479   0.01909
 Alpha virt. eigenvalues --    0.02251   0.04007   0.04907   0.05549   0.06058
 Alpha virt. eigenvalues --    0.07011   0.07405   0.07804   0.08133   0.08233

 Mulliken charges:
               1
     1  Mg   0.955519
     2  C   -0.016244
     3  C   -0.072016
     4  C   -0.061429
     5  C   -0.075340
     6  N   -0.370196
     7  C   -0.076473
     8  C   -0.019268
     9  C   -0.128242
    10  C    0.112485
    11  C    0.004222
    12  C    0.005707
    13  C   -0.087423
    14  H    0.044143
    15  N   -0.442597
    16  C    0.155679
    17  C   -0.170657
    18  C   -0.084767
    19  C    0.094683
    20  C    0.079954
    21  C    0.058979
    22  O   -0.231360
    23  C   -0.015740
    24  N   -0.372770
    25  C    0.091430
    26  C   -0.107429
    27  C   -0.062938
    28  C    0.055592
    29  C    0.009032
    30  C    0.009710
    31  C   -0.064262
    32  N   -0.405526
    33  C    0.114451
    34  C   -0.207782
    35  C   -0.016130
    36  C    0.137494
    37  C    0.069676
    38  C    0.119898
    39  O   -0.196947
    40  C   -0.032934
    41  C    0.261269
    42  O   -0.260755
    43  O   -0.368898
    44  C    0.150868
    45  H   -0.002576
    46  H    0.022721
    47  H   -0.005021
    48  H    0.035206
    49  H    0.041279
    50  H    0.033209
    51  H    0.028433
    52  H    0.050200
    53  H    0.018834
    54  H    0.026401
    55  H    0.050741
    56  H    0.056892
    57  H    0.044955
    58  H    0.041714
    59  H    0.050651
    60  H    0.068911
    61  H    0.058681
    62  H    0.044872
    63  H    0.042159
    64  H    0.041186
    65  H    0.028408
    66  H    0.042370
    67  H    0.055155
    68  H    0.035724
    69  H    0.040881
    70  H    0.024658
    71  H    0.026469
    72  H    0.047210
    73  H    0.017840
    74  H    0.060241
    75  H    0.049658
    76  H    0.082102
    77  H    0.044836
    78  H    0.059127
    79  H    0.053202
    80  Mg   0.949510
    81  C    0.045815
    82  C   -0.095143
    83  C   -0.065554
    84  C   -0.086031
    85  N   -0.314151
    86  C    0.001003
    87  C   -0.120450
    88  C   -0.103215
    89  C    0.089480
    90  C    0.035011
    91  C   -0.006483
    92  C   -0.094855
    93  H    0.041443
    94  N   -0.554481
    95  C    0.176099
    96  C   -0.151019
    97  C   -0.082776
    98  C    0.208017
    99  C    0.035041
   100  C    0.082020
   101  O   -0.237324
   102  C   -0.013179
   103  N   -0.304529
   104  C   -0.029686
   105  C   -0.047689
   106  C   -0.103704
   107  C    0.058248
   108  C    0.030149
   109  C   -0.003906
   110  C   -0.057113
   111  N   -0.438297
   112  C    0.134289
   113  C   -0.193391
   114  C   -0.035190
   115  C    0.077237
   116  C    0.080569
   117  C    0.135356
   118  O   -0.202607
   119  C   -0.093210
   120  C    0.220885
   121  O   -0.208218
   122  O   -0.410311
   123  C    0.136745
   124  H    0.001447
   125  H    0.012921
   126  H   -0.022027
   127  H    0.032040
   128  H    0.036170
   129  H    0.038435
   130  H    0.032953
   131  H    0.048361
   132  H    0.023401
   133  H    0.054560
   134  H    0.041780
   135  H    0.065407
   136  H    0.042991
   137  H    0.065287
   138  H    0.060743
   139  H    0.079990
   140  H    0.041604
   141  H    0.065169
   142  H    0.042226
   143  H    0.040203
   144  H    0.046680
   145  H    0.033129
   146  H    0.056280
   147  H    0.030805
   148  H    0.022361
   149  H    0.035988
   150  H    0.038518
   151  H    0.045675
   152  H    0.035947
   153  H    0.058426
   154  H    0.050920
   155  H    0.080275
   156  H    0.051948
   157  H    0.069246
   158  H    0.055734
 Sum of Mulliken charges =  -0.00000

 Dipole moment (field-independent basis, Debye):
    X=              0.3809    Y=             -0.6168    Z=             -1.0472  Tot=              1.2736
 Quadrupole moment (field-independent basis, Debye-Ang):
   XX=            -32.9813   YY=           -478.2303   ZZ=           -502.2167
   XY=            -34.7657   XZ=           -152.7912   YZ=              4.5704

 Normal termination of Gaussian 16 at Sun Sep 19 22:20:42 2021.
