 Gaussian 16, Revision A.03,
 Gaussian 16:  ES64L-G16RevA.03 25-Dec-2016

 --------------------------------
 #p wB97XD/Def2SVP td=(nstates=5)
 --------------------------------

 --------------------------------
 TDDFT excited states in gaussian
 --------------------------------
 Symbolic Z-matrix:
 Charge =  0 Multiplicity = 1

                         Standard orientation:
 ---------------------------------------------------------------------
 Center     Atomic      Atomic             Coordinates (Angstroms)
 Number     Number       Type             X           Y           Z
 ---------------------------------------------------------------------
      1         12           0      -21.958047    0.271264   -0.277239
      2          6           0      -18.540260    0.584341    0.147341
      3          6           0      -21.337581   -1.986013   -2.944174
      4          6           0      -25.284744   -0.542374   -0.392307
      5          6           0      -22.542647    2.080929    2.605878
      6          7           0      -20.129555   -0.467550   -1.329425
      7          6           0      -18.834674   -0.272048   -0.897189
      8          6           0      -17.771559   -1.164275   -1.641070
      9          6           0      -18.634434   -1.676173   -2.889096
     10          6           0      -20.163058   -1.344010   -2.435599
     11          6           0      -18.314919   -1.118120   -4.328154
     12          6           0      -17.212805   -2.287551   -0.840474
     13          6           0      -15.728373   -2.362638   -0.538799
     14          1           0      -15.150041   -3.773551   -0.344858
     15          7           0      -23.167099   -1.019813   -1.574316
     16          6           0      -22.669122   -1.802450   -2.633033
     17          6           0      -23.755070   -2.427161   -3.319105
     18          6           0      -24.942529   -2.137005   -2.473250
     19          6           0      -24.512638   -1.198115   -1.391189
     20          6           0      -23.585701   -3.408081   -4.483938
     21          6           0      -26.320084   -2.742534   -2.794430
     22          8           0      -26.598425   -3.514003   -3.707933
     23          6           0      -27.360028   -2.653617   -1.734282
     24          7           0      -23.729129    0.574504    1.086998
     25          6           0      -24.971801    0.284006    0.678321
     26          6           0      -25.887102    0.504489    1.881799
     27          6           0      -25.065600    1.449826    2.877231
     28          6           0      -23.651272    1.412178    2.143639
     29          6           0      -27.183429    1.263537    1.426001
     30          6           0      -24.949884    1.068790    4.410189
     31          6           0      -25.587059    1.947973    5.475862
     32          7           0      -20.777948    1.251994    1.102340
     33          6           0      -21.151527    1.992895    2.227942
     34          6           0      -19.985288    2.447784    2.921256
     35          6           0      -18.897025    1.923723    2.157312
     36          6           0      -19.487324    1.239300    1.024275
     37          6           0      -19.903068    3.259979    4.175173
     38          6           0      -17.502387    1.857488    2.003033
     39          8           0      -16.647351    2.350403    2.711234
     40          6           0      -17.203819    0.932066    0.760472
     41          6           0      -16.167476    1.573626   -0.063576
     42          8           0      -15.000316    1.199788   -0.088265
     43          8           0      -16.705543    2.646441   -0.758594
     44          6           0      -15.704182    3.367216   -1.576382
     45          1           0      -21.273147   -2.658000   -3.802004
     46          1           0      -26.337116   -0.785767   -0.555202
     47          1           0      -22.746214    2.613691    3.536969
     48          1           0      -16.956861   -0.534555   -1.996897
     49          1           0      -18.572761   -2.764975   -2.879319
     50          1           0      -17.353202   -0.608929   -4.266296
     51          1           0      -19.070906   -0.444997   -4.732711
     52          1           0      -18.289488   -1.974794   -5.000591
     53          1           0      -17.407323   -3.196423   -1.411865
     54          1           0      -17.684460   -2.314495    0.141242
     55          1           0      -15.561320   -1.871715    0.419501
     56          1           0      -15.105887   -1.933308   -1.323509
     57          1           0      -22.598689   -3.723749   -4.821228
     58          1           0      -24.170755   -2.927829   -5.267878
     59          1           0      -24.249610   -4.228340   -4.212864
     60          1           0      -28.028072   -1.793905   -1.704713
     61          1           0      -26.952980   -2.841462   -0.740625
     62          1           0      -28.055366   -3.470506   -1.930964
     63          1           0      -26.167374   -0.425490    2.376982
     64          1           0      -25.390666    2.483719    2.766440
     65          1           0      -28.029932    0.704301    1.824458
     66          1           0      -27.297469    1.394683    0.349205
     67          1           0      -27.236162    2.286623    1.799020
     68          1           0      -23.875486    1.006126    4.581527
     69          1           0      -25.460153    0.108835    4.500406
     70          1           0      -25.024264    1.739495    6.386101
     71          1           0      -26.612672    1.616329    5.639306
     72          1           0      -25.579450    3.031831    5.365499
     73          1           0      -18.839385    3.397895    4.370987
     74          1           0      -20.435234    2.709786    4.950588
     75          1           0      -20.339326    4.257074    4.112662
     76          1           0      -16.758389    0.042697    1.207524
     77          1           0      -15.246769    4.164815   -0.991063
     78          1           0      -16.228997    3.682844   -2.478047
     79          1           0      -14.923008    2.700816   -1.941036
     80         12           0       21.097405   -0.853839   -0.008743
     81          6           0       22.048599    2.266922   -1.219234
     82          6           0       18.055039    0.360467    0.779225
     83          6           0       20.434548   -3.782217    1.543900
     84          6           0       24.367883   -1.876908   -0.392272
     85          7           0       20.178027    1.153281   -0.202567
     86          6           0       20.688659    2.207139   -0.916844
     87          6           0       19.691159    3.298406   -1.010870
     88          6           0       18.412541    2.778031   -0.344003
     89          6           0       18.843845    1.319371    0.116682
     90          6           0       17.761666    3.609567    0.750446
     91          6           0       19.485510    3.787642   -2.555039
     92          6           0       19.840754    5.253426   -2.897878
     93          1           0       18.982409    6.056865   -3.843727
     94          7           0       19.439438   -1.650778    0.909010
     95          6           0       18.252016   -0.980716    1.162561
     96          6           0       17.370200   -1.830133    1.877217
     97          6           0       18.043212   -3.057707    2.122407
     98          6           0       19.357727   -2.874119    1.498730
     99          6           0       15.891883   -1.335312    2.126562
    100          6           0       17.483645   -4.222997    2.936566
    101          8           0       18.098175   -5.263095    3.217570
    102          6           0       16.086707   -4.192821    3.378358
    103          7           0       22.265108   -2.532538    0.751649
    104          6           0       21.765506   -3.648099    1.241923
    105          6           0       22.889234   -4.641177    1.614960
    106          6           0       23.947391   -4.170039    0.541107
    107          6           0       23.492158   -2.745308    0.241516
    108          6           0       23.522354   -4.634687    3.055581
    109          6           0       24.068793   -5.048174   -0.795144
    110          6           0       22.870901   -5.197768   -1.640571
    111          7           0       22.972428   -0.015392   -0.638668
    112          6           0       24.258256   -0.578314   -0.757659
    113          6           0       25.160649    0.406460   -1.263309
    114          6           0       24.389606    1.543479   -1.400830
    115          6           0       23.029702    1.200079   -1.105291
    116          6           0       26.606096    0.303998   -1.316915
    117          6           0       24.387356    2.822161   -1.937845
    118          8           0       25.290748    3.512686   -2.420646
    119          6           0       22.915433    3.418132   -1.772837
    120          6           0       23.033602    4.482967   -0.733020
    121          8           0       23.400557    4.447309    0.422754
    122          8           0       22.661978    5.607152   -1.347974
    123          6           0       22.659658    6.847696   -0.505395
    124          1           0       17.053787    0.796233    0.776794
    125          1           0       20.126592   -4.761801    1.913533
    126          1           0       25.383571   -2.236136   -0.569380
    127          1           0       20.120494    4.115905   -0.433005
    128          1           0       17.653291    2.623982   -1.110437
    129          1           0       18.242901    3.101497    1.585306
    130          1           0       16.671569    3.619540    0.753016
    131          1           0       17.999325    4.669377    0.838091
    132          1           0       18.455994    3.586353   -2.849668
    133          1           0       20.136681    3.277980   -3.265640
    134          1           0       20.798015    5.214145   -3.418500
    135          1           0       20.047799    5.843662   -2.006200
    136          1           0       15.672255   -1.431113    3.189731
    137          1           0       15.395069   -2.140946    1.585841
    138          1           0       15.649562   -0.294845    1.909982
    139          1           0       15.887363   -3.311688    3.986672
    140          1           0       16.007010   -4.966188    4.141963
    141          1           0       15.346783   -4.365051    2.596303
    142          1           0       22.603620   -5.628573    1.251956
    143          1           0       24.896734   -4.246966    1.070601
    144          1           0       23.681055   -3.652203    3.498522
    145          1           0       24.456239   -5.175685    2.898817
    146          1           0       22.892824   -5.184392    3.755808
    147          1           0       24.368314   -6.079566   -0.607475
    148          1           0       24.687584   -4.547811   -1.539961
    149          1           0       22.860283   -4.273307   -2.216241
    150          1           0       21.891452   -5.281185   -1.168609
    151          1           0       22.853766   -5.996847   -2.380977
    152          1           0       26.916909    0.559255   -0.303129
    153          1           0       27.098547    0.976159   -2.019027
    154          1           0       26.959614   -0.667847   -1.663099
    155          1           0       22.473967    3.748095   -2.713287
    156          1           0       21.603191    7.045805   -0.323092
    157          1           0       23.168455    7.652439   -1.035586
    158          1           0       23.113230    6.783008    0.484039
 ---------------------------------------------------------------------

 SCF Done:  E(RwB97XD) =  -4070.57155742     A.U. after   20 cycles

 Excitation energies and oscillator strengths:

 Excited State   1:      Singlet-A      1.6463 eV  753.11 nm  f=0.3797  <S**2>=0.000
     310 -> 316        0.18126
     312 -> 314        0.68347
     310 <- 316        0.11551
 This state for optimization and/or second-order correction.
 Total Energy, E(TD-HF/TD-DFT) =  -4070.51105719
 Copying the excited state density for this state as the 1-particle RhoCI density.

 Excited State   2:      Singlet-A      1.6654 eV  744.47 nm  f=0.3747  <S**2>=0.000
     309 -> 315        0.17860
     311 -> 313        0.68413
     309 <- 315        0.11347

 Excited State   3:      Singlet-A      2.1184 eV  585.27 nm  f=0.1558  <S**2>=0.000
     309 -> 313        0.64900
     311 -> 315       -0.25654

 Excited State   4:      Singlet-A      2.1205 eV  584.69 nm  f=0.1344  <S**2>=0.000
     310 -> 314        0.64931
     312 -> 316       -0.26639

 Excited State   5:      Singlet-A      3.0626 eV  404.83 nm  f=0.0077  <S**2>=0.000
     308 -> 313        0.68071

 The electronic state is 1-A.
 Alpha  occ. eigenvalues --  -46.96863 -46.95663 -19.30385 -19.30262 -19.24815
 Alpha  occ. eigenvalues --  -19.24236 -19.24016 -19.23680 -19.23335 -19.23299
 Alpha  occ. eigenvalues --  -14.48200 -14.46598 -14.46569 -14.46405 -14.44744
 Alpha  occ. eigenvalues --  -14.44461 -14.44297 -14.43561 -10.43018 -10.42440
 Alpha  occ. eigenvalues --  -10.39344 -10.39019 -10.38191 -10.38184 -10.37319
 Alpha  occ. eigenvalues --  -10.36268 -10.35796 -10.35727 -10.35459 -10.35455
 Alpha  occ. eigenvalues --  -10.35280 -10.35220 -10.34827 -10.34615 -10.34595
 Alpha  occ. eigenvalues --  -10.34286 -10.34140 -10.34127 -10.34088 -10.33803
 Alpha  occ. eigenvalues --  -10.33572 -10.33108 -10.33069 -10.32985 -10.32819
 Alpha  occ. eigenvalues --  -10.32792 -10.32787 -10.32771 -10.32617 -10.32594
 Alpha  occ. eigenvalues --  -10.32558 -10.32382 -10.32364 -10.32346 -10.32278
 Alpha  occ. eigenvalues --  -10.32272 -10.32267 -10.31991 -10.31961 -10.31939
 Alpha  occ. eigenvalues --  -10.31833 -10.31586 -10.31580 -10.31531 -10.31454
 Alpha  occ. eigenvalues --  -10.31448 -10.31366 -10.31179 -10.30997 -10.30912
 Alpha  occ. eigenvalues --  -10.30883 -10.30516 -10.30310 -10.30305 -10.30210
 Alpha  occ. eigenvalues --  -10.30103 -10.30096 -10.29924 -10.29917 -10.29837
 Alpha  occ. eigenvalues --  -10.29743 -10.29428 -10.29373 -10.28937 -10.28689
 Alpha  occ. eigenvalues --  -10.28533  -3.22559  -3.21527  -1.96168  -1.95649
 Alpha  occ. eigenvalues --   -1.95520  -1.95117  -1.94625  -1.94511  -1.19179
 Alpha  occ. eigenvalues --   -1.17735  -1.12374  -1.11996  -1.11316  -1.10810
 Alpha  occ. eigenvalues --   -1.09723  -1.09547  -1.07417  -1.06841  -1.06291
 Alpha  occ. eigenvalues --   -1.06101  -1.05387  -1.04682  -1.04643  -1.03854
 Alpha  occ. eigenvalues --   -0.94584  -0.94184  -0.91514  -0.91300  -0.91110
 Alpha  occ. eigenvalues --   -0.90604  -0.90303  -0.90085  -0.89872  -0.89693
 Alpha  occ. eigenvalues --   -0.89513  -0.89125  -0.88792  -0.87880  -0.86553
 Alpha  occ. eigenvalues --   -0.86487  -0.86140  -0.85765  -0.84976  -0.84867
 Alpha  occ. eigenvalues --   -0.84220  -0.83919  -0.83500  -0.82874  -0.82772
 Alpha  occ. eigenvalues --   -0.82686  -0.80699  -0.79827  -0.79583  -0.79296
 Alpha  occ. eigenvalues --   -0.79182  -0.78984  -0.78192  -0.77880  -0.77502
 Alpha  occ. eigenvalues --   -0.77282  -0.75540  -0.75467  -0.74330  -0.73649
 Alpha  occ. eigenvalues --   -0.71381  -0.71327  -0.71029  -0.71013  -0.70034
 Alpha  occ. eigenvalues --   -0.69718  -0.69154  -0.69143  -0.67715  -0.67582
 Alpha  occ. eigenvalues --   -0.67499  -0.67365  -0.67328  -0.66826  -0.66764
 Alpha  occ. eigenvalues --   -0.65944  -0.65028  -0.64037  -0.62412  -0.62345
 Alpha  occ. eigenvalues --   -0.61900  -0.61772  -0.61498  -0.61296  -0.61113
 Alpha  occ. eigenvalues --   -0.60585  -0.60237  -0.59879  -0.59838  -0.58948
 Alpha  occ. eigenvalues --   -0.58595  -0.58407  -0.57972  -0.57682  -0.57463
 Alpha  occ. eigenvalues --   -0.57451  -0.56980  -0.56758  -0.56737  -0.56632
 Alpha  occ. eigenvalues --   -0.55812  -0.55538  -0.55281  -0.55221  -0.55151
 Alpha  occ. eigenvalues --   -0.54931  -0.54845  -0.54733  -0.54631  -0.54444
 Alpha  occ. eigenvalues --   -0.54125  -0.54087  -0.53883  -0.53833  -0.53306
 Alpha  occ. eigenvalues --   -0.53109  -0.53005  -0.52880  -0.52392  -0.52311
 Alpha  occ. eigenvalues --   -0.52197  -0.51751  -0.51714  -0.51647  -0.51490
 Alpha  occ. eigenvalues --   -0.51372  -0.51217  -0.51117  -0.50946  -0.50884
 Alpha  occ. eigenvalues --   -0.50595  -0.50427  -0.50264  -0.50263  -0.50013
 Alpha  occ. eigenvalues --   -0.49878  -0.49828  -0.49296  -0.49184  -0.49085
 Alpha  occ. eigenvalues --   -0.49003  -0.48749  -0.48652  -0.48598  -0.48559
 Alpha  occ. eigenvalues --   -0.48163  -0.48129  -0.47966  -0.47901  -0.47835
 Alpha  occ. eigenvalues --   -0.47744  -0.47691  -0.47250  -0.47162  -0.47139
 Alpha  occ. eigenvalues --   -0.46694  -0.46549  -0.46537  -0.46379  -0.46109
 Alpha  occ. eigenvalues --   -0.46068  -0.46019  -0.45701  -0.45609  -0.45608
 Alpha  occ. eigenvalues --   -0.45280  -0.45132  -0.45014  -0.44914  -0.44786
 Alpha  occ. eigenvalues --   -0.44453  -0.44380  -0.44200  -0.44128  -0.44046
 Alpha  occ. eigenvalues --   -0.43731  -0.43627  -0.43599  -0.43473  -0.43279
 Alpha  occ. eigenvalues --   -0.42997  -0.42823  -0.42630  -0.42379  -0.42072
 Alpha  occ. eigenvalues --   -0.41928  -0.41667  -0.41416  -0.41391  -0.40837
 Alpha  occ. eigenvalues --   -0.40298  -0.40023  -0.39980  -0.39963  -0.39624
 Alpha  occ. eigenvalues --   -0.39450  -0.39244  -0.39070  -0.38835  -0.38417
 Alpha  occ. eigenvalues --   -0.38036  -0.37881  -0.36562  -0.36459  -0.36372
 Alpha  occ. eigenvalues --   -0.36239  -0.35731  -0.35515  -0.34042  -0.33672
 Alpha  occ. eigenvalues --   -0.33248  -0.32953  -0.32694  -0.32517  -0.32495
 Alpha  occ. eigenvalues --   -0.32339  -0.32136  -0.31882  -0.26585  -0.25917
 Alpha  occ. eigenvalues --   -0.24017  -0.23243
 Alpha virt. eigenvalues --   -0.08131  -0.07328  -0.00459   0.00302   0.02021
 Alpha virt. eigenvalues --    0.02347   0.04286   0.04366   0.05313   0.05431
 Alpha virt. eigenvalues --    0.07015   0.07383   0.07760   0.08422   0.08629

 Mulliken charges:
               1
     1  Mg   0.930393
     2  C    0.060808
     3  C   -0.053613
     4  C   -0.067799
     5  C   -0.064699
     6  N   -0.367887
     7  C   -0.017692
     8  C   -0.066775
     9  C   -0.122719
    10  C    0.087954
    11  C    0.030151
    12  C    0.037097
    13  C   -0.149241
    14  H    0.025227
    15  N   -0.454821
    16  C    0.135359
    17  C   -0.149608
    18  C   -0.136676
    19  C    0.177537
    20  C    0.084190
    21  C    0.092259
    22  O   -0.239761
    23  C   -0.062667
    24  N   -0.335615
    25  C    0.120559
    26  C   -0.138908
    27  C   -0.048776
    28  C    0.022772
    29  C    0.006334
    30  C   -0.011665
    31  C   -0.052424
    32  N   -0.425416
    33  C    0.118277
    34  C   -0.169446
    35  C   -0.018229
    36  C    0.076873
    37  C    0.078433
    38  C    0.069249
    39  O   -0.202429
    40  C   -0.060412
    41  C    0.246602
    42  O   -0.245836
    43  O   -0.384136
    44  C    0.134967
    45  H   -0.012756
    46  H   -0.019680
    47  H   -0.002589
    48  H    0.034847
    49  H    0.040606
    50  H    0.043250
    51  H    0.048403
    52  H    0.043008
    53  H    0.039673
    54  H    0.043332
    55  H    0.068866
    56  H    0.058937
    57  H    0.056925
    58  H    0.057845
    59  H    0.063784
    60  H    0.068493
    61  H    0.055851
    62  H    0.048673
    63  H    0.055247
    64  H    0.030170
    65  H    0.036250
    66  H    0.039802
    67  H    0.031104
    68  H    0.041411
    69  H    0.028844
    70  H    0.036999
    71  H    0.037586
    72  H    0.038392
    73  H    0.062968
    74  H    0.045546
    75  H    0.046946
    76  H    0.066575
    77  H    0.069694
    78  H    0.052488
    79  H    0.054717
    80  Mg   0.939161
    81  C   -0.014481
    82  C   -0.073854
    83  C   -0.062286
    84  C   -0.108170
    85  N   -0.378590
    86  C    0.014420
    87  C   -0.066611
    88  C   -0.052568
    89  C   -0.019304
    90  C    0.003408
    91  C    0.003677
    92  C   -0.135620
    93  H    0.038429
    94  N   -0.463727
    95  C    0.198406
    96  C   -0.182659
    97  C   -0.073544
    98  C    0.131333
    99  C    0.083097
   100  C    0.052719
   101  O   -0.248069
   102  C   -0.010016
   103  N   -0.296485
   104  C    0.020370
   105  C   -0.042760
   106  C   -0.112632
   107  C    0.095863
   108  C    0.041911
   109  C    0.013839
   110  C   -0.088594
   111  N   -0.408821
   112  C    0.114920
   113  C   -0.133375
   114  C    0.022712
   115  C    0.108166
   116  C    0.062406
   117  C    0.079709
   118  O   -0.226737
   119  C   -0.091675
   120  C    0.269313
   121  O   -0.244546
   122  O   -0.346895
   123  C    0.120675
   124  H   -0.007232
   125  H    0.014705
   126  H   -0.002441
   127  H    0.047170
   128  H    0.033964
   129  H    0.048094
   130  H    0.042076
   131  H    0.040869
   132  H    0.041776
   133  H    0.042564
   134  H    0.057892
   135  H    0.038062
   136  H    0.038004
   137  H    0.060562
   138  H    0.052943
   139  H    0.039109
   140  H    0.045942
   141  H    0.075462
   142  H    0.019737
   143  H    0.022988
   144  H    0.050112
   145  H    0.040541
   146  H    0.051596
   147  H    0.036052
   148  H    0.028664
   149  H    0.022191
   150  H    0.034942
   151  H    0.039547
   152  H    0.074316
   153  H    0.055774
   154  H    0.035956
   155  H    0.056726
   156  H    0.046846
   157  H    0.068316
   158  H    0.073659
 Sum of Mulliken charges =  -0.00000

 Dipole moment (field-independent basis, Debye):
    X=             -7.8636    Y=              0.4399    Z=             -1.6512  Tot=              8.0471
 Quadrupole moment (field-independent basis, Debye-Ang):
   XX=           -507.5412   YY=           -510.6564   ZZ=           -511.2398
   XY=            -75.7866   XZ=            -30.0648   YZ=              6.8930

 Normal termination of Gaussian 16 at Mon Sep 20 05:25:54 2021.
