 Gaussian 16, Revision A.03,
 Gaussian 16:  ES64L-G16RevA.03 25-Dec-2016

 --------------------------------
 #p wB97XD/Def2SVP td=(nstates=5)
 --------------------------------

 --------------------------------
 TDDFT excited states in gaussian
 --------------------------------
 Symbolic Z-matrix:
 Charge =  0 Multiplicity = 1

                         Standard orientation:
 ---------------------------------------------------------------------
 Center     Atomic      Atomic             Coordinates (Angstroms)
 Number     Number       Type             X           Y           Z
 ---------------------------------------------------------------------
      1         12           0       16.650020   -0.567836    0.270197
      2          6           0       15.512875    2.424670   -1.331059
      3          6           0       18.808102    1.383507    2.052893
      4          6           0       17.982274   -3.229723    1.363851
      5          6           0       15.255602   -2.342704   -2.385195
      6          7           0       17.018559    1.615010    0.272896
      7          6           0       16.473742    2.658468   -0.344793
      8          6           0       16.965525    4.029573    0.208012
      9          6           0       18.361501    3.566699    0.823639
     10          6           0       18.034054    2.109848    1.099839
     11          6           0       19.516812    3.630584   -0.170181
     12          6           0       16.013856    4.601314    1.312173
     13          6           0       16.237754    6.073604    1.669364
     14          1           0       15.085274    6.895535    2.006362
     15          7           0       17.806909   -0.868939    1.843027
     16          6           0       18.605786    0.043201    2.447247
     17          6           0       19.259772   -0.666443    3.567690
     18          6           0       18.921538   -2.112074    3.450033
     19          6           0       18.236111   -2.132211    2.183083
     20          6           0       20.060236    0.028079    4.626295
     21          6           0       19.184887   -3.290365    4.333440
     22          8           0       19.009004   -4.492272    3.934617
     23          6           0       19.745677   -3.000391    5.665533
     24          7           0       16.821517   -2.495376   -0.512627
     25          6           0       17.395044   -3.477523    0.191246
     26          6           0       17.153298   -4.815810   -0.441593
     27          6           0       16.083348   -4.569721   -1.601076
     28          6           0       15.951285   -3.031663   -1.477765
     29          6           0       18.389405   -5.512267   -1.027255
     30          6           0       14.793044   -5.426401   -1.560637
     31          6           0       13.959858   -5.042847   -0.358229
     32          7           0       15.419992   -0.096482   -1.454883
     33          6           0       14.975028   -0.987739   -2.441970
     34          6           0       14.268691   -0.187880   -3.459508
     35          6           0       14.366820    1.123680   -2.999045
     36          6           0       15.111324    1.145026   -1.785146
     37          6           0       13.693768   -0.687950   -4.661101
     38          6           0       14.037080    2.514906   -3.262898
     39          8           0       13.340759    3.098299   -4.094934
     40          6           0       14.870050    3.426639   -2.257546
     41          6           0       13.920522    4.428821   -1.659770
     42          8           0       13.002626    4.064429   -0.896847
     43          8           0       14.382031    5.668334   -1.885957
     44          6           0       13.501320    6.709870   -1.292910
     45          1           0       19.684445    1.861255    2.495296
     46          1           0       18.330029   -4.185348    1.761702
     47          1           0       14.721718   -2.837708   -3.198454
     48          1           0       17.128916    4.793842   -0.552001
     49          1           0       18.588550    4.087016    1.753930
     50          1           0       19.165102    3.861294   -1.175664
     51          1           0       19.977175    2.642690   -0.145223
     52          1           0       20.283205    4.327006    0.171014
     53          1           0       16.255543    4.139350    2.269376
     54          1           0       14.969369    4.452066    1.036315
     55          1           0       16.859559    6.573881    0.926403
     56          1           0       16.824347    6.117014    2.587092
     57          1           0       20.271365    1.061746    4.355181
     58          1           0       21.038604   -0.451365    4.651585
     59          1           0       19.591024   -0.042008    5.607753
     60          1           0       20.693243   -2.473728    5.550226
     61          1           0       19.784150   -3.954592    6.189813
     62          1           0       19.076713   -2.316770    6.189077
     63          1           0       16.742476   -5.521008    0.279758
     64          1           0       16.499996   -4.763068   -2.589861
     65          1           0       18.569404   -6.505111   -0.614259
     66          1           0       19.249085   -4.861513   -0.869901
     67          1           0       18.387569   -5.610283   -2.112523
     68          1           0       15.041803   -6.481819   -1.455013
     69          1           0       14.176755   -5.318641   -2.453288
     70          1           0       14.407548   -5.627478    0.444649
     71          1           0       12.917684   -5.324662   -0.512063
     72          1           0       14.087371   -3.990193   -0.104960
     73          1           0       12.724555   -0.199627   -4.761779
     74          1           0       13.589572   -1.772251   -4.628867
     75          1           0       14.434577   -0.361153   -5.390664
     76          1           0       15.653982    3.904697   -2.844090
     77          1           0       13.219584    7.388478   -2.098113
     78          1           0       14.043887    7.128393   -0.445051
     79          1           0       12.520532    6.375367   -0.953057
     80         12           0      -16.032885   -0.863530   -0.028798
     81          6           0      -18.018556    1.864916    1.046702
     82          6           0      -13.720574    1.541618   -1.071428
     83          6           0      -14.016894   -3.273394   -0.981620
     84          6           0      -18.777170   -2.968278    0.330179
     85          7           0      -15.916748    1.417505    0.037640
     86          6           0      -16.756968    2.300779    0.645084
     87          6           0      -16.352091    3.782479    0.561176
     88          6           0      -14.981178    3.589218   -0.264667
     89          6           0      -14.903320    2.101539   -0.440558
     90          6           0      -14.967066    4.296497   -1.677366
     91          6           0      -16.131149    4.436750    1.963937
     92          6           0      -17.018868    5.521771    2.560988
     93          1           0      -16.436951    6.632185    3.425772
     94          7           0      -14.089097   -0.901061   -0.840787
     95          6           0      -13.325256    0.194563   -1.268251
     96          6           0      -12.141674   -0.329893   -1.912179
     97          6           0      -12.121770   -1.713925   -1.758285
     98          6           0      -13.417786   -2.016284   -1.120114
     99          6           0      -11.102211    0.631176   -2.378899
    100          6           0      -11.118303   -2.769660   -2.221062
    101          8           0      -11.245099   -3.984894   -2.042751
    102          6           0       -9.846974   -2.281029   -2.795019
    103          7           0      -16.344901   -2.834206   -0.399467
    104          6           0      -15.313225   -3.711894   -0.586707
    105          6           0      -15.768713   -5.184657   -0.309385
    106          6           0      -17.254253   -5.032222   -0.009394
    107          6           0      -17.518141   -3.503244   -0.096083
    108          6           0      -15.400187   -6.180111   -1.457624
    109          6           0      -17.567112   -5.633299    1.369361
    110          6           0      -18.778521   -6.481047    1.512318
    111          7           0      -18.035788   -0.646756    0.461979
    112          6           0      -19.028914   -1.583481    0.598187
    113          6           0      -20.253071   -0.986645    1.041941
    114          6           0      -19.926843    0.422579    1.357080
    115          6           0      -18.532878    0.545077    0.975457
    116          6           0      -21.599784   -1.711225    1.208336
    117          6           0      -20.410395    1.732259    1.862194
    118          8           0      -21.485412    2.034225    2.407648
    119          6           0      -19.170959    2.701102    1.675979
    120          6           0      -19.780898    3.729975    0.776113
    121          8           0      -19.862332    3.722408   -0.446213
    122          8           0      -20.145986    4.782278    1.455991
    123          6           0      -20.922004    5.856118    0.789463
    124          1           0      -13.035478    2.381376   -1.202768
    125          1           0      -13.470331   -4.163022   -1.300421
    126          1           0      -19.606042   -3.656986    0.504470
    127          1           0      -17.095785    4.293171   -0.051836
    128          1           0      -14.043177    3.861514    0.220173
    129          1           0      -15.927102    4.613127   -2.084095
    130          1           0      -14.543277    3.624373   -2.422703
    131          1           0      -14.324621    5.174905   -1.613347
    132          1           0      -15.137624    4.884632    1.937958
    133          1           0      -16.149946    3.674629    2.741948
    134          1           0      -17.599866    4.929541    3.268109
    135          1           0      -17.546952    5.882110    1.678104
    136          1           0      -10.155772    0.491238   -1.858446
    137          1           0      -11.418567    1.661781   -2.216074
    138          1           0      -10.870420    0.533873   -3.439082
    139          1           0       -9.414964   -1.529772   -2.133776
    140          1           0       -9.996867   -1.697716   -3.703635
    141          1           0       -9.082453   -3.048061   -2.914399
    142          1           0      -15.173802   -5.432891    0.569417
    143          1           0      -17.858100   -5.614944   -0.704829
    144          1           0      -14.740038   -5.762591   -2.217733
    145          1           0      -16.262524   -6.559060   -2.004891
    146          1           0      -15.016463   -7.106854   -1.031257
    147          1           0      -17.670356   -4.745290    1.991661
    148          1           0      -16.789475   -6.283152    1.769939
    149          1           0      -19.342031   -6.016485    2.321137
    150          1           0      -18.494612   -7.523397    1.656911
    151          1           0      -19.471090   -6.438460    0.671425
    152          1           0      -22.157684   -1.639695    0.275397
    153          1           0      -22.132835   -1.251922    2.040662
    154          1           0      -21.473253   -2.777281    1.398318
    155          1           0      -18.954404    3.121706    2.657797
    156          1           0      -20.400655    6.329525   -0.041791
    157          1           0      -21.265624    6.641374    1.462527
    158          1           0      -21.882729    5.573870    0.359919
 ---------------------------------------------------------------------

 SCF Done:  E(RwB97XD) =  -4070.60824484     A.U. after   19 cycles

 Excitation energies and oscillator strengths:

 Excited State   1:      Singlet-A      1.6216 eV  764.59 nm  f=0.3900  <S**2>=0.000
     309 -> 316        0.18177
     312 -> 313        0.68323
     309 <- 316        0.11454
 This state for optimization and/or second-order correction.
 Total Energy, E(TD-HF/TD-DFT) =  -4070.54865329
 Copying the excited state density for this state as the 1-particle RhoCI density.

 Excited State   2:      Singlet-A      1.7244 eV  719.02 nm  f=0.3787  <S**2>=0.000
     310 -> 315        0.18630
     311 -> 314        0.68171
     310 <- 315        0.11191

 Excited State   3:      Singlet-A      2.1386 eV  579.74 nm  f=0.0934  <S**2>=0.000
     309 -> 313        0.63833
     312 -> 316       -0.28196

 Excited State   4:      Singlet-A      2.1688 eV  571.68 nm  f=0.1036  <S**2>=0.000
     310 -> 314        0.63392
     311 -> 315       -0.29509

 Excited State   5:      Singlet-A      3.3010 eV  375.59 nm  f=0.0076  <S**2>=0.000
     306 -> 313       -0.43960
     307 -> 313        0.49027
     312 -> 316       -0.17028

 The electronic state is 1-A.
 Alpha  occ. eigenvalues --  -46.94832 -46.94160 -19.31541 -19.30428 -19.24633
 Alpha  occ. eigenvalues --  -19.24034 -19.23916 -19.23839 -19.23261 -19.23069
 Alpha  occ. eigenvalues --  -14.47130 -14.47079 -14.46445 -14.46085 -14.44423
 Alpha  occ. eigenvalues --  -14.44054 -14.43511 -14.43193 -10.42979 -10.42415
 Alpha  occ. eigenvalues --  -10.39959 -10.39462 -10.39396 -10.38449 -10.35713
 Alpha  occ. eigenvalues --  -10.35644 -10.35488 -10.35478 -10.35430 -10.35243
 Alpha  occ. eigenvalues --  -10.34942 -10.34855 -10.34829 -10.34645 -10.34579
 Alpha  occ. eigenvalues --  -10.34453 -10.34228 -10.33930 -10.33863 -10.33621
 Alpha  occ. eigenvalues --  -10.33277 -10.33075 -10.32850 -10.32774 -10.32736
 Alpha  occ. eigenvalues --  -10.32673 -10.32612 -10.32504 -10.32366 -10.32328
 Alpha  occ. eigenvalues --  -10.32180 -10.32175 -10.32104 -10.31982 -10.31971
 Alpha  occ. eigenvalues --  -10.31902 -10.31823 -10.31744 -10.31711 -10.31582
 Alpha  occ. eigenvalues --  -10.31546 -10.31506 -10.31478 -10.31457 -10.31227
 Alpha  occ. eigenvalues --  -10.31022 -10.30960 -10.30671 -10.30387 -10.30385
 Alpha  occ. eigenvalues --  -10.30306 -10.30261 -10.30115 -10.30103 -10.30026
 Alpha  occ. eigenvalues --  -10.29859 -10.29717 -10.29693 -10.29662 -10.29413
 Alpha  occ. eigenvalues --  -10.29304 -10.29081 -10.28902 -10.28840 -10.28612
 Alpha  occ. eigenvalues --  -10.28510  -3.20861  -3.20319  -1.94452  -1.93986
 Alpha  occ. eigenvalues --   -1.93896  -1.93838  -1.93462  -1.93301  -1.19913
 Alpha  occ. eigenvalues --   -1.18865  -1.12313  -1.10890  -1.10535  -1.09463
 Alpha  occ. eigenvalues --   -1.08877  -1.08598  -1.07450  -1.06602  -1.06074
 Alpha  occ. eigenvalues --   -1.05803  -1.05290  -1.04738  -1.04469  -1.03291
 Alpha  occ. eigenvalues --   -0.93962  -0.93732  -0.91444  -0.91444  -0.91082
 Alpha  occ. eigenvalues --   -0.90918  -0.90649  -0.90202  -0.89824  -0.89662
 Alpha  occ. eigenvalues --   -0.89623  -0.89261  -0.88639  -0.87000  -0.86910
 Alpha  occ. eigenvalues --   -0.86167  -0.85846  -0.85319  -0.84926  -0.84732
 Alpha  occ. eigenvalues --   -0.84616  -0.84594  -0.83558  -0.82720  -0.82588
 Alpha  occ. eigenvalues --   -0.82453  -0.80803  -0.80745  -0.79370  -0.79174
 Alpha  occ. eigenvalues --   -0.78883  -0.78731  -0.78047  -0.77889  -0.77083
 Alpha  occ. eigenvalues --   -0.76843  -0.74784  -0.74149  -0.73762  -0.73661
 Alpha  occ. eigenvalues --   -0.71828  -0.71182  -0.70863  -0.70074  -0.69679
 Alpha  occ. eigenvalues --   -0.69551  -0.69206  -0.68923  -0.67729  -0.67253
 Alpha  occ. eigenvalues --   -0.67154  -0.66872  -0.66832  -0.66626  -0.66256
 Alpha  occ. eigenvalues --   -0.66152  -0.64325  -0.64316  -0.62967  -0.62466
 Alpha  occ. eigenvalues --   -0.61791  -0.61442  -0.61003  -0.60897  -0.60525
 Alpha  occ. eigenvalues --   -0.60420  -0.59734  -0.59600  -0.59582  -0.59302
 Alpha  occ. eigenvalues --   -0.58699  -0.58325  -0.57895  -0.57526  -0.57502
 Alpha  occ. eigenvalues --   -0.57295  -0.56887  -0.56502  -0.56174  -0.56082
 Alpha  occ. eigenvalues --   -0.55846  -0.55724  -0.55502  -0.55275  -0.55195
 Alpha  occ. eigenvalues --   -0.54909  -0.54854  -0.54710  -0.54545  -0.54449
 Alpha  occ. eigenvalues --   -0.54353  -0.54011  -0.53869  -0.53563  -0.53309
 Alpha  occ. eigenvalues --   -0.53163  -0.52563  -0.52507  -0.52367  -0.51972
 Alpha  occ. eigenvalues --   -0.51926  -0.51908  -0.51815  -0.51628  -0.51481
 Alpha  occ. eigenvalues --   -0.51342  -0.51204  -0.51049  -0.50996  -0.50556
 Alpha  occ. eigenvalues --   -0.50548  -0.50451  -0.50415  -0.50414  -0.50078
 Alpha  occ. eigenvalues --   -0.49968  -0.49688  -0.49652  -0.49291  -0.49273
 Alpha  occ. eigenvalues --   -0.48728  -0.48521  -0.48508  -0.48345  -0.48218
 Alpha  occ. eigenvalues --   -0.48136  -0.47967  -0.47771  -0.47725  -0.47483
 Alpha  occ. eigenvalues --   -0.47351  -0.47135  -0.47022  -0.46928  -0.46537
 Alpha  occ. eigenvalues --   -0.46509  -0.46445  -0.46257  -0.46156  -0.46083
 Alpha  occ. eigenvalues --   -0.46028  -0.45972  -0.45892  -0.45414  -0.45356
 Alpha  occ. eigenvalues --   -0.45128  -0.44995  -0.44962  -0.44707  -0.44697
 Alpha  occ. eigenvalues --   -0.44594  -0.44238  -0.43948  -0.43919  -0.43743
 Alpha  occ. eigenvalues --   -0.43584  -0.43461  -0.43261  -0.43109  -0.43061
 Alpha  occ. eigenvalues --   -0.42891  -0.42772  -0.42657  -0.42484  -0.42281
 Alpha  occ. eigenvalues --   -0.42156  -0.41931  -0.41689  -0.41414  -0.41365
 Alpha  occ. eigenvalues --   -0.40393  -0.40309  -0.39829  -0.39723  -0.39389
 Alpha  occ. eigenvalues --   -0.39236  -0.39224  -0.38750  -0.38663  -0.38328
 Alpha  occ. eigenvalues --   -0.38223  -0.37734  -0.36375  -0.36318  -0.35820
 Alpha  occ. eigenvalues --   -0.35481  -0.35380  -0.35107  -0.34083  -0.33771
 Alpha  occ. eigenvalues --   -0.33388  -0.33218  -0.32565  -0.32447  -0.32041
 Alpha  occ. eigenvalues --   -0.31651  -0.31515  -0.30785  -0.26039  -0.25820
 Alpha  occ. eigenvalues --   -0.22969  -0.22957
 Alpha virt. eigenvalues --   -0.07140  -0.06817   0.00100   0.00146   0.01898
 Alpha virt. eigenvalues --    0.01951   0.04211   0.04275   0.05820   0.06228
 Alpha virt. eigenvalues --    0.07067   0.07215   0.07739   0.08379   0.08579

 Mulliken charges:
               1
     1  Mg   0.978376
     2  C   -0.019995
     3  C   -0.101328
     4  C   -0.061203
     5  C   -0.071061
     6  N   -0.323316
     7  C   -0.008567
     8  C   -0.058140
     9  C   -0.138183
    10  C    0.061931
    11  C    0.058269
    12  C    0.014058
    13  C   -0.126919
    14  H    0.052288
    15  N   -0.518349
    16  C    0.183549
    17  C   -0.196058
    18  C   -0.037029
    19  C    0.166635
    20  C    0.061108
    21  C    0.056867
    22  O   -0.279979
    23  C    0.001363
    24  N   -0.410006
    25  C    0.065994
    26  C   -0.084860
    27  C   -0.063884
    28  C    0.089591
    29  C    0.031855
    30  C   -0.016753
    31  C   -0.058099
    32  N   -0.398510
    33  C    0.097358
    34  C   -0.188022
    35  C   -0.040125
    36  C    0.126127
    37  C    0.081470
    38  C    0.128827
    39  O   -0.224881
    40  C   -0.076965
    41  C    0.275929
    42  O   -0.284681
    43  O   -0.335604
    44  C    0.120650
    45  H    0.007934
    46  H    0.010731
    47  H   -0.017368
    48  H    0.026022
    49  H    0.022631
    50  H    0.047123
    51  H    0.037835
    52  H    0.040137
    53  H    0.035393
    54  H    0.067613
    55  H    0.038985
    56  H    0.040655
    57  H    0.029652
    58  H    0.048946
    59  H    0.062089
    60  H    0.057922
    61  H    0.061927
    62  H    0.053110
    63  H    0.042958
    64  H    0.035701
    65  H    0.045373
    66  H    0.034358
    67  H    0.025749
    68  H    0.032673
    69  H    0.029392
    70  H    0.029248
    71  H    0.042145
    72  H    0.049606
    73  H    0.070769
    74  H    0.031388
    75  H    0.069432
    76  H    0.065898
    77  H    0.061233
    78  H    0.062856
    79  H    0.070161
    80  Mg   0.972613
    81  C    0.039260
    82  C   -0.094896
    83  C   -0.084719
    84  C   -0.089069
    85  N   -0.280110
    86  C   -0.033656
    87  C   -0.039438
    88  C   -0.125421
    89  C    0.009611
    90  C    0.001834
    91  C   -0.006499
    92  C   -0.125651
    93  H    0.045843
    94  N   -0.445278
    95  C    0.189272
    96  C   -0.135099
    97  C   -0.078093
    98  C    0.174030
    99  C    0.050217
   100  C    0.084148
   101  O   -0.232500
   102  C   -0.006627
   103  N   -0.424516
   104  C    0.030622
   105  C   -0.065399
   106  C   -0.064791
   107  C    0.113607
   108  C    0.012637
   109  C   -0.040704
   110  C   -0.047832
   111  N   -0.454918
   112  C    0.145844
   113  C   -0.198964
   114  C   -0.045547
   115  C    0.123245
   116  C    0.077676
   117  C    0.112788
   118  O   -0.226647
   119  C   -0.112567
   120  C    0.232981
   121  O   -0.268656
   122  O   -0.310190
   123  C    0.148292
   124  H    0.001969
   125  H    0.016045
   126  H   -0.006228
   127  H    0.060612
   128  H    0.045682
   129  H    0.052661
   130  H    0.037822
   131  H    0.037551
   132  H    0.038558
   133  H    0.032738
   134  H    0.062029
   135  H    0.051849
   136  H    0.054876
   137  H    0.035554
   138  H    0.048546
   139  H    0.039688
   140  H    0.049812
   141  H    0.061375
   142  H    0.053983
   143  H    0.031635
   144  H    0.057333
   145  H    0.025235
   146  H    0.035153
   147  H    0.036545
   148  H    0.031231
   149  H    0.037238
   150  H    0.043577
   151  H    0.025450
   152  H    0.056304
   153  H    0.061348
   154  H    0.025303
   155  H    0.075554
   156  H    0.050763
   157  H    0.052413
   158  H    0.053061
 Sum of Mulliken charges =  -0.00000

 Dipole moment (field-independent basis, Debye):
    X=              9.1328    Y=              2.0779    Z=              1.5906  Tot=              9.5003
 Quadrupole moment (field-independent basis, Debye-Ang):
   XX=           -553.9513   YY=           -466.8868   ZZ=           -511.3295
   XY=             41.9319   XZ=             50.3646   YZ=             19.9997

 Normal termination of Gaussian 16 at Sun Sep 19 11:17:30 2021.
