 Gaussian 16, Revision A.03,
 Gaussian 16:  ES64L-G16RevA.03 25-Dec-2016

 --------------------------------
 #p wB97XD/Def2SVP td=(nstates=5)
 --------------------------------

 --------------------------------
 TDDFT excited states in gaussian
 --------------------------------
 Symbolic Z-matrix:
 Charge =  0 Multiplicity = 1

                         Standard orientation:
 ---------------------------------------------------------------------
 Center     Atomic      Atomic             Coordinates (Angstroms)
 Number     Number       Type             X           Y           Z
 ---------------------------------------------------------------------
      1         12           0        8.380500    0.509738    0.090219
      2          6           0        6.845084   -1.843746   -2.096273
      3          6           0        7.536795    3.029951   -2.070668
      4          6           0        8.907890    2.824429    2.661429
      5          6           0        8.680587   -2.028412    2.501901
      6          7           0        7.028617    0.513657   -1.813533
      7          6           0        6.743312   -0.528041   -2.611789
      8          6           0        6.501805   -0.027431   -4.024103
      9          6           0        6.653395    1.569425   -4.022206
     10          6           0        7.261736    1.677530   -2.533313
     11          6           0        7.647292    1.976293   -5.133244
     12          6           0        5.139156   -0.472049   -4.530649
     13          6           0        3.979356   -0.472481   -3.506612
     14          1           0        2.911363    0.645169   -3.656710
     15          7           0        8.327496    2.682997    0.257512
     16          6           0        7.926524    3.488636   -0.785970
     17          6           0        8.188463    4.828777   -0.363612
     18          6           0        8.503280    4.853370    1.048450
     19          6           0        8.646994    3.418881    1.403928
     20          6           0        7.893583    6.028972   -1.233258
     21          6           0        8.527070    6.062407    1.984965
     22          8           0        8.226635    7.163292    1.565084
     23          6           0        8.875491    5.979949    3.371755
     24          7           0        8.641941    0.429825    2.290725
     25          6           0        8.976687    1.474352    3.033766
     26          6           0        9.203278    1.126445    4.496004
     27          6           0        8.758287   -0.399083    4.477116
     28          6           0        8.747724   -0.728405    3.027935
     29          6           0       10.717462    1.339620    4.988012
     30          6           0        7.373723   -0.587413    5.252180
     31          6           0        7.323980   -1.334944    6.554577
     32          7           0        8.124078   -1.483160    0.135172
     33          6           0        8.408985   -2.414424    1.154518
     34          6           0        8.201572   -3.792717    0.672518
     35          6           0        7.625645   -3.566123   -0.577411
     36          6           0        7.462118   -2.164220   -0.856184
     37          6           0        8.622996   -5.154266    1.325625
     38          6           0        7.065202   -4.283619   -1.726968
     39          8           0        6.939615   -5.489633   -1.996527
     40          6           0        6.555813   -3.224131   -2.759061
     41          6           0        5.102365   -3.551110   -2.757015
     42          8           0        4.386293   -3.532899   -1.788871
     43          8           0        4.732719   -3.992419   -3.955901
     44          6           0        3.283193   -4.302927   -4.213562
     45          1           0        7.548364    3.783842   -2.860397
     46          1           0        9.161130    3.426616    3.536250
     47          1           0        8.703512   -2.716061    3.350506
     48          1           0        7.301079   -0.575777   -4.522733
     49          1           0        5.696767    2.080826   -4.132404
     50          1           0        7.126571    2.633745   -5.829165
     51          1           0        8.024611    1.145335   -5.729821
     52          1           0        8.435929    2.538327   -4.633693
     53          1           0        5.210866   -1.485272   -4.926139
     54          1           0        4.789808    0.192512   -5.321386
     55          1           0        4.224705   -0.279882   -2.462284
     56          1           0        3.520756   -1.454942   -3.619254
     57          1           0        7.432258    5.741641   -2.178443
     58          1           0        8.817034    6.601373   -1.327454
     59          1           0        7.257332    6.697730   -0.654620
     60          1           0        8.198785    5.389823    3.990126
     61          1           0        8.895189    6.982930    3.797640
     62          1           0        9.847522    5.486317    3.344233
     63          1           0        8.511590    1.615623    5.181373
     64          1           0        9.501386   -0.840794    5.141284
     65          1           0       11.305555    1.770912    4.177402
     66          1           0       11.126329    0.352412    5.204134
     67          1           0       10.846396    1.918667    5.903742
     68          1           0        6.679419   -1.199539    4.676439
     69          1           0        6.899749    0.374227    5.444063
     70          1           0        6.958749   -2.357869    6.462957
     71          1           0        6.597307   -0.719098    7.085488
     72          1           0        8.207132   -1.220458    7.183313
     73          1           0        7.926333   -5.359835    2.137879
     74          1           0        9.664062   -5.052260    1.632454
     75          1           0        8.477359   -5.946012    0.590981
     76          1           0        7.100183   -3.421511   -3.683264
     77          1           0        3.004910   -5.310313   -3.903155
     78          1           0        3.041577   -4.204317   -5.272644
     79          1           0        2.735506   -3.544476   -3.654224
     80         12           0       -8.173396    0.170832   -0.018778
     81          6           0       -5.552620   -2.085689   -0.349754
     82          6           0       -6.458398    2.180100   -2.266288
     83          6           0      -10.447840    2.603899    0.669208
     84          6           0       -9.625993   -1.907561    2.331996
     85          7           0       -6.197469    0.075081   -1.130427
     86          6           0       -5.286261   -0.969874   -1.150029
     87          6           0       -3.993612   -0.672695   -2.007127
     88          6           0       -4.227457    0.855257   -2.323914
     89          6           0       -5.709316    1.089586   -1.850595
     90          6           0       -3.331276    1.935603   -1.711364
     91          6           0       -3.909730   -1.617171   -3.220205
     92          6           0       -2.867461   -2.703290   -3.173533
     93          1           0       -2.165944   -3.048749   -4.499089
     94          7           0       -8.568348    2.044212   -0.814447
     95          6           0       -7.778328    2.610208   -1.765863
     96          6           0       -8.376630    3.931785   -2.037639
     97          6           0       -9.449789    4.131884   -1.155325
     98          6           0       -9.559813    2.945524   -0.398829
     99          6           0       -7.912696    4.756178   -3.169243
    100          6           0      -10.329782    5.331403   -0.958587
    101          8           0      -11.337999    5.337599   -0.198934
    102          6           0      -10.102553    6.597820   -1.580695
    103          7           0       -9.808651    0.296637    1.216116
    104          6           0      -10.617484    1.386857    1.314874
    105          6           0      -11.712044    1.225416    2.294939
    106          6           0      -11.505416   -0.247038    2.801900
    107          6           0      -10.230986   -0.603533    2.133652
    108          6           0      -11.941020    2.200239    3.487340
    109          6           0      -12.748818   -1.239391    2.566048
    110          6           0      -12.986619   -2.001730    1.228727
    111          7           0       -7.729701   -1.598205    0.883402
    112          6           0       -8.425299   -2.345055    1.790097
    113          6           0       -7.834272   -3.603504    1.932231
    114          6           0       -6.624605   -3.483914    1.145350
    115          6           0       -6.636579   -2.256175    0.513920
    116          6           0       -8.354910   -4.803664    2.720892
    117          6           0       -5.511132   -4.261854    0.683317
    118          8           0       -5.169458   -5.420242    0.808787
    119          6           0       -4.633075   -3.262324   -0.148296
    120          6           0       -3.415921   -2.912428    0.610498
    121          8           0       -3.135630   -1.792077    1.090606
    122          8           0       -2.560654   -3.940438    0.802276
    123          6           0       -1.185246   -3.672126    1.345010
    124          1           0       -5.883249    2.834549   -2.923617
    125          1           0      -11.184343    3.355761    0.960921
    126          1           0      -10.108002   -2.686068    2.927855
    127          1           0       -3.101158   -0.583719   -1.386799
    128          1           0       -4.195235    0.933607   -3.410573
    129          1           0       -3.890700    2.516631   -0.977800
    130          1           0       -3.155623    2.664035   -2.501594
    131          1           0       -2.401243    1.579393   -1.267013
    132          1           0       -3.632626   -0.975620   -4.057523
    133          1           0       -4.910726   -1.998022   -3.422834
    134          1           0       -3.357802   -3.609580   -2.817165
    135          1           0       -2.063046   -2.553189   -2.453337
    136          1           0       -8.778217    4.838270   -3.825422
    137          1           0       -7.055311    4.430022   -3.759398
    138          1           0       -7.658242    5.754143   -2.812375
    139          1           0       -9.033614    6.780240   -1.473442
    140          1           0      -10.819437    7.337587   -1.226774
    141          1           0      -10.215745    6.529884   -2.662701
    142          1           0      -12.561051    1.295228    1.615555
    143          1           0      -11.284445   -0.232021    3.868512
    144          1           0      -12.876132    2.752068    3.391270
    145          1           0      -11.157555    2.957421    3.533247
    146          1           0      -11.901671    1.711131    4.460579
    147          1           0      -13.597841   -0.563814    2.672395
    148          1           0      -12.654852   -1.883216    3.440684
    149          1           0      -12.171194   -1.946865    0.507959
    150          1           0      -13.952562   -1.839123    0.749746
    151          1           0      -13.091710   -3.038390    1.546015
    152          1           0       -7.632461   -5.149156    3.461095
    153          1           0       -8.477727   -5.627765    2.018317
    154          1           0       -9.336371   -4.658184    3.172959
    155          1           0       -4.235686   -3.813654   -1.000653
    156          1           0       -0.751873   -4.636644    1.080077
    157          1           0       -1.142907   -3.459667    2.412760
    158          1           0       -0.737139   -2.833206    0.811648
 ---------------------------------------------------------------------

 SCF Done:  E(RwB97XD) =  -4070.57622196     A.U. after   20 cycles

 Excitation energies and oscillator strengths:

 Excited State   1:      Singlet-A      1.6255 eV  762.76 nm  f=0.1363  <S**2>=0.000
     309 -> 315        0.19240
     311 -> 313        0.63403
     312 -> 314        0.24408
     309 <- 315        0.11682
 This state for optimization and/or second-order correction.
 Total Energy, E(TD-HF/TD-DFT) =  -4070.51648720
 Copying the excited state density for this state as the 1-particle RhoCI density.

 Excited State   2:      Singlet-A      1.6473 eV  752.67 nm  f=0.5754  <S**2>=0.000
     310 -> 316       -0.17151
     311 -> 313       -0.24176
     312 -> 314        0.63744
     310 <- 316       -0.10951

 Excited State   3:      Singlet-A      2.1413 eV  579.02 nm  f=0.0688  <S**2>=0.000
     309 -> 313        0.60201
     310 -> 314       -0.14392
     311 -> 315       -0.32297

 Excited State   4:      Singlet-A      2.1512 eV  576.34 nm  f=0.1420  <S**2>=0.000
     309 -> 313        0.13466
     310 -> 314        0.63257
     312 -> 316        0.25805

 Excited State   5:      Singlet-A      3.3738 eV  367.49 nm  f=0.0000  <S**2>=0.000
     312 -> 313        0.70675

 The electronic state is 1-A.
 Alpha  occ. eigenvalues --  -46.96637 -46.93759 -19.30422 -19.28926 -19.23999
 Alpha  occ. eigenvalues --  -19.23942 -19.23166 -19.23120 -19.22921 -19.22897
 Alpha  occ. eigenvalues --  -14.47116 -14.46651 -14.46494 -14.46326 -14.44844
 Alpha  occ. eigenvalues --  -14.44245 -14.44034 -14.42830 -10.42709 -10.42088
 Alpha  occ. eigenvalues --  -10.39095 -10.38367 -10.38340 -10.38029 -10.36346
 Alpha  occ. eigenvalues --  -10.36219 -10.35504 -10.35268 -10.35102 -10.35099
 Alpha  occ. eigenvalues --  -10.34874 -10.34813 -10.34802 -10.34687 -10.34545
 Alpha  occ. eigenvalues --  -10.34358 -10.34063 -10.34016 -10.34009 -10.33963
 Alpha  occ. eigenvalues --  -10.33103 -10.33035 -10.32933 -10.32813 -10.32592
 Alpha  occ. eigenvalues --  -10.32547 -10.32423 -10.32394 -10.32313 -10.32294
 Alpha  occ. eigenvalues --  -10.32281 -10.32143 -10.32081 -10.32028 -10.31787
 Alpha  occ. eigenvalues --  -10.31745 -10.31743 -10.31555 -10.31531 -10.31324
 Alpha  occ. eigenvalues --  -10.31233 -10.31222 -10.31209 -10.31078 -10.31024
 Alpha  occ. eigenvalues --  -10.31003 -10.30932 -10.30742 -10.30735 -10.30713
 Alpha  occ. eigenvalues --  -10.30708 -10.30683 -10.30660 -10.30393 -10.30194
 Alpha  occ. eigenvalues --  -10.30083 -10.29915 -10.29839 -10.29690 -10.29672
 Alpha  occ. eigenvalues --  -10.29566 -10.29453 -10.29421 -10.29352 -10.29081
 Alpha  occ. eigenvalues --  -10.28530  -3.22431  -3.19886  -1.95976  -1.95578
 Alpha  occ. eigenvalues --   -1.95364  -1.93492  -1.93020  -1.92865  -1.19370
 Alpha  occ. eigenvalues --   -1.16973  -1.12503  -1.11603  -1.11136  -1.10047
 Alpha  occ. eigenvalues --   -1.10038  -1.07004  -1.06728  -1.06681  -1.05993
 Alpha  occ. eigenvalues --   -1.05778  -1.05126  -1.04524  -1.04162  -1.03753
 Alpha  occ. eigenvalues --   -0.94920  -0.94024  -0.90913  -0.90807  -0.90762
 Alpha  occ. eigenvalues --   -0.90240  -0.90225  -0.90097  -0.89422  -0.89122
 Alpha  occ. eigenvalues --   -0.88805  -0.88158  -0.87927  -0.87421  -0.86698
 Alpha  occ. eigenvalues --   -0.86153  -0.85985  -0.85395  -0.84864  -0.84640
 Alpha  occ. eigenvalues --   -0.84623  -0.84225  -0.83156  -0.82780  -0.82313
 Alpha  occ. eigenvalues --   -0.82298  -0.80404  -0.79922  -0.79387  -0.79284
 Alpha  occ. eigenvalues --   -0.78629  -0.78423  -0.78333  -0.77900  -0.77117
 Alpha  occ. eigenvalues --   -0.77007  -0.74970  -0.74939  -0.73812  -0.73188
 Alpha  occ. eigenvalues --   -0.71920  -0.70970  -0.70601  -0.70508  -0.70216
 Alpha  occ. eigenvalues --   -0.69844  -0.68990  -0.68781  -0.67562  -0.67273
 Alpha  occ. eigenvalues --   -0.67014  -0.66892  -0.66872  -0.66466  -0.66221
 Alpha  occ. eigenvalues --   -0.66135  -0.64528  -0.63191  -0.62330  -0.61844
 Alpha  occ. eigenvalues --   -0.61474  -0.61346  -0.61098  -0.60989  -0.60752
 Alpha  occ. eigenvalues --   -0.60464  -0.59908  -0.59522  -0.59359  -0.59161
 Alpha  occ. eigenvalues --   -0.58339  -0.58039  -0.57911  -0.57397  -0.57084
 Alpha  occ. eigenvalues --   -0.56993  -0.56742  -0.56584  -0.56184  -0.55893
 Alpha  occ. eigenvalues --   -0.55633  -0.55444  -0.55104  -0.55008  -0.54718
 Alpha  occ. eigenvalues --   -0.54666  -0.54545  -0.54316  -0.54175  -0.54070
 Alpha  occ. eigenvalues --   -0.53808  -0.53804  -0.53658  -0.53550  -0.52871
 Alpha  occ. eigenvalues --   -0.52708  -0.52617  -0.52155  -0.52135  -0.51963
 Alpha  occ. eigenvalues --   -0.51843  -0.51725  -0.51595  -0.51487  -0.51447
 Alpha  occ. eigenvalues --   -0.51265  -0.51211  -0.51007  -0.50778  -0.50589
 Alpha  occ. eigenvalues --   -0.50571  -0.50294  -0.50135  -0.49927  -0.49783
 Alpha  occ. eigenvalues --   -0.49681  -0.49577  -0.49312  -0.49053  -0.48996
 Alpha  occ. eigenvalues --   -0.48908  -0.48631  -0.48564  -0.48331  -0.48282
 Alpha  occ. eigenvalues --   -0.48041  -0.47845  -0.47805  -0.47641  -0.47495
 Alpha  occ. eigenvalues --   -0.47340  -0.47182  -0.47177  -0.47131  -0.47035
 Alpha  occ. eigenvalues --   -0.46967  -0.46933  -0.46557  -0.46353  -0.46019
 Alpha  occ. eigenvalues --   -0.46005  -0.45777  -0.45698  -0.45656  -0.45585
 Alpha  occ. eigenvalues --   -0.45536  -0.45251  -0.45220  -0.44972  -0.44686
 Alpha  occ. eigenvalues --   -0.44561  -0.44424  -0.44293  -0.44065  -0.43524
 Alpha  occ. eigenvalues --   -0.43442  -0.43364  -0.43361  -0.43154  -0.42914
 Alpha  occ. eigenvalues --   -0.42865  -0.42556  -0.42121  -0.42080  -0.42041
 Alpha  occ. eigenvalues --   -0.41907  -0.41802  -0.41485  -0.40694  -0.40615
 Alpha  occ. eigenvalues --   -0.40028  -0.40027  -0.39717  -0.39489  -0.39245
 Alpha  occ. eigenvalues --   -0.38973  -0.38729  -0.38454  -0.38427  -0.38280
 Alpha  occ. eigenvalues --   -0.37837  -0.37298  -0.36333  -0.36192  -0.36185
 Alpha  occ. eigenvalues --   -0.35708  -0.35327  -0.34489  -0.33686  -0.33095
 Alpha  occ. eigenvalues --   -0.32849  -0.32682  -0.32473  -0.32444  -0.32038
 Alpha  occ. eigenvalues --   -0.31770  -0.31361  -0.31207  -0.26293  -0.25429
 Alpha  occ. eigenvalues --   -0.23211  -0.22798
 Alpha virt. eigenvalues --   -0.07211  -0.06925  -0.00756   0.00727   0.02257
 Alpha virt. eigenvalues --    0.02879   0.04058   0.04493   0.04589   0.06734
 Alpha virt. eigenvalues --    0.07084   0.07405   0.07589   0.08215   0.08541

 Mulliken charges:
               1
     1  Mg   0.941907
     2  C   -0.038590
     3  C   -0.073770
     4  C   -0.077964
     5  C   -0.055492
     6  N   -0.320110
     7  C   -0.053397
     8  C   -0.003072
     9  C   -0.147563
    10  C    0.056892
    11  C    0.022647
    12  C   -0.011428
    13  C   -0.137172
    14  H    0.011591
    15  N   -0.462263
    16  C    0.168141
    17  C   -0.175014
    18  C   -0.086580
    19  C    0.201787
    20  C    0.084795
    21  C    0.035878
    22  O   -0.235951
    23  C    0.005432
    24  N   -0.322701
    25  C    0.047347
    26  C   -0.151784
    27  C   -0.062491
    28  C    0.046633
    29  C    0.017163
    30  C   -0.028990
    31  C   -0.050621
    32  N   -0.501215
    33  C    0.150760
    34  C   -0.184879
    35  C   -0.035177
    36  C    0.186784
    37  C    0.087982
    38  C    0.097680
    39  O   -0.230665
    40  C   -0.050437
    41  C    0.238406
    42  O   -0.237320
    43  O   -0.346536
    44  C    0.131091
    45  H    0.013509
    46  H   -0.019668
    47  H    0.003678
    48  H    0.035568
    49  H    0.060966
    50  H    0.033135
    51  H    0.044642
    52  H    0.040655
    53  H    0.041555
    54  H    0.041071
    55  H    0.087185
    56  H    0.047307
    57  H    0.029502
    58  H    0.048724
    59  H    0.062040
    60  H    0.066530
    61  H    0.056913
    62  H    0.054691
    63  H    0.040673
    64  H    0.018351
    65  H    0.043562
    66  H    0.031377
    67  H    0.046594
    68  H    0.037134
    69  H    0.032387
    70  H    0.053289
    71  H    0.028490
    72  H    0.026850
    73  H    0.054367
    74  H    0.056879
    75  H    0.063254
    76  H    0.068202
    77  H    0.073805
    78  H    0.059438
    79  H    0.065596
    80  Mg   0.983768
    81  C   -0.026109
    82  C   -0.065100
    83  C   -0.072523
    84  C   -0.099541
    85  N   -0.335680
    86  C   -0.019446
    87  C   -0.046082
    88  C   -0.130669
    89  C    0.025522
    90  C    0.037295
    91  C    0.055111
    92  C   -0.142707
    93  H    0.033418
    94  N   -0.481761
    95  C    0.183434
    96  C   -0.191550
    97  C   -0.022741
    98  C    0.131584
    99  C    0.056783
   100  C    0.038474
   101  O   -0.281352
   102  C    0.024510
   103  N   -0.375061
   104  C    0.076190
   105  C   -0.094151
   106  C   -0.054951
   107  C    0.063607
   108  C    0.027663
   109  C   -0.032291
   110  C   -0.043595
   111  N   -0.452843
   112  C    0.130782
   113  C   -0.169574
   114  C   -0.056193
   115  C    0.215922
   116  C    0.092281
   117  C    0.091572
   118  O   -0.189744
   119  C   -0.123852
   120  C    0.263031
   121  O   -0.290630
   122  O   -0.357578
   123  C    0.146327
   124  H   -0.009084
   125  H    0.021344
   126  H   -0.013749
   127  H    0.040173
   128  H    0.026139
   129  H    0.047540
   130  H    0.031645
   131  H    0.054176
   132  H    0.035317
   133  H    0.046730
   134  H    0.065267
   135  H    0.055320
   136  H    0.056991
   137  H    0.043126
   138  H    0.035680
   139  H    0.042792
   140  H    0.066427
   141  H    0.043556
   142  H    0.047107
   143  H    0.036070
   144  H    0.044456
   145  H    0.039246
   146  H    0.036055
   147  H    0.035067
   148  H    0.040060
   149  H    0.056436
   150  H    0.040204
   151  H    0.028865
   152  H    0.060806
   153  H    0.053647
   154  H    0.024219
   155  H    0.056176
   156  H    0.067835
   157  H    0.065928
   158  H    0.056897
 Sum of Mulliken charges =  -0.00000

 Dipole moment (field-independent basis, Debye):
    X=              2.5268    Y=              2.1872    Z=             -1.1739  Tot=              3.5421
 Quadrupole moment (field-independent basis, Debye-Ang):
   XX=           -454.3643   YY=           -572.3476   ZZ=           -448.9825
   XY=              4.4003   XZ=             21.3441   YZ=            -20.0197

 Normal termination of Gaussian 16 at Sat Sep 18 14:17:07 2021.
