 Gaussian 16, Revision A.03,
 Gaussian 16:  ES64L-G16RevA.03 25-Dec-2016

 --------------------------------
 #p wB97XD/Def2SVP td=(nstates=5)
 --------------------------------

 --------------------------------
 TDDFT excited states in gaussian
 --------------------------------
 Symbolic Z-matrix:
 Charge =  0 Multiplicity = 1

                         Standard orientation:
 ---------------------------------------------------------------------
 Center     Atomic      Atomic             Coordinates (Angstroms)
 Number     Number       Type             X           Y           Z
 ---------------------------------------------------------------------
      1         12           0       22.157489   -0.687753    0.448135
      2          6           0       21.690265    2.364505   -1.403249
      3          6           0       22.416773    1.245677    3.249646
      4          6           0       22.893698   -3.504144    2.114689
      5          6           0       22.347602   -2.341490   -2.515000
      6          7           0       22.003458    1.648458    0.867715
      7          6           0       21.767786    2.612481   -0.069063
      8          6           0       21.546010    3.883896    0.658713
      9          6           0       21.910575    3.578735    2.138017
     10          6           0       22.192153    2.051389    2.158103
     11          6           0       23.167561    4.379606    2.604973
     12          6           0       20.179678    4.503016    0.501930
     13          6           0       19.941386    5.914172    1.014567
     14          1           0       19.295266    6.856902    0.088436
     15          7           0       22.478661   -1.081453    2.399591
     16          6           0       22.650183   -0.112201    3.426196
     17          6           0       22.783175   -0.860605    4.690244
     18          6           0       23.004284   -2.186559    4.327120
     19          6           0       22.854729   -2.295871    2.864643
     20          6           0       22.850163   -0.144714    6.023102
     21          6           0       23.267329   -3.420598    5.216995
     22          8           0       23.673870   -4.516701    4.788039
     23          6           0       22.984569   -3.275728    6.656580
     24          7           0       22.637140   -2.675263   -0.107789
     25          6           0       22.891316   -3.679697    0.705609
     26          6           0       23.183363   -5.014450   -0.033451
     27          6           0       22.754557   -4.649251   -1.456285
     28          6           0       22.524677   -3.158957   -1.351887
     29          6           0       24.695693   -5.408681    0.065588
     30          6           0       21.553290   -5.376958   -2.016447
     31          6           0       21.654084   -5.853803   -3.476267
     32          7           0       21.951761   -0.126249   -1.521144
     33          6           0       22.048440   -0.943701   -2.625992
     34          6           0       21.782351   -0.187305   -3.886675
     35          6           0       21.672232    1.087633   -3.369292
     36          6           0       21.826684    1.106711   -1.977863
     37          6           0       21.547998   -0.720464   -5.263562
     38          6           0       21.447431    2.464987   -3.782613
     39          8           0       21.222796    2.878969   -4.914365
     40          6           0       21.444324    3.370132   -2.529396
     41          6           0       22.351876    4.454415   -2.805446
     42          8           0       23.605675    4.411304   -2.789573
     43          8           0       21.665025    5.623599   -2.930788
     44          6           0       22.405047    6.866590   -2.937390
     45          1           0       22.416450    1.841044    4.164785
     46          1           0       23.292204   -4.383395    2.624842
     47          1           0       22.656117   -2.909290   -3.395054
     48          1           0       22.298910    4.541103    0.225579
     49          1           0       21.101368    3.826091    2.825330
     50          1           0       23.195244    4.978644    3.515734
     51          1           0       23.360581    5.069033    1.783217
     52          1           0       24.099845    3.814243    2.610760
     53          1           0       19.427222    3.943664    1.058097
     54          1           0       19.763083    4.325173   -0.489108
     55          1           0       20.882186    6.385668    1.294644
     56          1           0       19.151160    5.816306    1.758471
     57          1           0       23.648396   -0.492261    6.678617
     58          1           0       21.923944   -0.185960    6.595912
     59          1           0       23.083983    0.918424    5.961664
     60          1           0       21.977927   -2.873228    6.770453
     61          1           0       23.728647   -2.541820    6.964177
     62          1           0       22.967921   -4.284355    7.067846
     63          1           0       22.529588   -5.759670    0.420966
     64          1           0       23.516920   -4.751801   -2.228018
     65          1           0       25.191343   -5.344259   -0.902610
     66          1           0       24.814721   -6.445355    0.380655
     67          1           0       25.135372   -4.687255    0.754470
     68          1           0       20.641317   -4.789145   -1.917099
     69          1           0       21.319153   -6.118754   -1.253579
     70          1           0       21.010489   -6.728623   -3.563619
     71          1           0       22.682697   -5.985585   -3.813374
     72          1           0       21.261974   -4.985234   -4.004941
     73          1           0       20.497718   -0.774218   -5.550741
     74          1           0       22.121883   -1.645428   -5.312427
     75          1           0       22.134155   -0.138326   -5.975727
     76          1           0       20.462080    3.842418   -2.542218
     77          1           0       23.469573    6.763339   -2.725415
     78          1           0       21.926864    7.601890   -2.290838
     79          1           0       22.367114    7.359235   -3.909319
     80         12           0      -21.840632   -0.725426   -0.155539
     81          6           0      -23.402905    1.970640    1.380827
     82          6           0      -19.614421    1.580811   -1.480274
     83          6           0      -20.609375   -3.254238   -2.067438
     84          6           0      -24.267787   -2.825725    1.130369
     85          7           0      -21.583638    1.528446   -0.098677
     86          6           0      -22.322410    2.447168    0.631241
     87          6           0      -21.885744    3.946634    0.397156
     88          6           0      -20.867144    3.746796   -0.791202
     89          6           0      -20.686029    2.184855   -0.840016
     90          6           0      -21.186167    4.256357   -2.199774
     91          6           0      -21.316656    4.561124    1.689120
     92          6           0      -22.171043    5.577472    2.399907
     93          1           0      -21.438945    6.760881    3.057281
     94          7           0      -20.216280   -0.911874   -1.430429
     95          6           0      -19.420737    0.143331   -1.751880
     96          6           0      -18.415104   -0.394315   -2.688914
     97          6           0      -18.722069   -1.736979   -2.959496
     98          6           0      -19.847180   -2.047876   -2.166207
     99          6           0      -17.249813    0.412916   -3.096175
    100          6           0      -18.072880   -2.706666   -3.903000
    101          8           0      -18.384043   -3.928364   -3.968127
    102          6           0      -17.062125   -2.345866   -4.846749
    103          7           0      -22.296233   -2.716190   -0.365631
    104          6           0      -21.636305   -3.574748   -1.190203
    105          6           0      -22.178863   -4.949484   -1.170626
    106          6           0      -23.323307   -4.852371   -0.098879
    107          6           0      -23.329280   -3.396776    0.182238
    108          6           0      -22.670827   -5.691425   -2.448134
    109          6           0      -23.169636   -5.833391    1.166199
    110          6           0      -22.312912   -5.479155    2.417870
    111          7           0      -23.523357   -0.542886    0.973799
    112          6           0      -24.391957   -1.481200    1.452167
    113          6           0      -25.258705   -0.904390    2.384502
    114          6           0      -24.933204    0.504113    2.301155
    115          6           0      -23.855440    0.651449    1.450916
    116          6           0      -26.285745   -1.604121    3.272759
    117          6           0      -25.247608    1.761533    2.916405
    118          8           0      -25.976329    2.108606    3.823517
    119          6           0      -24.387878    2.820540    2.141168
    120          6           0      -25.256301    3.619876    1.254284
    121          8           0      -25.250009    3.612044    0.003624
    122          8           0      -26.146620    4.403972    1.900495
    123          6           0      -26.920964    5.438333    1.133170
    124          1           0      -18.957139    2.318201   -1.944407
    125          1           0      -20.284368   -4.097315   -2.680969
    126          1           0      -24.958467   -3.444914    1.707449
    127          1           0      -22.650476    4.519746   -0.128131
    128          1           0      -19.933019    4.192544   -0.449551
    129          1           0      -21.363458    3.416608   -2.872124
    130          1           0      -20.257197    4.672984   -2.586255
    131          1           0      -22.013356    4.963717   -2.268283
    132          1           0      -20.419263    5.095384    1.374913
    133          1           0      -20.996563    3.746793    2.339124
    134          1           0      -22.715356    5.052582    3.185405
    135          1           0      -22.964105    6.026612    1.801890
    136          1           0      -16.387679   -0.133612   -2.716082
    137          1           0      -17.174497    1.452827   -2.775737
    138          1           0      -17.186476    0.437803   -4.184019
    139          1           0      -17.412226   -1.418080   -5.298471
    140          1           0      -16.800828   -3.194199   -5.478010
    141          1           0      -16.150441   -2.025221   -4.342581
    142          1           0      -21.308034   -5.470964   -0.774439
    143          1           0      -24.280031   -5.064263   -0.574794
    144          1           0      -22.046653   -6.552412   -2.687483
    145          1           0      -22.623091   -5.042745   -3.323454
    146          1           0      -23.715335   -5.998391   -2.395748
    147          1           0      -22.687420   -6.702551    0.718336
    148          1           0      -24.217776   -6.040982    1.382153
    149          1           0      -21.945607   -4.454019    2.458091
    150          1           0      -21.531270   -6.192408    2.680959
    151          1           0      -23.005451   -5.625657    3.245702
    152          1           0      -27.289531   -1.203076    3.128628
    153          1           0      -26.024504   -1.386170    4.308175
    154          1           0      -26.286108   -2.691710    3.195664
    155          1           0      -24.046212    3.555390    2.870316
    156          1           0      -27.266051    6.007477    1.996471
    157          1           0      -27.733887    5.047908    0.521824
    158          1           0      -26.244936    5.997851    0.485878
 ---------------------------------------------------------------------

 SCF Done:  E(RwB97XD) =  -4070.62221763     A.U. after   20 cycles

 Excitation energies and oscillator strengths:

 Excited State   1:      Singlet-A      1.6445 eV  753.92 nm  f=0.3829  <S**2>=0.000
     310 -> 316        0.18306
     311 -> 313        0.68257
     310 <- 316        0.11719
 This state for optimization and/or second-order correction.
 Total Energy, E(TD-HF/TD-DFT) =  -4070.56178248
 Copying the excited state density for this state as the 1-particle RhoCI density.

 Excited State   2:      Singlet-A      1.6935 eV  732.14 nm  f=0.3783  <S**2>=0.000
     309 -> 315        0.20454
     312 -> 314        0.67930
     309 <- 315        0.12254

 Excited State   3:      Singlet-A      2.1515 eV  576.26 nm  f=0.1373  <S**2>=0.000
     310 -> 313        0.64866
     311 -> 316       -0.26451

 Excited State   4:      Singlet-A      2.2626 eV  547.96 nm  f=0.0703  <S**2>=0.000
     309 -> 314        0.61593
     312 -> 315       -0.33991

 Excited State   5:      Singlet-A      3.3480 eV  370.33 nm  f=0.0040  <S**2>=0.000
     306 -> 313        0.19001
     308 -> 313        0.65709

 The electronic state is 1-A.
 Alpha  occ. eigenvalues --  -46.94866 -46.93888 -19.30432 -19.29272 -19.24102
 Alpha  occ. eigenvalues --  -19.23849 -19.23700 -19.23283 -19.23204 -19.23008
 Alpha  occ. eigenvalues --  -14.46624 -14.46500 -14.46458 -14.45736 -14.44416
 Alpha  occ. eigenvalues --  -14.44216 -14.44163 -14.42961 -10.43023 -10.42368
 Alpha  occ. eigenvalues --  -10.39248 -10.38506 -10.38478 -10.38196 -10.35760
 Alpha  occ. eigenvalues --  -10.35013 -10.34981 -10.34816 -10.34807 -10.34680
 Alpha  occ. eigenvalues --  -10.34630 -10.34610 -10.34585 -10.34498 -10.34487
 Alpha  occ. eigenvalues --  -10.34464 -10.34144 -10.34110 -10.34094 -10.33222
 Alpha  occ. eigenvalues --  -10.32889 -10.32564 -10.32548 -10.32522 -10.32402
 Alpha  occ. eigenvalues --  -10.32281 -10.32231 -10.32195 -10.32164 -10.32058
 Alpha  occ. eigenvalues --  -10.32043 -10.31894 -10.31874 -10.31746 -10.31720
 Alpha  occ. eigenvalues --  -10.31521 -10.31456 -10.31431 -10.31364 -10.31339
 Alpha  occ. eigenvalues --  -10.31283 -10.31135 -10.31133 -10.31100 -10.31055
 Alpha  occ. eigenvalues --  -10.30989 -10.30847 -10.30826 -10.30809 -10.30785
 Alpha  occ. eigenvalues --  -10.30253 -10.30205 -10.30115 -10.29985 -10.29969
 Alpha  occ. eigenvalues --  -10.29869 -10.29863 -10.29861 -10.29860 -10.29792
 Alpha  occ. eigenvalues --  -10.29791 -10.29587 -10.29546 -10.29523 -10.28670
 Alpha  occ. eigenvalues --  -10.28666  -3.20903  -3.20016  -1.94504  -1.94021
 Alpha  occ. eigenvalues --   -1.93884  -1.93622  -1.93149  -1.92995  -1.18336
 Alpha  occ. eigenvalues --   -1.17297  -1.11770  -1.11741  -1.11304  -1.10157
 Alpha  occ. eigenvalues --   -1.08183  -1.07795  -1.07267  -1.06892  -1.06641
 Alpha  occ. eigenvalues --   -1.06127  -1.05261  -1.05114  -1.04293  -1.04260
 Alpha  occ. eigenvalues --   -0.95185  -0.95079  -0.91975  -0.91214  -0.90896
 Alpha  occ. eigenvalues --   -0.90439  -0.90344  -0.90214  -0.89565  -0.89546
 Alpha  occ. eigenvalues --   -0.89033  -0.88940  -0.88602  -0.88056  -0.86653
 Alpha  occ. eigenvalues --   -0.86290  -0.85980  -0.85573  -0.84844  -0.84740
 Alpha  occ. eigenvalues --   -0.84554  -0.84353  -0.83223  -0.82935  -0.82887
 Alpha  occ. eigenvalues --   -0.82505  -0.80658  -0.80533  -0.79671  -0.79432
 Alpha  occ. eigenvalues --   -0.79399  -0.78785  -0.78508  -0.78141  -0.77242
 Alpha  occ. eigenvalues --   -0.77206  -0.75099  -0.75013  -0.73954  -0.73325
 Alpha  occ. eigenvalues --   -0.72034  -0.71480  -0.71251  -0.70733  -0.70067
 Alpha  occ. eigenvalues --   -0.69976  -0.69114  -0.68555  -0.68353  -0.67398
 Alpha  occ. eigenvalues --   -0.67144  -0.67133  -0.67029  -0.66633  -0.66591
 Alpha  occ. eigenvalues --   -0.66378  -0.64561  -0.63483  -0.62416  -0.61966
 Alpha  occ. eigenvalues --   -0.61925  -0.61617  -0.61517  -0.61153  -0.60787
 Alpha  occ. eigenvalues --   -0.60598  -0.60389  -0.59733  -0.59649  -0.59300
 Alpha  occ. eigenvalues --   -0.58497  -0.58161  -0.57723  -0.57566  -0.57546
 Alpha  occ. eigenvalues --   -0.56882  -0.56396  -0.56354  -0.55986  -0.55853
 Alpha  occ. eigenvalues --   -0.55781  -0.55444  -0.55198  -0.55153  -0.54908
 Alpha  occ. eigenvalues --   -0.54849  -0.54461  -0.54387  -0.53972  -0.53935
 Alpha  occ. eigenvalues --   -0.53824  -0.53818  -0.53664  -0.53153  -0.53014
 Alpha  occ. eigenvalues --   -0.52803  -0.52744  -0.52475  -0.52302  -0.52245
 Alpha  occ. eigenvalues --   -0.52101  -0.51888  -0.51725  -0.51609  -0.51578
 Alpha  occ. eigenvalues --   -0.51376  -0.51031  -0.50919  -0.50726  -0.50626
 Alpha  occ. eigenvalues --   -0.50367  -0.50337  -0.50292  -0.50102  -0.49905
 Alpha  occ. eigenvalues --   -0.49842  -0.49784  -0.49715  -0.49319  -0.49187
 Alpha  occ. eigenvalues --   -0.49182  -0.49001  -0.48704  -0.48493  -0.48469
 Alpha  occ. eigenvalues --   -0.48181  -0.48171  -0.47992  -0.47930  -0.47619
 Alpha  occ. eigenvalues --   -0.47537  -0.47315  -0.47192  -0.47115  -0.47098
 Alpha  occ. eigenvalues --   -0.47037  -0.46711  -0.46489  -0.46184  -0.45907
 Alpha  occ. eigenvalues --   -0.45902  -0.45858  -0.45829  -0.45708  -0.45655
 Alpha  occ. eigenvalues --   -0.45363  -0.45360  -0.45090  -0.44847  -0.44700
 Alpha  occ. eigenvalues --   -0.44489  -0.44406  -0.44376  -0.44006  -0.43698
 Alpha  occ. eigenvalues --   -0.43672  -0.43532  -0.43529  -0.43420  -0.43237
 Alpha  occ. eigenvalues --   -0.43043  -0.43003  -0.42790  -0.42699  -0.42246
 Alpha  occ. eigenvalues --   -0.42070  -0.42018  -0.41836  -0.41603  -0.40837
 Alpha  occ. eigenvalues --   -0.40735  -0.40144  -0.39866  -0.39819  -0.39248
 Alpha  occ. eigenvalues --   -0.38857  -0.38550  -0.38399  -0.38044  -0.37938
 Alpha  occ. eigenvalues --   -0.37691  -0.37616  -0.36315  -0.35908  -0.35519
 Alpha  occ. eigenvalues --   -0.35459  -0.35191  -0.34766  -0.33804  -0.33225
 Alpha  occ. eigenvalues --   -0.33014  -0.32781  -0.32558  -0.32555  -0.32462
 Alpha  occ. eigenvalues --   -0.32168  -0.31938  -0.31498  -0.26029  -0.25564
 Alpha  occ. eigenvalues --   -0.22927  -0.22749
 Alpha virt. eigenvalues --   -0.07056  -0.06535   0.00074   0.00600   0.02741
 Alpha virt. eigenvalues --    0.02763   0.04450   0.04594   0.06104   0.06621
 Alpha virt. eigenvalues --    0.06656   0.07481   0.08076   0.08104   0.08409

 Mulliken charges:
               1
     1  Mg   0.974585
     2  C    0.002930
     3  C   -0.074069
     4  C   -0.058861
     5  C   -0.108628
     6  N   -0.330729
     7  C   -0.063386
     8  C    0.015660
     9  C   -0.121718
    10  C    0.063847
    11  C    0.011236
    12  C    0.011731
    13  C   -0.119969
    14  H    0.035285
    15  N   -0.515806
    16  C    0.190047
    17  C   -0.128821
    18  C   -0.091737
    19  C    0.167198
    20  C    0.036521
    21  C    0.055246
    22  O   -0.254764
    23  C    0.008648
    24  N   -0.326325
    25  C   -0.014174
    26  C   -0.059966
    27  C   -0.104884
    28  C    0.037549
    29  C    0.034224
    30  C    0.005162
    31  C   -0.035323
    32  N   -0.421143
    33  C    0.133215
    34  C   -0.209249
    35  C   -0.009003
    36  C    0.152668
    37  C    0.108961
    38  C    0.073370
    39  O   -0.209199
    40  C   -0.032107
    41  C    0.264685
    42  O   -0.283625
    43  O   -0.351477
    44  C    0.134885
    45  H   -0.012366
    46  H    0.030657
    47  H    0.003577
    48  H    0.033954
    49  H    0.037509
    50  H    0.041024
    51  H    0.017669
    52  H    0.035942
    53  H    0.014260
    54  H    0.025741
    55  H    0.056604
    56  H    0.056688
    57  H    0.040400
    58  H    0.054018
    59  H    0.038994
    60  H    0.053158
    61  H    0.060466
    62  H    0.061938
    63  H    0.043777
    64  H    0.028151
    65  H    0.033586
    66  H    0.048042
    67  H    0.054515
    68  H    0.023062
    69  H    0.008877
    70  H    0.052206
    71  H    0.038576
    72  H    0.041136
    73  H    0.077447
    74  H    0.017118
    75  H    0.049457
    76  H    0.080837
    77  H    0.066865
    78  H    0.047324
    79  H    0.046100
    80  Mg   0.984051
    81  C   -0.026445
    82  C   -0.064997
    83  C   -0.072259
    84  C   -0.099277
    85  N   -0.335695
    86  C   -0.019158
    87  C   -0.046022
    88  C   -0.130721
    89  C    0.025502
    90  C    0.037437
    91  C    0.055319
    92  C   -0.144096
    93  H    0.038383
    94  N   -0.481692
    95  C    0.183535
    96  C   -0.191570
    97  C   -0.022529
    98  C    0.131643
    99  C    0.056607
   100  C    0.038360
   101  O   -0.281133
   102  C    0.024790
   103  N   -0.375356
   104  C    0.076326
   105  C   -0.094272
   106  C   -0.055031
   107  C    0.063599
   108  C    0.027633
   109  C   -0.032305
   110  C   -0.043699
   111  N   -0.452754
   112  C    0.130516
   113  C   -0.169493
   114  C   -0.056366
   115  C    0.216096
   116  C    0.092248
   117  C    0.091587
   118  O   -0.190089
   119  C   -0.123834
   120  C    0.263181
   121  O   -0.290779
   122  O   -0.356969
   123  C    0.146659
   124  H   -0.009005
   125  H    0.021568
   126  H   -0.013523
   127  H    0.038393
   128  H    0.026761
   129  H    0.047609
   130  H    0.032130
   131  H    0.052300
   132  H    0.035789
   133  H    0.046997
   134  H    0.065106
   135  H    0.052678
   136  H    0.057328
   137  H    0.043332
   138  H    0.035743
   139  H    0.042600
   140  H    0.066619
   141  H    0.043674
   142  H    0.047295
   143  H    0.036206
   144  H    0.044662
   145  H    0.039221
   146  H    0.036240
   147  H    0.035243
   148  H    0.040168
   149  H    0.056347
   150  H    0.040406
   151  H    0.028975
   152  H    0.060722
   153  H    0.053766
   154  H    0.024481
   155  H    0.056494
   156  H    0.066033
   157  H    0.067035
   158  H    0.053677
 Sum of Mulliken charges =  -0.00000

 Dipole moment (field-independent basis, Debye):
    X=              0.6665    Y=              0.3135    Z=              2.9434  Tot=              3.0341
 Quadrupole moment (field-independent basis, Debye-Ang):
   XX=           -704.3586   YY=           -467.6938   ZZ=           -520.6920
   XY=             -4.0122   XZ=            118.9272   YZ=             14.2371

 Normal termination of Gaussian 16 at Mon Sep 20 02:02:09 2021.
