 Gaussian 16, Revision A.03,
 Gaussian 16:  ES64L-G16RevA.03 25-Dec-2016

 --------------------------------
 #p wB97XD/Def2SVP td=(nstates=5)
 --------------------------------

 --------------------------------
 TDDFT excited states in gaussian
 --------------------------------
 Symbolic Z-matrix:
 Charge =  0 Multiplicity = 1

                         Standard orientation:
 ---------------------------------------------------------------------
 Center     Atomic      Atomic             Coordinates (Angstroms)
 Number     Number       Type             X           Y           Z
 ---------------------------------------------------------------------
      1         12           0      -11.631308    0.159093   -0.398476
      2          6           0       -8.597036   -1.422775    0.115744
      3          6           0      -13.263921   -2.823117    0.237727
      4          6           0      -14.512794    1.901334   -0.160844
      5          6           0       -9.789282    3.153773   -0.675011
      6          7           0      -10.997029   -1.834795    0.401762
      7          6           0       -9.727050   -2.242571    0.326306
      8          6           0       -9.610954   -3.721210    0.809872
      9          6           0      -11.109470   -4.235572    0.576787
     10          6           0      -11.871516   -2.881442    0.309827
     11          6           0      -11.208809   -5.329201   -0.513907
     12          6           0       -9.262899   -3.769716    2.280219
     13          6           0       -8.256999   -4.837626    2.680648
     14          1           0       -8.356363   -5.639107    4.033010
     15          7           0      -13.660616   -0.467017   -0.177911
     16          6           0      -14.136193   -1.683120    0.140963
     17          6           0      -15.559715   -1.591594    0.177989
     18          6           0      -15.970088   -0.254990   -0.111783
     19          6           0      -14.703378    0.481561   -0.203360
     20          6           0      -16.414346   -2.799498    0.291531
     21          6           0      -17.381289    0.213110   -0.069236
     22          8           0      -18.285644   -0.582313    0.124066
     23          6           0      -17.748147    1.668830   -0.331680
     24          7           0      -12.088104    2.323853   -0.506409
     25          6           0      -13.374082    2.724330   -0.301134
     26          6           0      -13.441279    4.204653   -0.109474
     27          6           0      -11.896288    4.594359   -0.272246
     28          6           0      -11.161738    3.311549   -0.573267
     29          6           0      -14.416794    4.934541   -1.051670
     30          6           0      -11.249326    5.402053    0.938544
     31          6           0      -10.486057    6.723046    0.683563
     32          7           0       -9.655053    0.767955   -0.331860
     33          6           0       -9.067464    1.977815   -0.529923
     34          6           0       -7.701710    1.814485   -0.765660
     35          6           0       -7.421238    0.472126   -0.551589
     36          6           0       -8.621456   -0.104685   -0.219708
     37          6           0       -6.711257    2.978919   -1.060419
     38          6           0       -6.438982   -0.507965   -0.544197
     39          8           0       -5.227677   -0.364600   -0.668050
     40          6           0       -7.107921   -1.880889   -0.052568
     41          6           0       -7.076464   -2.877641   -1.061234
     42          8           0       -7.757642   -3.017962   -2.079764
     43          8           0       -6.076533   -3.769771   -0.686398
     44          6           0       -5.767938   -4.928895   -1.506186
     45          1           0      -13.778474   -3.785035    0.281807
     46          1           0      -15.355986    2.593887   -0.108151
     47          1           0       -9.323775    4.124335   -0.859361
     48          1           0       -8.837790   -4.206496    0.214855
     49          1           0      -11.605849   -4.582279    1.482575
     50          1           0      -10.254243   -5.489030   -1.014879
     51          1           0      -11.967909   -5.046629   -1.244002
     52          1           0      -11.568499   -6.238465   -0.032831
     53          1           0      -10.085307   -3.842363    2.992175
     54          1           0       -8.921762   -2.760129    2.509193
     55          1           0       -7.271560   -4.381707    2.586517
     56          1           0       -8.357725   -5.539121    1.852498
     57          1           0      -16.688047   -2.995451   -0.745022
     58          1           0      -17.284276   -2.616859    0.922666
     59          1           0      -15.891478   -3.657566    0.714079
     60          1           0      -17.547383    2.194639    0.601888
     61          1           0      -18.833703    1.684174   -0.425690
     62          1           0      -17.193081    2.060265   -1.184097
     63          1           0      -13.775790    4.243758    0.926687
     64          1           0      -11.747108    5.311924   -1.079079
     65          1           0      -15.272289    5.212975   -0.435392
     66          1           0      -14.714674    4.328507   -1.907917
     67          1           0      -13.959187    5.861603   -1.396143
     68          1           0      -10.536626    4.748099    1.440835
     69          1           0      -11.986831    5.727833    1.672396
     70          1           0       -9.483164    6.323329    0.534016
     71          1           0      -10.486739    7.340353    1.580980
     72          1           0      -10.637075    7.273231   -0.245100
     73          1           0       -6.538370    3.525854   -0.134437
     74          1           0       -7.065120    3.748097   -1.747166
     75          1           0       -5.755213    2.595559   -1.418028
     76          1           0       -6.585545   -2.150521    0.865452
     77          1           0       -4.705589   -5.134097   -1.377890
     78          1           0       -6.085386   -4.859948   -2.546994
     79          1           0       -6.255906   -5.790367   -1.050057
     80         12           0       10.741300    0.859705   -0.215545
     81          6           0       11.930105   -2.359305   -0.608162
     82          6           0        7.672421   -0.474792    0.591564
     83          6           0        9.719824    3.992853    0.753567
     84          6           0       13.869192    2.111661   -0.922716
     85          7           0        9.958311   -1.159990    0.163114
     86          6           0       10.638090   -2.322623   -0.142292
     87          6           0        9.774709   -3.561549    0.080076
     88          6           0        8.336599   -2.923067    0.128101
     89          6           0        8.674645   -1.456238    0.351098
     90          6           0        7.357556   -3.228357   -1.094397
     91          6           0       10.148931   -4.458894    1.302644
     92          6           0       10.174984   -5.949915    1.040459
     93          1           0        9.038500   -6.675657    1.743672
     94          7           0        8.963699    1.599723    0.565810
     95          6           0        7.835529    0.918035    0.794332
     96          6           0        6.774284    1.808565    1.231297
     97          6           0        7.244111    3.108366    1.319276
     98          6           0        8.710753    2.961013    0.924830
     99          6           0        5.317699    1.279451    1.639302
    100          6           0        6.416017    4.391504    1.666129
    101          8           0        5.201072    4.259373    1.987157
    102          6           0        7.027216    5.740180    1.677575
    103          7           0       11.754450    2.820325    0.142353
    104          6           0       11.101923    3.939128    0.358834
    105          6           0       11.928461    5.170537    0.052400
    106          6           0       13.334077    4.659804   -0.413405
    107          6           0       12.991137    3.095327   -0.490013
    108          6           0       11.293153    6.363131   -0.731378
    109          6           0       14.600467    4.932690    0.448949
    110          6           0       15.891539    4.753312   -0.322638
    111          7           0       12.580373    0.035176   -0.671709
    112          6           0       13.785905    0.682264   -1.028963
    113          6           0       14.724705   -0.328193   -1.434040
    114          6           0       14.046249   -1.566602   -1.325605
    115          6           0       12.786860   -1.251865   -0.822756
    116          6           0       16.071900   -0.097779   -2.102475
    117          6           0       14.209638   -2.917144   -1.545725
    118          8           0       15.126180   -3.631660   -1.848189
    119          6           0       12.853414   -3.553555   -0.938745
    120          6           0       13.277835   -4.082285    0.430511
    121          8           0       13.409330   -3.415854    1.439054
    122          8           0       13.496360   -5.442440    0.282214
    123          6           0       14.019771   -6.135472    1.454983
    124          1           0        6.637791   -0.816881    0.659734
    125          1           0        9.325174    4.962202    1.064127
    126          1           0       14.860242    2.369164   -1.302110
    127          1           0        9.818051   -4.155973   -0.832087
    128          1           0        7.910482   -3.192588    1.095163
    129          1           0        6.677177   -2.378250   -1.045579
    130          1           0        6.695565   -4.080141   -0.936443
    131          1           0        7.816372   -3.338899   -2.076834
    132          1           0        9.372911   -4.220022    2.030137
    133          1           0       11.016226   -4.157681    1.889794
    134          1           0       11.141652   -6.320943    1.381798
    135          1           0       10.074467   -6.189667   -0.018269
    136          1           0        5.187699    0.197214    1.597542
    137          1           0        4.554715    1.733844    1.006374
    138          1           0        5.078227    1.452355    2.687605
    139          1           0        7.422086    5.968826    0.688180
    140          1           0        7.709583    5.865084    2.518437
    141          1           0        6.171586    6.413395    1.712766
    142          1           0       12.279781    5.728577    0.920554
    143          1           0       13.507800    4.827489   -1.476590
    144          1           0       10.218839    6.174036   -0.741196
    145          1           0       11.743946    6.538902   -1.708781
    146          1           0       11.401753    7.330091   -0.239948
    147          1           0       14.513974    4.285463    1.321608
    148          1           0       14.456219    5.947135    0.820551
    149          1           0       16.621303    5.447259    0.095223
    150          1           0       15.828645    4.957630   -1.392126
    151          1           0       16.300979    3.767176   -0.103409
    152          1           0       16.524730   -1.003111   -2.506826
    153          1           0       16.724982    0.376215   -1.370877
    154          1           0       15.987087    0.605446   -2.931034
    155          1           0       12.401667   -4.262900   -1.632864
    156          1           0       15.022329   -5.768782    1.675867
    157          1           0       14.002055   -7.217384    1.328156
    158          1           0       13.418635   -5.877209    2.326327
 ---------------------------------------------------------------------

 SCF Done:  E(RwB97XD) =  -4070.58833405     A.U. after   19 cycles

 Excitation energies and oscillator strengths:

 Excited State   1:      Singlet-A      1.6372 eV  757.28 nm  f=0.4288  <S**2>=0.000
     309 -> 315       -0.19082
     311 -> 313        0.68239
     309 <- 315       -0.11962
 This state for optimization and/or second-order correction.
 Total Energy, E(TD-HF/TD-DFT) =  -4070.52816675
 Copying the excited state density for this state as the 1-particle RhoCI density.

 Excited State   2:      Singlet-A      1.8743 eV  661.50 nm  f=0.3666  <S**2>=0.000
     310 -> 316        0.14190
     312 -> 314        0.68578

 Excited State   3:      Singlet-A      2.1723 eV  570.76 nm  f=0.0921  <S**2>=0.000
     309 -> 313        0.63443
     311 -> 315        0.29667

 Excited State   4:      Singlet-A      2.2263 eV  556.90 nm  f=0.1269  <S**2>=0.000
     310 -> 314        0.64372
     312 -> 316       -0.24669
     312 -> 318        0.10754

 Excited State   5:      Singlet-A      3.2596 eV  380.37 nm  f=0.0049  <S**2>=0.000
     306 -> 313        0.67175
     311 -> 315       -0.12920

 The electronic state is 1-A.
 Alpha  occ. eigenvalues --  -46.96063 -46.95664 -19.29940 -19.29620 -19.25240
 Alpha  occ. eigenvalues --  -19.25185 -19.24660 -19.24362 -19.23400 -19.22574
 Alpha  occ. eigenvalues --  -14.46960 -14.46832 -14.46647 -14.46545 -14.45129
 Alpha  occ. eigenvalues --  -14.44455 -14.43850 -14.42934 -10.43505 -10.42819
 Alpha  occ. eigenvalues --  -10.40999 -10.39295 -10.38607 -10.37262 -10.37215
 Alpha  occ. eigenvalues --  -10.36451 -10.35744 -10.35603 -10.35476 -10.35423
 Alpha  occ. eigenvalues --  -10.35382 -10.35185 -10.35160 -10.34921 -10.34789
 Alpha  occ. eigenvalues --  -10.34272 -10.33982 -10.33841 -10.33686 -10.33466
 Alpha  occ. eigenvalues --  -10.33288 -10.32844 -10.32803 -10.32525 -10.32509
 Alpha  occ. eigenvalues --  -10.32422 -10.32397 -10.32379 -10.32347 -10.32282
 Alpha  occ. eigenvalues --  -10.32265 -10.32219 -10.32170 -10.32124 -10.32052
 Alpha  occ. eigenvalues --  -10.31953 -10.31944 -10.31924 -10.31481 -10.31467
 Alpha  occ. eigenvalues --  -10.31273 -10.31108 -10.31104 -10.31025 -10.30949
 Alpha  occ. eigenvalues --  -10.30942 -10.30863 -10.30765 -10.30761 -10.30761
 Alpha  occ. eigenvalues --  -10.30740 -10.30710 -10.30700 -10.30638 -10.30468
 Alpha  occ. eigenvalues --  -10.30407 -10.30023 -10.29938 -10.29804 -10.29750
 Alpha  occ. eigenvalues --  -10.29737 -10.29578 -10.29016 -10.28902 -10.28860
 Alpha  occ. eigenvalues --  -10.26911  -3.21853  -3.21560  -1.95450  -1.95129
 Alpha  occ. eigenvalues --   -1.94965  -1.94811  -1.94685  -1.94529  -1.17965
 Alpha  occ. eigenvalues --   -1.17485  -1.12325  -1.12226  -1.11858  -1.11337
 Alpha  occ. eigenvalues --   -1.09962  -1.09768  -1.07597  -1.06521  -1.06123
 Alpha  occ. eigenvalues --   -1.05906  -1.05791  -1.05194  -1.04702  -1.04459
 Alpha  occ. eigenvalues --   -0.95942  -0.93387  -0.91442  -0.91044  -0.90966
 Alpha  occ. eigenvalues --   -0.90295  -0.90266  -0.89869  -0.89867  -0.88919
 Alpha  occ. eigenvalues --   -0.88883  -0.88601  -0.88207  -0.87634  -0.87414
 Alpha  occ. eigenvalues --   -0.86566  -0.86325  -0.85468  -0.85043  -0.84987
 Alpha  occ. eigenvalues --   -0.84198  -0.83911  -0.83492  -0.82782  -0.82538
 Alpha  occ. eigenvalues --   -0.82077  -0.80167  -0.79594  -0.79497  -0.79017
 Alpha  occ. eigenvalues --   -0.78547  -0.78545  -0.78467  -0.77173  -0.77162
 Alpha  occ. eigenvalues --   -0.77011  -0.75537  -0.74422  -0.74271  -0.73595
 Alpha  occ. eigenvalues --   -0.71875  -0.71591  -0.71233  -0.71017  -0.70131
 Alpha  occ. eigenvalues --   -0.69767  -0.69393  -0.69285  -0.68130  -0.67883
 Alpha  occ. eigenvalues --   -0.67528  -0.67461  -0.67325  -0.66903  -0.66615
 Alpha  occ. eigenvalues --   -0.65951  -0.64760  -0.63594  -0.62526  -0.61960
 Alpha  occ. eigenvalues --   -0.61944  -0.61341  -0.61134  -0.61109  -0.60949
 Alpha  occ. eigenvalues --   -0.60385  -0.60205  -0.60041  -0.59683  -0.59245
 Alpha  occ. eigenvalues --   -0.58375  -0.58372  -0.58149  -0.57498  -0.57326
 Alpha  occ. eigenvalues --   -0.56890  -0.56829  -0.56363  -0.56015  -0.55827
 Alpha  occ. eigenvalues --   -0.55578  -0.55554  -0.55372  -0.55200  -0.55026
 Alpha  occ. eigenvalues --   -0.54626  -0.54613  -0.54292  -0.54087  -0.54042
 Alpha  occ. eigenvalues --   -0.53873  -0.53847  -0.53485  -0.53432  -0.53258
 Alpha  occ. eigenvalues --   -0.52892  -0.52590  -0.52399  -0.52331  -0.52119
 Alpha  occ. eigenvalues --   -0.52036  -0.51974  -0.51869  -0.51657  -0.51558
 Alpha  occ. eigenvalues --   -0.51460  -0.51314  -0.51015  -0.50958  -0.50897
 Alpha  occ. eigenvalues --   -0.50529  -0.50369  -0.50326  -0.50240  -0.50059
 Alpha  occ. eigenvalues --   -0.49468  -0.49437  -0.49188  -0.49069  -0.48868
 Alpha  occ. eigenvalues --   -0.48739  -0.48683  -0.48566  -0.48408  -0.48112
 Alpha  occ. eigenvalues --   -0.48029  -0.47953  -0.47937  -0.47832  -0.47789
 Alpha  occ. eigenvalues --   -0.47460  -0.47294  -0.47132  -0.47044  -0.47023
 Alpha  occ. eigenvalues --   -0.46881  -0.46711  -0.46700  -0.46527  -0.46515
 Alpha  occ. eigenvalues --   -0.46154  -0.45870  -0.45766  -0.45599  -0.45425
 Alpha  occ. eigenvalues --   -0.45413  -0.45240  -0.45123  -0.44990  -0.44863
 Alpha  occ. eigenvalues --   -0.44669  -0.44367  -0.44361  -0.44192  -0.44042
 Alpha  occ. eigenvalues --   -0.44014  -0.43901  -0.43895  -0.43837  -0.43419
 Alpha  occ. eigenvalues --   -0.43360  -0.42954  -0.42567  -0.42260  -0.42232
 Alpha  occ. eigenvalues --   -0.42005  -0.41682  -0.41668  -0.41156  -0.40797
 Alpha  occ. eigenvalues --   -0.40336  -0.40177  -0.39939  -0.39912  -0.39444
 Alpha  occ. eigenvalues --   -0.39279  -0.39197  -0.38513  -0.38340  -0.38245
 Alpha  occ. eigenvalues --   -0.37621  -0.37200  -0.36885  -0.36533  -0.36302
 Alpha  occ. eigenvalues --   -0.36071  -0.35799  -0.35248  -0.34371  -0.34071
 Alpha  occ. eigenvalues --   -0.34025  -0.33310  -0.32979  -0.32710  -0.32657
 Alpha  occ. eigenvalues --   -0.31680  -0.31523  -0.31077  -0.26517  -0.25964
 Alpha  occ. eigenvalues --   -0.23384  -0.23268
 Alpha virt. eigenvalues --   -0.07586  -0.06642  -0.00410   0.00240   0.01856
 Alpha virt. eigenvalues --    0.02277   0.04178   0.04411   0.05024   0.05640
 Alpha virt. eigenvalues --    0.06177   0.07146   0.07704   0.08092   0.08263

 Mulliken charges:
               1
     1  Mg   0.938927
     2  C   -0.063555
     3  C   -0.088153
     4  C   -0.039644
     5  C   -0.124188
     6  N   -0.332194
     7  C    0.012970
     8  C   -0.124786
     9  C   -0.102949
    10  C    0.083913
    11  C    0.035812
    12  C    0.029674
    13  C   -0.116579
    14  H    0.044791
    15  N   -0.455902
    16  C    0.158322
    17  C   -0.182137
    18  C   -0.057293
    19  C    0.198401
    20  C    0.076066
    21  C    0.004721
    22  O   -0.235970
    23  C    0.002892
    24  N   -0.354074
    25  C   -0.009540
    26  C   -0.086519
    27  C   -0.051335
    28  C    0.062298
    29  C    0.022926
    30  C   -0.053268
    31  C   -0.067810
    32  N   -0.433863
    33  C    0.194318
    34  C   -0.187344
    35  C    0.053597
    36  C    0.162426
    37  C    0.075245
    38  C    0.056206
    39  O   -0.207169
    40  C   -0.077650
    41  C    0.295585
    42  O   -0.257360
    43  O   -0.388942
    44  C    0.139876
    45  H   -0.000104
    46  H   -0.030089
    47  H   -0.003554
    48  H    0.036977
    49  H    0.045757
    50  H    0.048855
    51  H    0.034029
    52  H    0.036066
    53  H    0.037268
    54  H    0.027243
    55  H    0.055685
    56  H    0.044402
    57  H    0.060721
    58  H    0.065660
    59  H    0.024448
    60  H    0.059378
    61  H    0.052025
    62  H    0.063619
    63  H    0.053078
    64  H    0.024075
    65  H    0.042399
    66  H    0.053132
    67  H    0.040437
    68  H    0.043707
    69  H    0.030942
    70  H    0.022398
    71  H    0.048057
    72  H    0.040082
    73  H    0.047789
    74  H    0.037760
    75  H    0.062215
    76  H    0.082993
    77  H    0.056437
    78  H    0.068848
    79  H    0.036521
    80  Mg   0.966468
    81  C   -0.041334
    82  C   -0.128651
    83  C   -0.109283
    84  C   -0.042203
    85  N   -0.333105
    86  C   -0.011690
    87  C   -0.074623
    88  C   -0.076061
    89  C    0.063572
    90  C    0.034821
    91  C    0.028264
    92  C   -0.107046
    93  H    0.024677
    94  N   -0.466061
    95  C    0.185953
    96  C   -0.152774
    97  C   -0.065600
    98  C    0.142459
    99  C    0.072067
   100  C    0.052337
   101  O   -0.253465
   102  C    0.003755
   103  N   -0.330929
   104  C    0.128689
   105  C   -0.083395
   106  C   -0.090982
   107  C    0.027147
   108  C    0.020558
   109  C    0.009846
   110  C   -0.034474
   111  N   -0.438471
   112  C    0.046246
   113  C   -0.148407
   114  C    0.002657
   115  C    0.157710
   116  C    0.059548
   117  C    0.057837
   118  O   -0.195421
   119  C   -0.117694
   120  C    0.296933
   121  O   -0.238912
   122  O   -0.364163
   123  C    0.141348
   124  H   -0.002850
   125  H   -0.019658
   126  H   -0.017046
   127  H    0.023244
   128  H    0.032884
   129  H    0.025634
   130  H    0.044803
   131  H    0.053783
   132  H    0.020294
   133  H    0.052673
   134  H    0.048064
   135  H    0.048663
   136  H    0.020050
   137  H    0.065755
   138  H    0.059528
   139  H    0.061763
   140  H    0.091012
   141  H    0.054944
   142  H    0.038246
   143  H    0.031509
   144  H    0.030368
   145  H    0.041497
   146  H    0.028960
   147  H    0.042092
   148  H    0.025661
   149  H    0.032284
   150  H    0.043025
   151  H    0.051696
   152  H    0.058439
   153  H    0.037905
   154  H    0.040642
   155  H    0.054761
   156  H    0.058057
   157  H    0.060826
   158  H    0.042342
 Sum of Mulliken charges =  -0.00000

 Dipole moment (field-independent basis, Debye):
    X=             -2.7957    Y=              6.1605    Z=              0.0517  Tot=              6.7654
 Quadrupole moment (field-independent basis, Debye-Ang):
   XX=           -608.0822   YY=           -437.1286   ZZ=           -517.4869
   XY=             32.8560   XZ=              2.2297   YZ=            -13.5010

 Normal termination of Gaussian 16 at Sun Sep 19 03:19:42 2021.
