 Gaussian 16, Revision A.03,
 Gaussian 16:  ES64L-G16RevA.03 25-Dec-2016

 --------------------------------
 #p wB97XD/Def2SVP td=(nstates=5)
 --------------------------------

 --------------------------------
 TDDFT excited states in gaussian
 --------------------------------
 Symbolic Z-matrix:
 Charge =  0 Multiplicity = 1

                         Standard orientation:
 ---------------------------------------------------------------------
 Center     Atomic      Atomic             Coordinates (Angstroms)
 Number     Number       Type             X           Y           Z
 ---------------------------------------------------------------------
      1         12           0       26.397227    0.475622   -0.269937
      2          6           0       25.335742   -2.788670    0.151017
      3          6           0       23.177138    1.567458    0.745808
      4          6           0       27.522257    3.707876   -0.099627
      5          6           0       29.643449   -0.583410   -0.789076
      6          7           0       24.471721   -0.539446    0.238379
      7          6           0       24.321564   -1.895191    0.441298
      8          6           0       22.946726   -2.294318    1.097164
      9          6           0       22.121133   -0.935546    0.906642
     10          6           0       23.283766    0.151512    0.561281
     11          6           0       20.944313   -0.888839   -0.140886
     12          6           0       23.021260   -2.716183    2.522430
     13          6           0       22.592934   -4.108912    2.943175
     14          1           0       22.059336   -4.245771    4.378201
     15          7           0       25.440941    2.401108    0.164937
     16          6           0       24.086398    2.576823    0.505116
     17          6           0       23.796737    3.971251    0.614239
     18          6           0       25.124628    4.632946    0.521583
     19          6           0       26.135985    3.580892    0.193685
     20          6           0       22.436935    4.536304    1.037771
     21          6           0       25.276883    6.151176    0.719768
     22          8           0       24.392157    6.958038    0.990616
     23          6           0       26.656642    6.670636    0.919101
     24          7           0       28.423618    1.467159   -0.249419
     25          6           0       28.540786    2.798298   -0.349326
     26          6           0       30.026727    3.116373   -0.189468
     27          6           0       30.793615    1.746838   -0.498769
     28          6           0       29.538184    0.766511   -0.551220
     29          6           0       30.455442    4.182850   -1.258674
     30          6           0       31.911507    1.227579    0.495829
     31          6           0       33.363745    1.142116    0.050502
     32          7           0       27.338883   -1.356023   -0.396687
     33          6           0       28.681434   -1.651913   -0.652579
     34          6           0       28.888603   -3.066611   -0.594003
     35          6           0       27.600580   -3.596165   -0.272851
     36          6           0       26.696903   -2.464294   -0.219030
     37          6           0       30.159047   -3.832161   -0.790561
     38          6           0       26.831731   -4.752850   -0.062727
     39          8           0       27.201295   -5.909883   -0.079987
     40          6           0       25.366625   -4.292049    0.298705
     41          6           0       24.414674   -5.119587   -0.458680
     42          8           0       23.759666   -6.024478    0.046061
     43          8           0       24.403938   -4.737133   -1.791764
     44          6           0       23.497470   -5.560769   -2.623001
     45          1           0       22.218188    2.021047    1.003222
     46          1           0       27.776230    4.770249   -0.110701
     47          1           0       30.682242   -0.896206   -0.912657
     48          1           0       22.482807   -3.086270    0.510235
     49          1           0       21.762408   -0.652609    1.896921
     50          1           0       20.728553   -1.919016   -0.424054
     51          1           0       21.149629   -0.290489   -1.028636
     52          1           0       20.100835   -0.407867    0.352997
     53          1           0       22.343957   -2.060023    3.071145
     54          1           0       24.046927   -2.634786    2.880662
     55          1           0       23.477161   -4.745371    2.925429
     56          1           0       21.791402   -4.518367    2.328786
     57          1           0       21.617310    3.881642    1.333123
     58          1           0       22.187509    5.176840    0.192199
     59          1           0       22.703335    5.284413    1.783724
     60          1           0       27.245918    6.981038    0.057321
     61          1           0       27.252430    6.022366    1.561838
     62          1           0       26.545002    7.609099    1.463443
     63          1           0       30.277058    3.481681    0.806777
     64          1           0       31.167160    1.748995   -1.522164
     65          1           0       30.991270    4.965907   -0.722213
     66          1           0       29.642155    4.619244   -1.839895
     67          1           0       31.111348    3.778656   -2.030065
     68          1           0       31.559404    0.238605    0.788346
     69          1           0       31.914228    1.947037    1.315829
     70          1           0       33.813929    0.391975    0.701162
     71          1           0       33.852527    2.094306    0.257888
     72          1           0       33.605682    0.834748   -0.966345
     73          1           0       29.894820   -4.883024   -0.669490
     74          1           0       30.875014   -3.461370   -0.057699
     75          1           0       30.610999   -3.737200   -1.778057
     76          1           0       25.267311   -4.563372    1.350257
     77          1           0       24.035168   -6.419096   -3.025672
     78          1           0       23.071064   -4.880701   -3.360387
     79          1           0       22.636757   -5.914328   -2.056025
     80         12           0      -26.291717   -0.495138    0.556197
     81          6           0      -24.434069    1.817244   -1.488510
     82          6           0      -26.473929   -2.589267   -2.039417
     83          6           0      -28.706504   -2.113166    2.223992
     84          6           0      -26.394277    2.025630    2.993300
     85          7           0      -25.591858   -0.355584   -1.498683
     86          6           0      -24.699759    0.562644   -2.078256
     87          6           0      -24.178157    0.052939   -3.475643
     88          6           0      -24.907652   -1.316213   -3.626727
     89          6           0      -25.668806   -1.468509   -2.282910
     90          6           0      -25.820255   -1.486986   -4.814580
     91          6           0      -22.559785   -0.002672   -3.559389
     92          6           0      -21.941574    0.729636   -4.756756
     93          1           0      -21.061900   -0.189255   -5.683670
     94          7           0      -27.338624   -2.216698    0.201077
     95          6           0      -27.298791   -2.947847   -0.917414
     96          6           0      -28.209580   -4.091745   -0.846281
     97          6           0      -28.928658   -3.878933    0.380332
     98          6           0      -28.350622   -2.682932    1.002055
     99          6           0      -28.299623   -5.120841   -1.889872
    100          6           0      -30.150077   -4.740592    0.830329
    101          8           0      -30.696648   -4.573772    1.907814
    102          6           0      -30.718016   -5.840529   -0.008693
    103          7           0      -27.343619   -0.096820    2.297260
    104          6           0      -28.229081   -1.010799    2.858316
    105          6           0      -28.731999   -0.519142    4.255288
    106          6           0      -27.706834    0.621117    4.611900
    107          6           0      -27.058430    0.845308    3.246004
    108          6           0      -30.250754   -0.180242    4.406751
    109          6           0      -26.653429    0.218468    5.680024
    110          6           0      -26.249817    1.234863    6.718175
    111          7           0      -25.620305    1.533060    0.730823
    112          6           0      -25.741486    2.406963    1.773691
    113          6           0      -24.916472    3.654611    1.461354
    114          6           0      -24.352794    3.441800    0.226563
    115          6           0      -24.864722    2.171723   -0.209441
    116          6           0      -24.734219    4.782610    2.451226
    117          6           0      -23.516956    3.973796   -0.834971
    118          8           0      -22.943719    5.082134   -0.785109
    119          6           0      -23.605436    2.935186   -2.105163
    120          6           0      -24.306429    3.487087   -3.328911
    121          8           0      -25.453971    3.967754   -3.245479
    122          8           0      -23.468136    3.550223   -4.442774
    123          6           0      -23.982648    4.445825   -5.472207
    124          1           0      -26.483106   -3.367632   -2.804990
    125          1           0      -29.448694   -2.736750    2.726070
    126          1           0      -26.370004    2.709041    3.845209
    127          1           0      -24.541117    0.823943   -4.155001
    128          1           0      -24.113815   -2.022695   -3.873097
    129          1           0      -25.902885   -0.588045   -5.425610
    130          1           0      -26.775002   -1.550928   -4.293695
    131          1           0      -25.521009   -2.301152   -5.475334
    132          1           0      -22.359427   -1.073485   -3.582680
    133          1           0      -22.144971    0.333399   -2.609452
    134          1           0      -21.399095    1.583820   -4.351558
    135          1           0      -22.740787    1.117790   -5.389474
    136          1           0      -29.256407   -5.337702   -2.363856
    137          1           0      -28.184847   -6.060481   -1.350698
    138          1           0      -27.466611   -5.151306   -2.592541
    139          1           0      -29.903049   -6.556135   -0.123916
    140          1           0      -30.909001   -5.411948   -0.992933
    141          1           0      -31.600903   -6.190506    0.524749
    142          1           0      -28.538334   -1.369239    4.909495
    143          1           0      -28.191472    1.564767    4.861294
    144          1           0      -30.689867   -0.503383    3.463169
    145          1           0      -30.455010    0.859941    4.658908
    146          1           0      -30.751119   -0.844085    5.112854
    147          1           0      -25.832622    0.002063    4.996521
    148          1           0      -26.872447   -0.706978    6.213033
    149          1           0      -26.203612    0.687043    7.659449
    150          1           0      -26.984733    2.029949    6.848089
    151          1           0      -25.213603    1.490954    6.495940
    152          1           0      -25.316736    4.528802    3.336679
    153          1           0      -25.197967    5.676230    2.034113
    154          1           0      -23.671077    4.952019    2.620701
    155          1           0      -22.598024    2.585037   -2.330163
    156          1           0      -23.415448    5.364284   -5.616754
    157          1           0      -25.027160    4.726947   -5.337044
    158          1           0      -23.942819    3.885502   -6.405959
 ---------------------------------------------------------------------

 SCF Done:  E(RwB97XD) =  -4070.58119894     A.U. after   20 cycles

 Excitation energies and oscillator strengths:

 Excited State   1:      Singlet-A      1.6412 eV  755.45 nm  f=0.4096  <S**2>=0.000
     310 -> 316        0.17863
     312 -> 314        0.68580
     310 <- 316        0.11672
 This state for optimization and/or second-order correction.
 Total Energy, E(TD-HF/TD-DFT) =  -4070.52088632
 Copying the excited state density for this state as the 1-particle RhoCI density.

 Excited State   2:      Singlet-A      1.6654 eV  744.48 nm  f=0.3847  <S**2>=0.000
     309 -> 315        0.17864
     311 -> 313        0.68424
     309 <- 315        0.11348

 Excited State   3:      Singlet-A      2.1184 eV  585.28 nm  f=0.1555  <S**2>=0.000
     309 -> 313        0.64907
     311 -> 315       -0.25656

 Excited State   4:      Singlet-A      2.2310 eV  555.73 nm  f=0.0893  <S**2>=0.000
     310 -> 314        0.62833
     312 -> 316       -0.31485

 Excited State   5:      Singlet-A      3.0628 eV  404.80 nm  f=0.0077  <S**2>=0.000
     308 -> 313        0.68069

 The electronic state is 1-A.
 Alpha  occ. eigenvalues --  -46.96840 -46.94747 -19.31946 -19.30357 -19.25830
 Alpha  occ. eigenvalues --  -19.25076 -19.24787 -19.24214 -19.23534 -19.23311
 Alpha  occ. eigenvalues --  -14.48176 -14.47192 -14.46574 -14.46261 -14.44723
 Alpha  occ. eigenvalues --  -14.44439 -14.44314 -14.43939 -10.44729 -10.42991
 Alpha  occ. eigenvalues --  -10.40619 -10.39322 -10.38865 -10.38166 -10.37295
 Alpha  occ. eigenvalues --  -10.36246 -10.35773 -10.35704 -10.35676 -10.35494
 Alpha  occ. eigenvalues --  -10.35252 -10.34967 -10.34805 -10.34745 -10.34572
 Alpha  occ. eigenvalues --  -10.34366 -10.34124 -10.34118 -10.34105 -10.34048
 Alpha  occ. eigenvalues --  -10.33774 -10.33548 -10.33488 -10.33192 -10.33068
 Alpha  occ. eigenvalues --  -10.33046 -10.33024 -10.32794 -10.32765 -10.32750
 Alpha  occ. eigenvalues --  -10.32653 -10.32594 -10.32360 -10.32346 -10.32343
 Alpha  occ. eigenvalues --  -10.32324 -10.32241 -10.32187 -10.31935 -10.31747
 Alpha  occ. eigenvalues --  -10.31558 -10.31510 -10.31424 -10.31344 -10.31299
 Alpha  occ. eigenvalues --  -10.31273 -10.31018 -10.31002 -10.30977 -10.30888
 Alpha  occ. eigenvalues --  -10.30862 -10.30557 -10.30185 -10.30083 -10.30059
 Alpha  occ. eigenvalues --  -10.30002 -10.29901 -10.29846 -10.29829 -10.29723
 Alpha  occ. eigenvalues --  -10.29370 -10.29353 -10.29347 -10.29246 -10.29211
 Alpha  occ. eigenvalues --  -10.28915  -3.22536  -3.20821  -1.96146  -1.95627
 Alpha  occ. eigenvalues --   -1.95497  -1.94394  -1.93931  -1.93821  -1.18540
 Alpha  occ. eigenvalues --   -1.17708  -1.12353  -1.12292  -1.11972  -1.11352
 Alpha  occ. eigenvalues --   -1.10181  -1.09696  -1.06818  -1.06079  -1.05934
 Alpha  occ. eigenvalues --   -1.05338  -1.04659  -1.04643  -1.03919  -1.03831
 Alpha  occ. eigenvalues --   -0.94645  -0.94560  -0.91492  -0.91275  -0.91003
 Alpha  occ. eigenvalues --   -0.90613  -0.90064  -0.89929  -0.89671  -0.89295
 Alpha  occ. eigenvalues --   -0.89144  -0.89102  -0.88086  -0.87858  -0.86464
 Alpha  occ. eigenvalues --   -0.86202  -0.85744  -0.85565  -0.84844  -0.84627
 Alpha  occ. eigenvalues --   -0.84199  -0.83841  -0.83173  -0.82850  -0.82748
 Alpha  occ. eigenvalues --   -0.82203  -0.80390  -0.79805  -0.79545  -0.79159
 Alpha  occ. eigenvalues --   -0.78961  -0.78884  -0.78168  -0.78152  -0.77480
 Alpha  occ. eigenvalues --   -0.76659  -0.75518  -0.74466  -0.74307  -0.72958
 Alpha  occ. eigenvalues --   -0.71359  -0.71021  -0.70991  -0.70342  -0.70011
 Alpha  occ. eigenvalues --   -0.69845  -0.69119  -0.68687  -0.67561  -0.67475
 Alpha  occ. eigenvalues --   -0.67305  -0.67272  -0.66950  -0.66908  -0.66803
 Alpha  occ. eigenvalues --   -0.66370  -0.65002  -0.64604  -0.62323  -0.62260
 Alpha  occ. eigenvalues --   -0.61760  -0.61749  -0.61475  -0.61090  -0.60898
 Alpha  occ. eigenvalues --   -0.60511  -0.60352  -0.59816  -0.59327  -0.58924
 Alpha  occ. eigenvalues --   -0.58573  -0.58259  -0.57949  -0.57426  -0.57417
 Alpha  occ. eigenvalues --   -0.57063  -0.56863  -0.56712  -0.55789  -0.55714
 Alpha  occ. eigenvalues --   -0.55514  -0.55454  -0.55196  -0.55124  -0.54822
 Alpha  occ. eigenvalues --   -0.54712  -0.54548  -0.54418  -0.54366  -0.54064
 Alpha  occ. eigenvalues --   -0.53862  -0.53769  -0.53555  -0.53455  -0.53283
 Alpha  occ. eigenvalues --   -0.53191  -0.53072  -0.52857  -0.52784  -0.52370
 Alpha  occ. eigenvalues --   -0.52192  -0.52174  -0.51729  -0.51570  -0.51466
 Alpha  occ. eigenvalues --   -0.51349  -0.51196  -0.51076  -0.50861  -0.50736
 Alpha  occ. eigenvalues --   -0.50578  -0.50573  -0.50269  -0.50240  -0.50087
 Alpha  occ. eigenvalues --   -0.49876  -0.49853  -0.49806  -0.49192  -0.49162
 Alpha  occ. eigenvalues --   -0.48981  -0.48936  -0.48693  -0.48629  -0.48535
 Alpha  occ. eigenvalues --   -0.48435  -0.48106  -0.47965  -0.47943  -0.47898
 Alpha  occ. eigenvalues --   -0.47813  -0.47668  -0.47608  -0.47330  -0.47227
 Alpha  occ. eigenvalues --   -0.47114  -0.46670  -0.46515  -0.46512  -0.46328
 Alpha  occ. eigenvalues --   -0.46087  -0.46082  -0.45956  -0.45727  -0.45678
 Alpha  occ. eigenvalues --   -0.45586  -0.45563  -0.45160  -0.44991  -0.44963
 Alpha  occ. eigenvalues --   -0.44826  -0.44763  -0.44607  -0.44357  -0.44175
 Alpha  occ. eigenvalues --   -0.43732  -0.43642  -0.43606  -0.43449  -0.43258
 Alpha  occ. eigenvalues --   -0.43041  -0.42693  -0.42465  -0.42355  -0.42101
 Alpha  occ. eigenvalues --   -0.41906  -0.41644  -0.41434  -0.41392  -0.41036
 Alpha  occ. eigenvalues --   -0.40277  -0.40214  -0.39957  -0.39754  -0.39496
 Alpha  occ. eigenvalues --   -0.39440  -0.39428  -0.39219  -0.38808  -0.38509
 Alpha  occ. eigenvalues --   -0.38043  -0.37856  -0.37094  -0.36538  -0.36443
 Alpha  occ. eigenvalues --   -0.36347  -0.35492  -0.35169  -0.34019  -0.33716
 Alpha  occ. eigenvalues --   -0.33518  -0.33226  -0.32616  -0.32583  -0.32492
 Alpha  occ. eigenvalues --   -0.32315  -0.31945  -0.31860  -0.26562  -0.26105
 Alpha  occ. eigenvalues --   -0.23994  -0.22586
 Alpha virt. eigenvalues --   -0.08109  -0.06773  -0.00437   0.00586   0.01968
 Alpha virt. eigenvalues --    0.02044   0.04279   0.04309   0.04876   0.05108
 Alpha virt. eigenvalues --    0.05455   0.06992   0.07039   0.07409   0.08006

 Mulliken charges:
               1
     1  Mg   0.930508
     2  C    0.060840
     3  C   -0.053544
     4  C   -0.067777
     5  C   -0.064672
     6  N   -0.367844
     7  C   -0.017686
     8  C   -0.066897
     9  C   -0.122707
    10  C    0.087856
    11  C    0.030142
    12  C    0.037274
    13  C   -0.149399
    14  H    0.025280
    15  N   -0.454730
    16  C    0.135292
    17  C   -0.149585
    18  C   -0.136767
    19  C    0.177471
    20  C    0.084162
    21  C    0.092335
    22  O   -0.239801
    23  C   -0.062654
    24  N   -0.335584
    25  C    0.120571
    26  C   -0.138871
    27  C   -0.048745
    28  C    0.022563
    29  C    0.006346
    30  C   -0.011636
    31  C   -0.052430
    32  N   -0.425350
    33  C    0.118246
    34  C   -0.169400
    35  C   -0.018267
    36  C    0.076726
    37  C    0.078426
    38  C    0.069254
    39  O   -0.202380
    40  C   -0.060337
    41  C    0.246588
    42  O   -0.245796
    43  O   -0.384151
    44  C    0.134989
    45  H   -0.012747
    46  H   -0.019694
    47  H   -0.002588
    48  H    0.034875
    49  H    0.040601
    50  H    0.043276
    51  H    0.048393
    52  H    0.043007
    53  H    0.039668
    54  H    0.043291
    55  H    0.068884
    56  H    0.058985
    57  H    0.056942
    58  H    0.057842
    59  H    0.063782
    60  H    0.068470
    61  H    0.055844
    62  H    0.048655
    63  H    0.055231
    64  H    0.030158
    65  H    0.036221
    66  H    0.039799
    67  H    0.031088
    68  H    0.041416
    69  H    0.028833
    70  H    0.036997
    71  H    0.037563
    72  H    0.038389
    73  H    0.063001
    74  H    0.045534
    75  H    0.046938
    76  H    0.066577
    77  H    0.069712
    78  H    0.052463
    79  H    0.054734
    80  Mg   0.975999
    81  C   -0.099604
    82  C   -0.080659
    83  C   -0.088137
    84  C   -0.101275
    85  N   -0.370247
    86  C   -0.011547
    87  C   -0.072270
    88  C   -0.107138
    89  C    0.104640
    90  C    0.024241
    91  C    0.006702
    92  C   -0.108822
    93  H    0.027706
    94  N   -0.454630
    95  C    0.113960
    96  C   -0.149579
    97  C   -0.076231
    98  C    0.118020
    99  C    0.069447
   100  C    0.031577
   101  O   -0.238339
   102  C    0.011682
   103  N   -0.401139
   104  C    0.093381
   105  C   -0.058252
   106  C   -0.103688
   107  C    0.063916
   108  C    0.035207
   109  C   -0.016671
   110  C   -0.026196
   111  N   -0.388477
   112  C    0.148841
   113  C   -0.228866
   114  C    0.015668
   115  C    0.154371
   116  C    0.098537
   117  C    0.146917
   118  O   -0.221211
   119  C   -0.037583
   120  C    0.292818
   121  O   -0.256286
   122  O   -0.367181
   123  C    0.121085
   124  H   -0.014044
   125  H    0.016140
   126  H   -0.003799
   127  H    0.041629
   128  H    0.034180
   129  H    0.028898
   130  H    0.041580
   131  H    0.042984
   132  H    0.031981
   133  H    0.037943
   134  H    0.064330
   135  H    0.054495
   136  H    0.046798
   137  H    0.028274
   138  H    0.042613
   139  H    0.049466
   140  H    0.052084
   141  H    0.067755
   142  H    0.030989
   143  H    0.029193
   144  H    0.038584
   145  H    0.045339
   146  H    0.035514
   147  H    0.029350
   148  H    0.034952
   149  H    0.028936
   150  H    0.041851
   151  H    0.043808
   152  H    0.023019
   153  H    0.059023
   154  H    0.067085
   155  H    0.058206
   156  H    0.063453
   157  H    0.072076
   158  H    0.044630
 Sum of Mulliken charges =  -0.00000

 Dipole moment (field-independent basis, Debye):
    X=              2.4795    Y=              0.3962    Z=             -2.7744  Tot=              3.7420
 Quadrupole moment (field-independent basis, Debye-Ang):
   XX=           -499.4911   YY=           -578.5766   ZZ=           -472.8006
   XY=            193.2658   XZ=            -17.1841   YZ=             21.4916

 Normal termination of Gaussian 16 at Mon Sep 20 07:06:23 2021.
