 Gaussian 16, Revision A.03,
 Gaussian 16:  ES64L-G16RevA.03 25-Dec-2016

 --------------------------------
 #p wB97XD/Def2SVP td=(nstates=5)
 --------------------------------

 --------------------------------
 TDDFT excited states in gaussian
 --------------------------------
 Symbolic Z-matrix:
 Charge =  0 Multiplicity = 1

                         Standard orientation:
 ---------------------------------------------------------------------
 Center     Atomic      Atomic             Coordinates (Angstroms)
 Number     Number       Type             X           Y           Z
 ---------------------------------------------------------------------
      1         12           0      -24.164228   -0.674560    0.198835
      2          6           0      -23.110920    2.418815   -1.156145
      3          6           0      -23.736774    0.642946    3.174511
      4          6           0      -24.120798   -3.792043    1.299490
      5          6           0      -23.838263   -1.949178   -3.102296
      6          7           0      -23.644560    1.434502    0.841700
      7          6           0      -23.353396    2.501837    0.191844
      8          6           0      -23.353111    3.730795    1.124128
      9          6           0      -23.077875    3.083338    2.575532
     10          6           0      -23.435182    1.587905    2.189281
     11          6           0      -21.616293    3.241004    3.154416
     12          6           0      -24.800096    4.452677    1.121499
     13          6           0      -24.914270    6.000467    1.307077
     14          1           0      -23.778923    6.684198    2.154634
     15          7           0      -24.166945   -1.463062    2.012999
     16          6           0      -24.034562   -0.694323    3.159587
     17          6           0      -24.099650   -1.611252    4.351751
     18          6           0      -24.252477   -2.938726    3.770094
     19          6           0      -24.186699   -2.858469    2.308357
     20          6           0      -23.957393   -1.076561    5.764296
     21          6           0      -24.451009   -4.240629    4.514662
     22          8           0      -24.533759   -5.353647    3.976940
     23          6           0      -24.595306   -4.201966    5.982029
     24          7           0      -24.103673   -2.667844   -0.808786
     25          6           0      -24.049992   -3.764290   -0.074406
     26          6           0      -24.330952   -5.043457   -0.981736
     27          6           0      -24.201855   -4.376056   -2.456522
     28          6           0      -24.076323   -2.896020   -2.105232
     29          6           0      -23.373897   -6.247170   -0.694142
     30          6           0      -25.356087   -4.629190   -3.481081
     31          6           0      -25.034832   -5.491618   -4.674583
     32          7           0      -23.802903    0.078080   -1.819708
     33          6           0      -23.712501   -0.599665   -3.019240
     34          6           0      -23.304362    0.275883   -4.037086
     35          6           0      -23.017809    1.463030   -3.336829
     36          6           0      -23.289671    1.324865   -1.996266
     37          6           0      -23.129532   -0.004461   -5.444226
     38          6           0      -22.624786    2.796744   -3.579546
     39          8           0      -22.388205    3.499042   -4.599835
     40          6           0      -22.405841    3.401017   -2.120114
     41          6           0      -22.922849    4.791280   -2.055175
     42          8           0      -24.082503    5.173213   -2.198185
     43          8           0      -21.827849    5.629014   -1.673384
     44          6           0      -22.096298    7.067621   -1.552044
     45          1           0      -23.716208    1.161964    4.135502
     46          1           0      -24.168544   -4.813767    1.680233
     47          1           0      -23.817749   -2.333617   -4.124828
     48          1           0      -22.433268    4.280087    0.925151
     49          1           0      -23.687262    3.615183    3.305404
     50          1           0      -20.911801    3.580018    2.395207
     51          1           0      -21.214329    2.287193    3.495684
     52          1           0      -21.694096    3.976838    3.954711
     53          1           0      -25.469971    3.982224    1.841420
     54          1           0      -25.297911    4.200084    0.185085
     55          1           0      -25.845741    6.318666    1.776380
     56          1           0      -24.709919    6.444948    0.332232
     57          1           0      -24.696960   -1.504266    6.442163
     58          1           0      -24.028430    0.009653    5.821242
     59          1           0      -22.925972   -1.200940    6.093224
     60          1           0      -23.723444   -3.745233    6.451229
     61          1           0      -24.730653   -5.212944    6.366468
     62          1           0      -25.469778   -3.669514    6.356062
     63          1           0      -25.359625   -5.395418   -0.904765
     64          1           0      -23.225803   -4.561886   -2.907147
     65          1           0      -22.604111   -5.957401    0.021321
     66          1           0      -23.071163   -6.509116   -1.708166
     67          1           0      -24.002777   -7.076691   -0.373468
     68          1           0      -25.661024   -3.657434   -3.870046
     69          1           0      -26.218375   -5.044909   -2.959413
     70          1           0      -24.047816   -5.886370   -4.437278
     71          1           0      -24.937139   -4.835631   -5.540367
     72          1           0      -25.717689   -6.331067   -4.799484
     73          1           0      -24.052445   -0.471595   -5.786873
     74          1           0      -22.439577   -0.812180   -5.688636
     75          1           0      -22.965503    0.927344   -5.985780
     76          1           0      -21.336539    3.389430   -1.906615
     77          1           0      -21.176750    7.615689   -1.345071
     78          1           0      -22.674359    7.234752   -0.643001
     79          1           0      -22.494565    7.437806   -2.496148
     80         12           0       24.101758   -0.558263    0.190711
     81          6           0       22.008058    2.064010    1.091027
     82          6           0       26.467393    1.775305   -0.664496
     83          6           0       26.095486   -3.133322   -0.953414
     84          6           0       21.481884   -2.831197    0.538000
     85          7           0       24.233820    1.653771    0.311877
     86          6           0       23.326552    2.513793    0.805290
     87          6           0       23.819123    3.973961    0.935344
     88          6           0       25.188894    3.902217    0.133816
     89          6           0       25.325188    2.330189   -0.151553
     90          6           0       25.082563    4.808594   -1.144128
     91          6           0       23.978003    4.280678    2.512345
     92          6           0       23.235140    5.536945    3.055069
     93          1           0       22.872969    6.593814    1.949808
     94          7           0       25.974123   -0.709970   -0.751565
     95          6           0       26.832464    0.393916   -0.934282
     96          6           0       28.134578   -0.092654   -1.337610
     97          6           0       28.040438   -1.483186   -1.476456
     98          6           0       26.668970   -1.866417   -0.974676
     99          6           0       29.224076    0.868066   -1.834792
    100          6           0       29.123617   -2.468280   -1.990466
    101          8           0       28.983005   -3.701814   -2.086534
    102          6           0       30.510381   -1.902780   -2.342216
    103          7           0       23.752946   -2.662603   -0.215570
    104          6           0       24.818134   -3.512453   -0.643069
    105          6           0       24.284609   -4.926836   -0.952403
    106          6           0       22.875171   -4.877702   -0.197387
    107          6           0       22.703277   -3.365823    0.104410
    108          6           0       24.278549   -5.148932   -2.455856
    109          6           0       22.907758   -5.714741    1.150335
    110          6           0       23.969265   -5.551893    2.291069
    111          7           0       22.144356   -0.451094    0.622193
    112          6           0       21.166870   -1.446228    0.718936
    113          6           0       19.931183   -0.848571    1.108836
    114          6           0       20.207272    0.492109    1.307878
    115          6           0       21.543840    0.730097    0.902552
    116          6           0       18.578905   -1.521782    1.225018
    117          6           0       19.638397    1.717900    1.707186
    118          8           0       18.495875    1.932345    1.960449
    119          6           0       20.763610    2.807438    1.465827
    120          6           0       20.262361    3.680582    0.348887
    121          8           0       20.688187    3.641210   -0.786550
    122          8           0       19.275497    4.437012    0.843794
    123          6           0       18.417683    4.981667   -0.179988
    124          1           0       27.256250    2.503395   -0.863403
    125          1           0       26.640097   -3.881336   -1.532204
    126          1           0       20.647475   -3.528872    0.640528
    127          1           0       23.143115    4.728463    0.533507
    128          1           0       26.070135    4.194558    0.705289
    129          1           0       25.487950    4.370891   -2.056675
    130          1           0       25.674695    5.653668   -0.794089
    131          1           0       24.046925    5.142054   -1.205726
    132          1           0       25.044822    4.267997    2.734598
    133          1           0       23.585968    3.409783    3.038227
    134          1           0       23.971665    5.921569    3.759711
    135          1           0       22.316049    5.328236    3.601821
    136          1           0       29.499495    0.544561   -2.838898
    137          1           0       30.118701    0.746114   -1.222680
    138          1           0       28.855539    1.893023   -1.806788
    139          1           0       30.397376   -1.353633   -3.277888
    140          1           0       31.125275   -2.769231   -2.585092
    141          1           0       30.955059   -1.450680   -1.456007
    142          1           0       24.933438   -5.594478   -0.384754
    143          1           0       22.114993   -5.370858   -0.802137
    144          1           0       25.046560   -4.576651   -2.976454
    145          1           0       23.311774   -4.877882   -2.879481
    146          1           0       24.512291   -6.186382   -2.694059
    147          1           0       22.863993   -6.770483    0.882579
    148          1           0       21.989719   -5.396896    1.644647
    149          1           0       24.814128   -6.202728    2.065409
    150          1           0       23.465401   -5.879755    3.201069
    151          1           0       24.268529   -4.530216    2.527163
    152          1           0       18.582177   -2.331521    1.954908
    153          1           0       18.409239   -1.933146    0.230192
    154          1           0       17.777547   -0.905670    1.635263
    155          1           0       21.000246    3.484389    2.286903
    156          1           0       17.385074    5.123867    0.137894
    157          1           0       18.423973    4.593803   -1.198527
    158          1           0       18.686933    5.995641   -0.476519
 ---------------------------------------------------------------------

 SCF Done:  E(RwB97XD) =  -4070.57957732     A.U. after   19 cycles

 Excitation energies and oscillator strengths:

 Excited State   1:      Singlet-A      1.6514 eV  750.80 nm  f=0.3891  <S**2>=0.000
     310 -> 316       -0.18083
     312 -> 314        0.68426
     310 <- 316       -0.11557
 This state for optimization and/or second-order correction.
 Total Energy, E(TD-HF/TD-DFT) =  -4070.51889109
 Copying the excited state density for this state as the 1-particle RhoCI density.

 Excited State   2:      Singlet-A      1.7434 eV  711.15 nm  f=0.3634  <S**2>=0.000
     309 -> 315       -0.21779
     311 -> 313        0.67306
     309 <- 315       -0.11925

 Excited State   3:      Singlet-A      2.1695 eV  571.49 nm  f=0.0663  <S**2>=0.000
     309 -> 313        0.62617
     311 -> 315        0.30907

 Excited State   4:      Singlet-A      2.1706 eV  571.19 nm  f=0.1365  <S**2>=0.000
     310 -> 314        0.64326
     312 -> 316        0.27725

 Excited State   5:      Singlet-A      3.3076 eV  374.85 nm  f=0.0361  <S**2>=0.000
     305 -> 313        0.13267
     308 -> 313        0.60455
     311 -> 315       -0.28174

 The electronic state is 1-A.
 Alpha  occ. eigenvalues --  -46.95736 -46.94414 -19.31391 -19.29187 -19.25154
 Alpha  occ. eigenvalues --  -19.25015 -19.24442 -19.24036 -19.23575 -19.23538
 Alpha  occ. eigenvalues --  -14.46831 -14.46720 -14.46297 -14.46017 -14.44618
 Alpha  occ. eigenvalues --  -14.44110 -14.43696 -14.43187 -10.43166 -10.43164
 Alpha  occ. eigenvalues --  -10.39093 -10.39043 -10.38860 -10.38532 -10.35664
 Alpha  occ. eigenvalues --  -10.35587 -10.35102 -10.35032 -10.34839 -10.34809
 Alpha  occ. eigenvalues --  -10.34706 -10.34688 -10.34639 -10.34445 -10.34323
 Alpha  occ. eigenvalues --  -10.34289 -10.34273 -10.33882 -10.33816 -10.33607
 Alpha  occ. eigenvalues --  -10.33597 -10.33321 -10.32958 -10.32762 -10.32728
 Alpha  occ. eigenvalues --  -10.32610 -10.32565 -10.32518 -10.32437 -10.32390
 Alpha  occ. eigenvalues --  -10.32368 -10.32342 -10.32200 -10.31972 -10.31906
 Alpha  occ. eigenvalues --  -10.31888 -10.31750 -10.31702 -10.31663 -10.31661
 Alpha  occ. eigenvalues --  -10.31626 -10.31583 -10.31473 -10.31071 -10.31032
 Alpha  occ. eigenvalues --  -10.31014 -10.30775 -10.30742 -10.30566 -10.30479
 Alpha  occ. eigenvalues --  -10.30411 -10.30244 -10.30192 -10.30173 -10.30072
 Alpha  occ. eigenvalues --  -10.29802 -10.29693 -10.29674 -10.29651 -10.29612
 Alpha  occ. eigenvalues --  -10.29420 -10.29223 -10.29173 -10.29075 -10.28775
 Alpha  occ. eigenvalues --  -10.28677  -3.21647  -3.20446  -1.95238  -1.94779
 Alpha  occ. eigenvalues --   -1.94595  -1.94038  -1.93548  -1.93438  -1.20360
 Alpha  occ. eigenvalues --   -1.16116  -1.14300  -1.11638  -1.11278  -1.10477
 Alpha  occ. eigenvalues --   -1.09515  -1.08939  -1.07799  -1.07221  -1.06180
 Alpha  occ. eigenvalues --   -1.05559  -1.05324  -1.04738  -1.03519  -1.03131
 Alpha  occ. eigenvalues --   -0.94961  -0.94819  -0.91431  -0.90525  -0.90426
 Alpha  occ. eigenvalues --   -0.89982  -0.89807  -0.89621  -0.89491  -0.89275
 Alpha  occ. eigenvalues --   -0.89018  -0.88863  -0.88423  -0.87915  -0.86224
 Alpha  occ. eigenvalues --   -0.85877  -0.85877  -0.85256  -0.84653  -0.84148
 Alpha  occ. eigenvalues --   -0.83960  -0.83455  -0.83153  -0.82798  -0.82639
 Alpha  occ. eigenvalues --   -0.81865  -0.80947  -0.79658  -0.79634  -0.79011
 Alpha  occ. eigenvalues --   -0.78898  -0.78652  -0.77835  -0.77778  -0.77177
 Alpha  occ. eigenvalues --   -0.76880  -0.75230  -0.74958  -0.74255  -0.73135
 Alpha  occ. eigenvalues --   -0.70949  -0.70817  -0.70628  -0.70513  -0.69929
 Alpha  occ. eigenvalues --   -0.69899  -0.69214  -0.68320  -0.67896  -0.67805
 Alpha  occ. eigenvalues --   -0.67588  -0.67562  -0.66603  -0.66538  -0.66451
 Alpha  occ. eigenvalues --   -0.65861  -0.64364  -0.63266  -0.62553  -0.62130
 Alpha  occ. eigenvalues --   -0.61979  -0.61409  -0.61306  -0.60899  -0.60381
 Alpha  occ. eigenvalues --   -0.60359  -0.59991  -0.59730  -0.59303  -0.59235
 Alpha  occ. eigenvalues --   -0.58972  -0.58203  -0.57764  -0.57655  -0.57416
 Alpha  occ. eigenvalues --   -0.56900  -0.56360  -0.56316  -0.55888  -0.55747
 Alpha  occ. eigenvalues --   -0.55479  -0.55308  -0.55122  -0.55055  -0.54892
 Alpha  occ. eigenvalues --   -0.54563  -0.54433  -0.54409  -0.54192  -0.54095
 Alpha  occ. eigenvalues --   -0.53892  -0.53821  -0.53675  -0.53466  -0.53090
 Alpha  occ. eigenvalues --   -0.52860  -0.52851  -0.52575  -0.52514  -0.52272
 Alpha  occ. eigenvalues --   -0.51842  -0.51842  -0.51756  -0.51503  -0.51448
 Alpha  occ. eigenvalues --   -0.51115  -0.51055  -0.50746  -0.50733  -0.50624
 Alpha  occ. eigenvalues --   -0.50477  -0.50317  -0.50217  -0.49963  -0.49845
 Alpha  occ. eigenvalues --   -0.49735  -0.49655  -0.49570  -0.49389  -0.49252
 Alpha  occ. eigenvalues --   -0.49085  -0.49012  -0.48733  -0.48575  -0.48253
 Alpha  occ. eigenvalues --   -0.48177  -0.48084  -0.48061  -0.47743  -0.47530
 Alpha  occ. eigenvalues --   -0.47479  -0.47300  -0.47135  -0.46890  -0.46877
 Alpha  occ. eigenvalues --   -0.46516  -0.46433  -0.46244  -0.46196  -0.45907
 Alpha  occ. eigenvalues --   -0.45858  -0.45666  -0.45568  -0.45504  -0.45363
 Alpha  occ. eigenvalues --   -0.45248  -0.44988  -0.44926  -0.44904  -0.44566
 Alpha  occ. eigenvalues --   -0.44561  -0.44281  -0.43896  -0.43793  -0.43699
 Alpha  occ. eigenvalues --   -0.43624  -0.43582  -0.43260  -0.43121  -0.42955
 Alpha  occ. eigenvalues --   -0.42688  -0.42665  -0.42594  -0.42540  -0.42243
 Alpha  occ. eigenvalues --   -0.42177  -0.41983  -0.41445  -0.41037  -0.40960
 Alpha  occ. eigenvalues --   -0.40428  -0.39916  -0.39658  -0.39415  -0.39386
 Alpha  occ. eigenvalues --   -0.39092  -0.38974  -0.38435  -0.38402  -0.38147
 Alpha  occ. eigenvalues --   -0.38103  -0.37619  -0.36749  -0.36589  -0.36078
 Alpha  occ. eigenvalues --   -0.35902  -0.35643  -0.34925  -0.34022  -0.33802
 Alpha  occ. eigenvalues --   -0.33233  -0.33047  -0.32625  -0.32477  -0.32317
 Alpha  occ. eigenvalues --   -0.32302  -0.31686  -0.31474  -0.26098  -0.25679
 Alpha  occ. eigenvalues --   -0.23499  -0.22773
 Alpha virt. eigenvalues --   -0.06972  -0.06893  -0.00742   0.00614   0.01810
 Alpha virt. eigenvalues --    0.02621   0.04350   0.04608   0.05426   0.05626
 Alpha virt. eigenvalues --    0.06736   0.07116   0.07855   0.08119   0.08331

 Mulliken charges:
               1
     1  Mg   0.950704
     2  C   -0.001389
     3  C   -0.092573
     4  C   -0.057229
     5  C   -0.097683
     6  N   -0.289202
     7  C   -0.079835
     8  C   -0.022089
     9  C   -0.152180
    10  C    0.044689
    11  C    0.020226
    12  C    0.018933
    13  C   -0.121854
    14  H   -0.003173
    15  N   -0.573467
    16  C    0.230539
    17  C   -0.157464
    18  C   -0.064057
    19  C    0.176498
    20  C    0.067704
    21  C    0.057010
    22  O   -0.243274
    23  C   -0.029270
    24  N   -0.281871
    25  C    0.040646
    26  C   -0.118736
    27  C   -0.082438
    28  C    0.022840
    29  C    0.039326
    30  C   -0.018063
    31  C   -0.035017
    32  N   -0.421043
    33  C    0.154808
    34  C   -0.152096
    35  C   -0.029605
    36  C    0.146175
    37  C    0.092559
    38  C    0.133281
    39  O   -0.250636
    40  C   -0.095483
    41  C    0.288944
    42  O   -0.246546
    43  O   -0.409263
    44  C    0.146573
    45  H   -0.006521
    46  H    0.019240
    47  H   -0.015416
    48  H    0.025032
    49  H    0.044106
    50  H    0.036955
    51  H    0.039613
    52  H    0.044103
    53  H    0.028304
    54  H    0.057775
    55  H    0.065761
    56  H    0.078866
    57  H    0.055757
    58  H    0.031543
    59  H    0.060669
    60  H    0.053823
    61  H    0.050844
    62  H    0.060008
    63  H    0.047711
    64  H    0.033926
    65  H    0.061759
    66  H    0.028997
    67  H    0.039256
    68  H    0.034190
    69  H    0.025063
    70  H    0.022698
    71  H    0.040439
    72  H    0.046563
    73  H    0.029875
    74  H    0.045561
    75  H    0.071948
    76  H    0.082479
    77  H    0.044129
    78  H    0.042324
    79  H    0.066697
    80  Mg   0.964358
    81  C   -0.022196
    82  C   -0.067208
    83  C   -0.064451
    84  C   -0.108185
    85  N   -0.333535
    86  C    0.014022
    87  C   -0.076038
    88  C   -0.120601
    89  C    0.067105
    90  C    0.027400
    91  C   -0.000163
    92  C   -0.127170
    93  H    0.035013
    94  N   -0.460847
    95  C    0.133604
    96  C   -0.174305
    97  C   -0.090004
    98  C    0.138085
    99  C    0.086586
   100  C    0.051263
   101  O   -0.252404
   102  C   -0.016428
   103  N   -0.338906
   104  C    0.022123
   105  C   -0.061344
   106  C   -0.072347
   107  C    0.096892
   108  C    0.041985
   109  C   -0.059412
   110  C   -0.054433
   111  N   -0.488626
   112  C    0.148222
   113  C   -0.184030
   114  C   -0.008166
   115  C    0.148183
   116  C    0.079501
   117  C    0.095188
   118  O   -0.162837
   119  C   -0.097444
   120  C    0.245610
   121  O   -0.236991
   122  O   -0.309762
   123  C    0.140918
   124  H   -0.012944
   125  H    0.030841
   126  H    0.003263
   127  H    0.039843
   128  H    0.038819
   129  H    0.052165
   130  H    0.032873
   131  H    0.049480
   132  H    0.033225
   133  H    0.042308
   134  H    0.057010
   135  H    0.070040
   136  H    0.044565
   137  H    0.039323
   138  H    0.041537
   139  H    0.061856
   140  H    0.044468
   141  H    0.063988
   142  H    0.035093
   143  H    0.030285
   144  H    0.046265
   145  H    0.035075
   146  H    0.037254
   147  H    0.038897
   148  H    0.021486
   149  H    0.047718
   150  H    0.037239
   151  H    0.043650
   152  H    0.037558
   153  H    0.056850
   154  H    0.057386
   155  H    0.056436
   156  H    0.058019
   157  H    0.054728
   158  H    0.025176
 Sum of Mulliken charges =  -0.00000

 Dipole moment (field-independent basis, Debye):
    X=              0.5622    Y=              0.4115    Z=              5.9252  Tot=              5.9661
 Quadrupole moment (field-independent basis, Debye-Ang):
   XX=           -452.5592   YY=           -499.4548   ZZ=           -500.1821
   XY=             97.7450   XZ=            -59.9218   YZ=             35.2488

 Normal termination of Gaussian 16 at Sun Sep 19 00:35:26 2021.
