 Gaussian 16, Revision A.03,
 Gaussian 16:  ES64L-G16RevA.03 25-Dec-2016

 --------------------------------
 #p wB97XD/Def2SVP td=(nstates=5)
 --------------------------------

 --------------------------------
 TDDFT excited states in gaussian
 --------------------------------
 Symbolic Z-matrix:
 Charge =  0 Multiplicity = 1

                         Standard orientation:
 ---------------------------------------------------------------------
 Center     Atomic      Atomic             Coordinates (Angstroms)
 Number     Number       Type             X           Y           Z
 ---------------------------------------------------------------------
      1         12           0      -29.399895    0.392316   -0.330032
      2          6           0      -26.143504   -0.804839   -0.151502
      3          6           0      -30.423176   -3.032309   -0.139267
      4          6           0      -32.515530    1.385209    0.005025
      5          6           0      -28.158040    3.635370    0.215973
      6          7           0      -28.385670   -1.645934   -0.043338
      7          6           0      -27.023603   -1.840095   -0.096734
      8          6           0      -26.697864   -3.329343    0.045760
      9          6           0      -28.079030   -3.982861   -0.236242
     10          6           0      -29.049903   -2.840056   -0.095856
     11          6           0      -28.299360   -4.713812   -1.618609
     12          6           0      -26.118954   -3.691180    1.423420
     13          6           0      -25.625923   -5.080223    1.567056
     14          1           0      -24.576976   -5.355394    2.711210
     15          7           0      -31.255018   -0.671030   -0.083258
     16          6           0      -31.462346   -2.059012   -0.058384
     17          6           0      -32.872544   -2.295582    0.077555
     18          6           0      -33.496446   -1.006681    0.260841
     19          6           0      -32.395212   -0.008218    0.033393
     20          6           0      -33.484244   -3.720015    0.181043
     21          6           0      -34.995371   -0.843847    0.532327
     22          8           0      -35.769320   -1.784134    0.462518
     23          6           0      -35.520270    0.496412    0.881147
     24          7           0      -30.205239    2.287542   -0.164515
     25          6           0      -31.533315    2.423314   -0.085423
     26          6           0      -31.898812    3.934513    0.208590
     27          6           0      -30.522918    4.693798    0.341263
     28          6           0      -29.517367    3.428609    0.167767
     29          6           0      -32.919674    4.622328   -0.735551
     30          6           0      -30.399611    5.335981    1.739618
     31          6           0      -29.545721    6.608299    1.801049
     32          7           0      -27.542623    1.322605   -0.022390
     33          6           0      -27.174247    2.636454    0.056534
     34          6           0      -25.708960    2.710797    0.013183
     35          6           0      -25.294109    1.417452   -0.158679
     36          6           0      -26.399739    0.599005   -0.109962
     37          6           0      -24.870395    3.993023    0.005476
     38          6           0      -24.133968    0.586388   -0.277164
     39          8           0      -22.957117    0.843855   -0.341300
     40          6           0      -24.640073   -0.894716   -0.292351
     41          6           0      -24.294486   -1.473031   -1.619968
     42          8           0      -24.507724   -0.992894   -2.698600
     43          8           0      -23.789558   -2.770135   -1.423760
     44          6           0      -23.479973   -3.502813   -2.618450
     45          1           0      -30.632541   -4.103012   -0.175187
     46          1           0      -33.493892    1.862761    0.095165
     47          1           0      -27.735826    4.637793    0.313890
     48          1           0      -26.038423   -3.568946   -0.787304
     49          1           0      -28.427251   -4.699620    0.506641
     50          1           0      -28.688038   -5.692426   -1.337729
     51          1           0      -27.537258   -4.589060   -2.388323
     52          1           0      -29.149246   -4.221741   -2.091309
     53          1           0      -26.822592   -3.651406    2.255375
     54          1           0      -25.318292   -2.997820    1.681130
     55          1           0      -25.196693   -5.358883    0.604658
     56          1           0      -26.479798   -5.744002    1.701562
     57          1           0      -33.684659   -3.700023    1.252749
     58          1           0      -32.786590   -4.549537    0.064066
     59          1           0      -34.370540   -4.036116   -0.369411
     60          1           0      -34.858818    0.851229    1.671510
     61          1           0      -36.514145    0.374284    1.312028
     62          1           0      -35.441578    1.049191   -0.055308
     63          1           0      -32.399740    3.926228    1.177043
     64          1           0      -30.319906    5.426359   -0.439270
     65          1           0      -33.861627    4.723302   -0.195512
     66          1           0      -32.972530    4.052261   -1.662498
     67          1           0      -32.612109    5.651208   -0.922283
     68          1           0      -29.975135    4.553060    2.367559
     69          1           0      -31.355938    5.535111    2.223651
     70          1           0      -30.237408    7.344114    2.212658
     71          1           0      -29.096911    6.900305    0.851543
     72          1           0      -28.744679    6.490742    2.530954
     73          1           0      -23.991966    4.001132    0.649915
     74          1           0      -25.608073    4.741744    0.295150
     75          1           0      -24.701713    4.232696   -1.044502
     76          1           0      -24.112611   -1.405048    0.513621
     77          1           0      -22.392887   -3.568593   -2.664291
     78          1           0      -23.849321   -3.142600   -3.578922
     79          1           0      -23.916054   -4.495508   -2.510010
     80         12           0       28.796591    0.675672   -0.451215
     81          6           0       28.340424   -2.783050    0.370710
     82          6           0       25.816194    1.319850    1.343595
     83          6           0       29.564076    3.941557   -0.523657
     84          6           0       31.974217   -0.098693   -1.554133
     85          7           0       27.221422   -0.582402    0.730238
     86          6           0       27.338298   -1.932833    0.905890
     87          6           0       26.346940   -2.397511    1.960941
     88          6           0       25.418738   -1.111949    1.994966
     89          6           0       26.150106   -0.008424    1.330626
     90          6           0       23.989540   -1.242558    1.369203
     91          6           0       27.105181   -2.833811    3.255488
     92          6           0       26.698737   -4.174994    3.993601
     93          1           0       26.171416   -4.120669    5.438714
     94          7           0       27.803864    2.358762    0.100171
     95          6           0       26.580693    2.447063    0.815736
     96          6           0       26.192105    3.834652    0.988224
     97          6           0       27.307567    4.590577    0.441522
     98          6           0       28.270069    3.611151   -0.026935
     99          6           0       24.980215    4.214028    1.732242
    100          6           0       27.330631    6.128449    0.399424
    101          8           0       26.364151    6.718392    0.964889
    102          6           0       28.422410    6.990549   -0.269223
    103          7           0       30.628909    1.850430   -0.715599
    104          6           0       30.639512    3.160447   -0.870744
    105          6           0       32.027961    3.585210   -1.225176
    106          6           0       32.744454    2.261384   -1.603655
    107          6           0       31.744307    1.227776   -1.185636
    108          6           0       32.257555    4.716277   -2.316624
    109          6           0       34.189032    2.037611   -0.916595
    110          6           0       35.439994    1.983629   -1.827436
    111          7           0       29.864969   -1.032690   -0.764897
    112          6           0       31.121142   -1.203798   -1.210249
    113          6           0       31.475251   -2.575064   -1.256290
    114          6           0       30.381995   -3.228278   -0.682564
    115          6           0       29.422060   -2.239263   -0.349943
    116          6           0       32.685761   -3.247082   -1.767473
    117          6           0       29.955240   -4.539190   -0.301173
    118          8           0       30.566469   -5.581605   -0.374091
    119          6           0       28.525357   -4.274015    0.493822
    120          6           0       27.440902   -5.003857   -0.173670
    121          8           0       27.263997   -5.069111   -1.396766
    122          8           0       26.666673   -5.558661    0.822965
    123          6           0       25.514199   -6.345897    0.387806
    124          1           0       24.903419    1.582849    1.880354
    125          1           0       29.909253    4.976166   -0.476920
    126          1           0       32.866172   -0.414041   -2.099840
    127          1           0       25.747660   -3.178546    1.492316
    128          1           0       25.469751   -0.922736    3.067849
    129          1           0       23.901875   -0.475471    0.598462
    130          1           0       23.176040   -1.065544    2.072408
    131          1           0       23.789007   -2.176091    0.842575
    132          1           0       26.872852   -1.978706    3.889856
    133          1           0       28.192251   -2.862451    3.184396
    134          1           0       27.591439   -4.798023    3.941810
    135          1           0       26.027478   -4.729540    3.338568
    136          1           0       25.040091    3.703365    2.693643
    137          1           0       24.097818    3.810746    1.235846
    138          1           0       24.743825    5.275082    1.816326
    139          1           0       29.321617    6.927544    0.343828
    140          1           0       27.908640    7.917232   -0.522835
    141          1           0       28.589024    6.472085   -1.214037
    142          1           0       32.458507    4.018508   -0.323261
    143          1           0       32.688145    2.283673   -2.692046
    144          1           0       33.198264    5.183760   -2.024641
    145          1           0       31.406853    5.397136   -2.292195
    146          1           0       32.370606    4.203578   -3.272011
    147          1           0       34.066514    1.105351   -0.365495
    148          1           0       34.291289    2.780483   -0.125637
    149          1           0       36.076702    1.124686   -1.619732
    150          1           0       36.006312    2.905586   -1.692966
    151          1           0       35.207347    1.996289   -2.892408
    152          1           0       32.511448   -4.306307   -1.953897
    153          1           0       33.324829   -3.066649   -0.902908
    154          1           0       33.146927   -2.591493   -2.506033
    155          1           0       28.627064   -4.456933    1.562941
    156          1           0       25.794858   -7.099965   -0.347877
    157          1           0       24.746851   -5.683702   -0.015861
    158          1           0       25.107343   -6.873077    1.250771
 ---------------------------------------------------------------------

 SCF Done:  E(RwB97XD) =  -4070.59554768     A.U. after   19 cycles

 Excitation energies and oscillator strengths:

 Excited State   1:      Singlet-A      1.6376 eV  757.10 nm  f=0.3889  <S**2>=0.000
     310 -> 316       -0.19097
     312 -> 314        0.68326
     310 <- 316       -0.12121
 This state for optimization and/or second-order correction.
 Total Energy, E(TD-HF/TD-DFT) =  -4070.53536634
 Copying the excited state density for this state as the 1-particle RhoCI density.

 Excited State   2:      Singlet-A      1.7222 eV  719.91 nm  f=0.3959  <S**2>=0.000
     309 -> 315       -0.17625
     311 -> 313        0.68546
     309 <- 315       -0.11114

 Excited State   3:      Singlet-A      2.1989 eV  563.84 nm  f=0.1290  <S**2>=0.000
     310 -> 314        0.63868
     312 -> 316        0.29222

 Excited State   4:      Singlet-A      2.2425 eV  552.89 nm  f=0.1146  <S**2>=0.000
     309 -> 313        0.63521
     311 -> 315        0.29260

 Excited State   5:      Singlet-A      3.3070 eV  374.92 nm  f=0.0054  <S**2>=0.000
     308 -> 314        0.66959
     308 -> 317        0.10683

 The electronic state is 1-A.
 Alpha  occ. eigenvalues --  -46.96010 -46.95239 -19.31497 -19.30180 -19.25517
 Alpha  occ. eigenvalues --  -19.25410 -19.24805 -19.23764 -19.23533 -19.23174
 Alpha  occ. eigenvalues --  -14.47238 -14.46975 -14.46536 -14.45960 -14.44869
 Alpha  occ. eigenvalues --  -14.44547 -14.44415 -14.43658 -10.43943 -10.43340
 Alpha  occ. eigenvalues --  -10.39489 -10.39239 -10.38865 -10.38121 -10.36457
 Alpha  occ. eigenvalues --  -10.36188 -10.35722 -10.35342 -10.35204 -10.35199
 Alpha  occ. eigenvalues --  -10.35063 -10.34959 -10.34778 -10.34665 -10.34552
 Alpha  occ. eigenvalues --  -10.34388 -10.34384 -10.34315 -10.33799 -10.33765
 Alpha  occ. eigenvalues --  -10.33168 -10.33089 -10.32951 -10.32780 -10.32710
 Alpha  occ. eigenvalues --  -10.32557 -10.32333 -10.32280 -10.32278 -10.32251
 Alpha  occ. eigenvalues --  -10.32245 -10.32245 -10.32021 -10.31952 -10.31909
 Alpha  occ. eigenvalues --  -10.31839 -10.31774 -10.31659 -10.31623 -10.31618
 Alpha  occ. eigenvalues --  -10.31614 -10.31549 -10.31537 -10.31439 -10.31429
 Alpha  occ. eigenvalues --  -10.31226 -10.31185 -10.31097 -10.30897 -10.30716
 Alpha  occ. eigenvalues --  -10.30660 -10.30550 -10.30500 -10.30470 -10.30403
 Alpha  occ. eigenvalues --  -10.30333 -10.30267 -10.30151 -10.30118 -10.29988
 Alpha  occ. eigenvalues --  -10.29889 -10.29877 -10.29437 -10.28970 -10.28609
 Alpha  occ. eigenvalues --  -10.27934  -3.21889  -3.21236  -1.95481  -1.95013
 Alpha  occ. eigenvalues --   -1.94841  -1.94815  -1.94348  -1.94220  -1.18768
 Alpha  occ. eigenvalues --   -1.18721  -1.13079  -1.12533  -1.12384  -1.11026
 Alpha  occ. eigenvalues --   -1.10364  -1.09446  -1.07461  -1.06747  -1.06602
 Alpha  occ. eigenvalues --   -1.05843  -1.05744  -1.05740  -1.04872  -1.04386
 Alpha  occ. eigenvalues --   -0.95224  -0.95153  -0.91291  -0.91235  -0.91187
 Alpha  occ. eigenvalues --   -0.90714  -0.90197  -0.90023  -0.89995  -0.89880
 Alpha  occ. eigenvalues --   -0.89408  -0.88427  -0.87962  -0.87905  -0.87155
 Alpha  occ. eigenvalues --   -0.86580  -0.85923  -0.85753  -0.85092  -0.84600
 Alpha  occ. eigenvalues --   -0.84529  -0.83910  -0.83324  -0.83245  -0.82830
 Alpha  occ. eigenvalues --   -0.82436  -0.80180  -0.79718  -0.79583  -0.79270
 Alpha  occ. eigenvalues --   -0.79073  -0.78814  -0.78214  -0.78135  -0.77499
 Alpha  occ. eigenvalues --   -0.77278  -0.75214  -0.75192  -0.74187  -0.74041
 Alpha  occ. eigenvalues --   -0.71721  -0.71373  -0.71316  -0.70989  -0.70424
 Alpha  occ. eigenvalues --   -0.69760  -0.68766  -0.68737  -0.68061  -0.67996
 Alpha  occ. eigenvalues --   -0.67613  -0.67561  -0.67107  -0.66972  -0.66770
 Alpha  occ. eigenvalues --   -0.66621  -0.64948  -0.64675  -0.62312  -0.62135
 Alpha  occ. eigenvalues --   -0.61920  -0.61880  -0.61498  -0.61299  -0.60892
 Alpha  occ. eigenvalues --   -0.60794  -0.60454  -0.60391  -0.59587  -0.59571
 Alpha  occ. eigenvalues --   -0.58503  -0.58172  -0.57893  -0.57837  -0.57592
 Alpha  occ. eigenvalues --   -0.57456  -0.56843  -0.56837  -0.56462  -0.56323
 Alpha  occ. eigenvalues --   -0.55952  -0.55655  -0.55529  -0.55283  -0.55282
 Alpha  occ. eigenvalues --   -0.55109  -0.54884  -0.54581  -0.54566  -0.54050
 Alpha  occ. eigenvalues --   -0.53855  -0.53663  -0.53636  -0.53618  -0.53342
 Alpha  occ. eigenvalues --   -0.53172  -0.52813  -0.52656  -0.52518  -0.52306
 Alpha  occ. eigenvalues --   -0.52241  -0.52206  -0.51982  -0.51890  -0.51801
 Alpha  occ. eigenvalues --   -0.51518  -0.51341  -0.51249  -0.50972  -0.50834
 Alpha  occ. eigenvalues --   -0.50719  -0.50396  -0.50249  -0.50069  -0.49847
 Alpha  occ. eigenvalues --   -0.49647  -0.49593  -0.49534  -0.49487  -0.49389
 Alpha  occ. eigenvalues --   -0.49336  -0.49089  -0.48993  -0.48975  -0.48566
 Alpha  occ. eigenvalues --   -0.48421  -0.48378  -0.48339  -0.48086  -0.48080
 Alpha  occ. eigenvalues --   -0.47883  -0.47787  -0.47534  -0.47371  -0.47305
 Alpha  occ. eigenvalues --   -0.47029  -0.46956  -0.46645  -0.46466  -0.46085
 Alpha  occ. eigenvalues --   -0.45871  -0.45675  -0.45651  -0.45564  -0.45525
 Alpha  occ. eigenvalues --   -0.45295  -0.45202  -0.45166  -0.45011  -0.44900
 Alpha  occ. eigenvalues --   -0.44885  -0.44762  -0.44642  -0.44340  -0.44243
 Alpha  occ. eigenvalues --   -0.44237  -0.44096  -0.43826  -0.43483  -0.43415
 Alpha  occ. eigenvalues --   -0.43136  -0.43072  -0.42774  -0.42496  -0.42233
 Alpha  occ. eigenvalues --   -0.42159  -0.42132  -0.41800  -0.41605  -0.40856
 Alpha  occ. eigenvalues --   -0.40738  -0.40653  -0.40208  -0.40126  -0.39761
 Alpha  occ. eigenvalues --   -0.39669  -0.39582  -0.38899  -0.38540  -0.38535
 Alpha  occ. eigenvalues --   -0.38029  -0.37745  -0.37204  -0.37139  -0.36278
 Alpha  occ. eigenvalues --   -0.36094  -0.35927  -0.35284  -0.33996  -0.33547
 Alpha  occ. eigenvalues --   -0.33141  -0.33062  -0.32615  -0.32317  -0.32266
 Alpha  occ. eigenvalues --   -0.32231  -0.32130  -0.31544  -0.26615  -0.26077
 Alpha  occ. eigenvalues --   -0.23490  -0.23107
 Alpha virt. eigenvalues --   -0.07379  -0.07284  -0.00031   0.00186   0.02393
 Alpha virt. eigenvalues --    0.02982   0.04508   0.04821   0.05201   0.05486
 Alpha virt. eigenvalues --    0.06410   0.06948   0.07577   0.07583   0.08522

 Mulliken charges:
               1
     1  Mg   0.953662
     2  C   -0.018616
     3  C   -0.078200
     4  C   -0.102248
     5  C   -0.070788
     6  N   -0.331704
     7  C   -0.062376
     8  C    0.031523
     9  C   -0.153780
    10  C    0.038899
    11  C    0.036053
    12  C    0.038159
    13  C   -0.109479
    14  H    0.041401
    15  N   -0.434345
    16  C    0.181941
    17  C   -0.135726
    18  C   -0.121009
    19  C    0.236013
    20  C    0.062993
    21  C    0.025024
    22  O   -0.229594
    23  C    0.001801
    24  N   -0.396481
    25  C    0.068621
    26  C   -0.119387
    27  C   -0.097000
    28  C    0.094322
    29  C    0.022075
    30  C   -0.030760
    31  C   -0.043166
    32  N   -0.425144
    33  C    0.085975
    34  C   -0.233648
    35  C    0.018477
    36  C    0.142767
    37  C    0.107315
    38  C    0.094426
    39  O   -0.186556
    40  C   -0.073634
    41  C    0.259957
    42  O   -0.213108
    43  O   -0.378383
    44  C    0.124744
    45  H   -0.006377
    46  H   -0.019664
    47  H   -0.005999
    48  H    0.020861
    49  H    0.031372
    50  H    0.043441
    51  H    0.049281
    52  H    0.029123
    53  H    0.029824
    54  H    0.035454
    55  H    0.036428
    56  H    0.039796
    57  H    0.058588
    58  H    0.019605
    59  H    0.074513
    60  H    0.052454
    61  H    0.058036
    62  H    0.079028
    63  H    0.040401
    64  H    0.042196
    65  H    0.035904
    66  H    0.050039
    67  H    0.035388
    68  H    0.033113
    69  H    0.030003
    70  H    0.038272
    71  H    0.042327
    72  H    0.038962
    73  H    0.070605
    74  H    0.005440
    75  H    0.058179
    76  H    0.072836
    77  H    0.057132
    78  H    0.062219
    79  H    0.040209
    80  Mg   0.980654
    81  C   -0.124192
    82  C   -0.080708
    83  C   -0.101767
    84  C   -0.096450
    85  N   -0.314467
    86  C   -0.024787
    87  C   -0.047653
    88  C   -0.085464
    89  C    0.060953
    90  C    0.030221
    91  C   -0.009446
    92  C   -0.101156
    93  H    0.050324
    94  N   -0.481347
    95  C    0.127765
    96  C   -0.142793
    97  C   -0.097870
    98  C    0.230187
    99  C    0.077107
   100  C    0.025816
   101  O   -0.277713
   102  C    0.020139
   103  N   -0.347067
   104  C    0.018997
   105  C   -0.090639
   106  C   -0.108967
   107  C    0.094343
   108  C    0.033657
   109  C    0.010069
   110  C   -0.047585
   111  N   -0.436805
   112  C    0.106363
   113  C   -0.206210
   114  C   -0.066812
   115  C    0.192987
   116  C    0.118139
   117  C    0.144164
   118  O   -0.188412
   119  C   -0.050670
   120  C    0.292306
   121  O   -0.254421
   122  O   -0.371184
   123  C    0.136629
   124  H   -0.000066
   125  H   -0.036522
   126  H    0.002957
   127  H    0.018574
   128  H    0.029559
   129  H    0.037178
   130  H    0.045348
   131  H    0.037065
   132  H    0.031076
   133  H    0.053662
   134  H    0.048076
   135  H    0.042417
   136  H    0.047732
   137  H    0.033321
   138  H    0.069397
   139  H    0.083944
   140  H    0.065099
   141  H    0.043342
   142  H    0.038403
   143  H    0.032678
   144  H    0.040663
   145  H    0.041116
   146  H    0.031831
   147  H    0.033603
   148  H    0.025545
   149  H    0.046665
   150  H    0.035583
   151  H    0.033275
   152  H    0.080954
   153  H    0.046764
   154  H    0.029901
   155  H    0.059560
   156  H    0.065649
   157  H    0.052754
   158  H    0.056664
 Sum of Mulliken charges =  -0.00000

 Dipole moment (field-independent basis, Debye):
    X=             -1.8314    Y=              1.2976    Z=              0.5412  Tot=              2.3088
 Quadrupole moment (field-independent basis, Debye-Ang):
   XX=           -297.2921   YY=           -505.5129   ZZ=           -511.6996
   XY=             24.0936   XZ=            -17.1104   YZ=            -11.1861

 Normal termination of Gaussian 16 at Mon Sep 20 16:33:05 2021.
