 Gaussian 16, Revision A.03,
 Gaussian 16:  ES64L-G16RevA.03 25-Dec-2016

 --------------------------------
 #p wB97XD/Def2SVP td=(nstates=5)
 --------------------------------

 --------------------------------
 TDDFT excited states in gaussian
 --------------------------------
 Symbolic Z-matrix:
 Charge =  0 Multiplicity = 1

                         Standard orientation:
 ---------------------------------------------------------------------
 Center     Atomic      Atomic             Coordinates (Angstroms)
 Number     Number       Type             X           Y           Z
 ---------------------------------------------------------------------
      1         12           0       13.641154    0.198907    0.367164
      2          6           0       10.220023   -0.431063   -0.560846
      3          6           0       14.174307    1.133810   -2.872520
      4          6           0       16.885847    0.490713    1.166090
      5          6           0       12.983663   -1.226112    3.381826
      6          7           0       12.250647    0.380156   -1.554111
      7          6           0       10.916375    0.097508   -1.601644
      8          6           0       10.421259    0.547816   -2.923545
      9          6           0       11.693888    0.923787   -3.731895
     10          6           0       12.855258    0.780295   -2.710570
     11          6           0       11.909821   -0.026043   -4.952818
     12          6           0        9.388854    1.647078   -2.900780
     13          6           0        8.657164    2.004327   -4.184503
     14          1           0        7.190578    2.091557   -4.110722
     15          7           0       15.254158    0.835849   -0.661841
     16          6           0       15.300011    1.094142   -2.059685
     17          6           0       16.653824    1.604459   -2.346706
     18          6           0       17.414650    1.325726   -1.214295
     19          6           0       16.516160    0.793251   -0.173938
     20          6           0       17.025735    2.112113   -3.724192
     21          6           0       18.914214    1.579679   -0.948328
     22          8           0       19.546088    1.091858    0.007436
     23          6           0       19.612336    2.482397   -1.881640
     24          7           0       14.829731   -0.355554    2.031246
     25          6           0       16.121153   -0.143424    2.180706
     26          6           0       16.678750   -0.657161    3.536518
     27          6           0       15.376490   -0.954077    4.283286
     28          6           0       14.337845   -0.796849    3.196448
     29          6           0       17.575915   -1.926545    3.346441
     30          6           0       15.072960   -0.101067    5.494328
     31          6           0       14.520874   -0.830839    6.731765
     32          7           0       11.945516   -0.559130    1.253653
     33          6           0       11.847214   -1.100600    2.516749
     34          6           0       10.440263   -1.491959    2.832326
     35          6           0        9.852555   -1.237457    1.609581
     36          6           0       10.769962   -0.736245    0.678213
     37          6           0        9.853293   -1.883138    4.150447
     38          6           0        8.568270   -1.315428    0.929136
     39          8           0        7.491616   -1.662590    1.401365
     40          6           0        8.734719   -0.794249   -0.516726
     41          6           0        8.160327   -1.793806   -1.380721
     42          8           0        8.668747   -2.894592   -1.703057
     43          8           0        7.026028   -1.316931   -1.964179
     44          6           0        6.449534   -2.054324   -3.067178
     45          1           0       14.341396    1.516823   -3.881144
     46          1           0       17.955551    0.427726    1.375639
     47          1           0       12.935032   -1.867796    4.263841
     48          1           0        9.982263   -0.359841   -3.335644
     49          1           0       11.653261    1.940809   -4.122301
     50          1           0       12.082134    0.329913   -5.969037
     51          1           0       10.995645   -0.618256   -4.990446
     52          1           0       12.648434   -0.813535   -4.800730
     53          1           0        9.838327    2.604668   -2.637375
     54          1           0        8.732964    1.572120   -2.033876
     55          1           0        8.862635    1.269628   -4.961586
     56          1           0        8.894976    3.052398   -4.364555
     57          1           0       17.972889    1.728089   -4.102467
     58          1           0       17.066690    3.198477   -3.800543
     59          1           0       16.348363    1.809391   -4.523087
     60          1           0       19.032219    3.401057   -1.970120
     61          1           0       19.582206    1.918008   -2.813008
     62          1           0       20.553110    2.749981   -1.401963
     63          1           0       17.228302    0.178029    3.972087
     64          1           0       15.247720   -1.977554    4.634282
     65          1           0       17.110087   -2.814564    3.772649
     66          1           0       18.526269   -1.821583    3.869833
     67          1           0       17.679576   -2.045287    2.267791
     68          1           0       14.392546    0.715310    5.254214
     69          1           0       15.970600    0.503837    5.618365
     70          1           0       14.822991   -0.245362    7.599576
     71          1           0       14.784257   -1.888672    6.757677
     72          1           0       13.449245   -0.781350    6.539882
     73          1           0        9.317024   -1.081170    4.658100
     74          1           0       10.669231   -2.355434    4.696771
     75          1           0        9.228208   -2.766507    4.014170
     76          1           0        8.036593    0.040168   -0.582978
     77          1           0        7.051227   -2.893519   -3.417215
     78          1           0        6.173820   -1.380209   -3.877675
     79          1           0        5.489215   -2.498452   -2.803881
     80         12           0      -13.130093   -0.478772   -0.529383
     81          6           0      -12.917027    2.678808    0.827296
     82          6           0       -9.900918   -0.162593   -1.595569
     83          6           0      -12.996542   -3.777696   -0.638839
     84          6           0      -16.423376   -0.648623    0.675988
     85          7           0      -11.484098    0.943601    0.047345
     86          6           0      -11.692042    2.242280    0.385286
     87          6           0      -10.451192    3.077551    0.271139
     88          6           0       -9.704614    2.293876   -0.856479
     89          6           0      -10.444946    0.964632   -0.867063
     90          6           0       -9.680773    3.053610   -2.213773
     91          6           0       -9.601015    3.095879    1.638913
     92          6           0       -8.854591    4.471890    1.964397
     93          1           0       -7.374286    4.190614    2.039381
     94          7           0      -11.704027   -1.765666   -1.238951
     95          6           0      -10.415226   -1.513522   -1.556714
     96          6           0       -9.725353   -2.743457   -1.924848
     97          6           0      -10.627738   -3.799346   -1.681894
     98          6           0      -11.845031   -3.120265   -1.155658
     99          6           0       -8.251785   -2.724808   -2.398685
    100          6           0      -10.226611   -5.246732   -1.745603
    101          8           0       -9.112910   -5.538484   -2.096022
    102          6           0      -11.132647   -6.425405   -1.341346
    103          7           0      -14.558088   -2.053745   -0.175744
    104          6           0      -14.250562   -3.270043   -0.275049
    105          6           0      -15.314324   -4.189671    0.199294
    106          6           0      -16.461563   -3.191162    0.624469
    107          6           0      -15.811481   -1.899957    0.375615
    108          6           0      -15.673775   -5.266513   -0.879606
    109          6           0      -16.887147   -3.380843    2.153708
    110          6           0      -18.278654   -2.802780    2.595151
    111          7           0      -14.473632    0.739642    0.455376
    112          6           0      -15.806737    0.563851    0.779161
    113          6           0      -16.371926    1.787533    1.276277
    114          6           0      -15.254869    2.694424    1.268068
    115          6           0      -14.138016    1.984715    0.871133
    116          6           0      -17.783959    2.042342    1.695305
    117          6           0      -14.878760    4.040977    1.528826
    118          8           0      -15.465353    5.050072    1.940760
    119          6           0      -13.316586    4.039844    1.441469
    120          6           0      -12.932061    5.258010    0.669850
    121          8           0      -12.628901    6.348482    1.174006
    122          8           0      -13.021152    5.003533   -0.670902
    123          6           0      -12.680860    6.244064   -1.422666
    124          1           0       -8.931561   -0.121046   -2.097397
    125          1           0      -12.901824   -4.865026   -0.629787
    126          1           0      -17.394569   -0.745066    1.167370
    127          1           0      -10.814532    4.036305   -0.096666
    128          1           0       -8.655514    2.187932   -0.579825
    129          1           0       -8.650639    3.299128   -2.470309
    130          1           0      -10.186438    4.006680   -2.055236
    131          1           0      -10.210178    2.439363   -2.941476
    132          1           0       -8.897909    2.275290    1.780862
    133          1           0      -10.255366    2.919218    2.491955
    134          1           0       -9.193826    4.724618    2.969072
    135          1           0       -9.068476    5.358560    1.367487
    136          1           0       -7.566776   -3.317618   -1.792630
    137          1           0       -7.833849   -1.723917   -2.512176
    138          1           0       -8.247843   -3.099021   -3.421887
    139          1           0      -12.013208   -6.528404   -1.974621
    140          1           0      -11.438600   -6.404492   -0.295073
    141          1           0      -10.469573   -7.291054   -1.344893
    142          1           0      -14.871968   -4.644096    1.085716
    143          1           0      -17.363313   -3.146604    0.014235
    144          1           0      -15.492488   -6.240071   -0.424699
    145          1           0      -15.086940   -5.142688   -1.789945
    146          1           0      -16.741764   -5.364041   -1.073895
    147          1           0      -16.140155   -2.930230    2.807541
    148          1           0      -16.867829   -4.456515    2.322574
    149          1           0      -19.054279   -3.451020    3.002019
    150          1           0      -18.790380   -2.350531    1.746718
    151          1           0      -18.141076   -2.020912    3.342067
    152          1           0      -18.508945    1.259559    1.473126
    153          1           0      -17.965715    2.961183    1.139271
    154          1           0      -17.623531    2.287981    2.745158
    155          1           0      -12.813042    4.028051    2.408706
    156          1           0      -13.473737    6.978414   -1.284238
    157          1           0      -12.722975    6.107023   -2.503219
    158          1           0      -11.694826    6.569558   -1.090515
 ---------------------------------------------------------------------

 SCF Done:  E(RwB97XD) =  -4070.60764110     A.U. after   19 cycles

 Excitation energies and oscillator strengths:

 Excited State   1:      Singlet-A      1.6583 eV  747.64 nm  f=0.3847  <S**2>=0.000
     309 -> 316       -0.16732
     311 -> 313        0.68461
     309 <- 316       -0.10859
 This state for optimization and/or second-order correction.
 Total Energy, E(TD-HF/TD-DFT) =  -4070.54669844
 Copying the excited state density for this state as the 1-particle RhoCI density.

 Excited State   2:      Singlet-A      1.6936 eV  732.09 nm  f=0.3571  <S**2>=0.000
     310 -> 315       -0.20426
     312 -> 314        0.67829
     310 <- 315       -0.12237

 Excited State   3:      Singlet-A      2.1687 eV  571.70 nm  f=0.1044  <S**2>=0.000
     309 -> 313        0.63800
     311 -> 316        0.28237

 Excited State   4:      Singlet-A      2.2627 eV  547.95 nm  f=0.0706  <S**2>=0.000
     310 -> 314        0.61591
     312 -> 315        0.33994

 Excited State   5:      Singlet-A      3.7089 eV  334.28 nm  f=0.0000  <S**2>=0.000
     312 -> 313        0.70702

 The electronic state is 1-A.
 Alpha  occ. eigenvalues --  -46.95513 -46.94850 -19.30690 -19.30424 -19.24532
 Alpha  occ. eigenvalues --  -19.24088 -19.23932 -19.23840 -19.23686 -19.22830
 Alpha  occ. eigenvalues --  -14.46628 -14.46487 -14.46441 -14.45721 -14.44907
 Alpha  occ. eigenvalues --  -14.44401 -14.44200 -14.43078 -10.43014 -10.42445
 Alpha  occ. eigenvalues --  -10.39723 -10.39233 -10.38492 -10.37965 -10.36395
 Alpha  occ. eigenvalues --  -10.35822 -10.35402 -10.35103 -10.34976 -10.34802
 Alpha  occ. eigenvalues --  -10.34637 -10.34615 -10.34595 -10.34571 -10.34472
 Alpha  occ. eigenvalues --  -10.34449 -10.34110 -10.34097 -10.33868 -10.33588
 Alpha  occ. eigenvalues --  -10.33207 -10.32662 -10.32559 -10.32387 -10.32387
 Alpha  occ. eigenvalues --  -10.32207 -10.32189 -10.32184 -10.32149 -10.32121
 Alpha  occ. eigenvalues --  -10.32054 -10.32043 -10.32031 -10.31796 -10.31790
 Alpha  occ. eigenvalues --  -10.31732 -10.31684 -10.31628 -10.31507 -10.31457
 Alpha  occ. eigenvalues --  -10.31441 -10.31320 -10.31272 -10.31242 -10.31194
 Alpha  occ. eigenvalues --  -10.31119 -10.31040 -10.30974 -10.30838 -10.30611
 Alpha  occ. eigenvalues --  -10.30600 -10.30524 -10.30522 -10.30243 -10.30098
 Alpha  occ. eigenvalues --  -10.30057 -10.30039 -10.29970 -10.29963 -10.29854
 Alpha  occ. eigenvalues --  -10.29846 -10.29844 -10.29772 -10.29578 -10.28655
 Alpha  occ. eigenvalues --  -10.28321  -3.21525  -3.20887  -1.95101  -1.94663
 Alpha  occ. eigenvalues --   -1.94488  -1.94486  -1.94005  -1.93868  -1.18328
 Alpha  occ. eigenvalues --   -1.18035  -1.14174  -1.11727  -1.11289  -1.10210
 Alpha  occ. eigenvalues --   -1.09001  -1.08552  -1.08174  -1.07780  -1.06629
 Alpha  occ. eigenvalues --   -1.06627  -1.05917  -1.05100  -1.04752  -1.04245
 Alpha  occ. eigenvalues --   -0.95172  -0.94366  -0.91958  -0.91552  -0.91203
 Alpha  occ. eigenvalues --   -0.90557  -0.90425  -0.90075  -0.89551  -0.89185
 Alpha  occ. eigenvalues --   -0.89018  -0.88874  -0.88587  -0.88468  -0.86641
 Alpha  occ. eigenvalues --   -0.86154  -0.85965  -0.85623  -0.84831  -0.84540
 Alpha  occ. eigenvalues --   -0.84122  -0.83679  -0.83210  -0.82874  -0.82769
 Alpha  occ. eigenvalues --   -0.82229  -0.80644  -0.80293  -0.79758  -0.79657
 Alpha  occ. eigenvalues --   -0.79387  -0.78658  -0.78496  -0.77821  -0.77389
 Alpha  occ. eigenvalues --   -0.77194  -0.74999  -0.74588  -0.74162  -0.73940
 Alpha  occ. eigenvalues --   -0.72332  -0.71463  -0.71269  -0.71239  -0.70078
 Alpha  occ. eigenvalues --   -0.70055  -0.69614  -0.68693  -0.68542  -0.68337
 Alpha  occ. eigenvalues --   -0.67385  -0.67246  -0.67121  -0.66805  -0.66578
 Alpha  occ. eigenvalues --   -0.66407  -0.64551  -0.64335  -0.62517  -0.62402
 Alpha  occ. eigenvalues --   -0.61910  -0.61512  -0.61504  -0.61127  -0.60772
 Alpha  occ. eigenvalues --   -0.60715  -0.60377  -0.59933  -0.59636  -0.58911
 Alpha  occ. eigenvalues --   -0.58534  -0.58483  -0.58054  -0.57712  -0.57589
 Alpha  occ. eigenvalues --   -0.57533  -0.56879  -0.56386  -0.56017  -0.55974
 Alpha  occ. eigenvalues --   -0.55839  -0.55492  -0.55430  -0.55138  -0.54897
 Alpha  occ. eigenvalues --   -0.54871  -0.54601  -0.54278  -0.53923  -0.53881
 Alpha  occ. eigenvalues --   -0.53807  -0.53649  -0.53557  -0.53141  -0.53064
 Alpha  occ. eigenvalues --   -0.53056  -0.52729  -0.52476  -0.52461  -0.52351
 Alpha  occ. eigenvalues --   -0.52230  -0.52106  -0.51877  -0.51783  -0.51600
 Alpha  occ. eigenvalues --   -0.51596  -0.51019  -0.51006  -0.50787  -0.50613
 Alpha  occ. eigenvalues --   -0.50545  -0.50325  -0.50277  -0.50185  -0.49891
 Alpha  occ. eigenvalues --   -0.49770  -0.49645  -0.49517  -0.49305  -0.49299
 Alpha  occ. eigenvalues --   -0.49176  -0.48987  -0.48823  -0.48685  -0.48478
 Alpha  occ. eigenvalues --   -0.48171  -0.48147  -0.48105  -0.47978  -0.47753
 Alpha  occ. eigenvalues --   -0.47622  -0.47523  -0.47269  -0.47103  -0.47023
 Alpha  occ. eigenvalues --   -0.47020  -0.46505  -0.46476  -0.46291  -0.46192
 Alpha  occ. eigenvalues --   -0.46078  -0.45887  -0.45877  -0.45846  -0.45640
 Alpha  occ. eigenvalues --   -0.45349  -0.45232  -0.45075  -0.45046  -0.44816
 Alpha  occ. eigenvalues --   -0.44478  -0.44465  -0.44363  -0.44031  -0.43994
 Alpha  occ. eigenvalues --   -0.43778  -0.43757  -0.43687  -0.43661  -0.43518
 Alpha  occ. eigenvalues --   -0.43285  -0.43224  -0.43056  -0.42992  -0.42775
 Alpha  occ. eigenvalues --   -0.42610  -0.42058  -0.41918  -0.41820  -0.41454
 Alpha  occ. eigenvalues --   -0.40719  -0.40515  -0.40166  -0.39852  -0.39554
 Alpha  occ. eigenvalues --   -0.39234  -0.38830  -0.38716  -0.38344  -0.38036
 Alpha  occ. eigenvalues --   -0.37923  -0.37683  -0.36914  -0.35896  -0.35746
 Alpha  occ. eigenvalues --   -0.35507  -0.35280  -0.35178  -0.33904  -0.33790
 Alpha  occ. eigenvalues --   -0.33521  -0.32999  -0.32766  -0.32733  -0.32544
 Alpha  occ. eigenvalues --   -0.32448  -0.31954  -0.30972  -0.26086  -0.26015
 Alpha  occ. eigenvalues --   -0.22926  -0.22735
 Alpha virt. eigenvalues --   -0.07053  -0.06520   0.00088   0.00197   0.02356
 Alpha virt. eigenvalues --    0.02777   0.04212   0.04609   0.05193   0.06120
 Alpha virt. eigenvalues --    0.06667   0.07027   0.08117   0.08182   0.08951

 Mulliken charges:
               1
     1  Mg   0.974721
     2  C    0.002820
     3  C   -0.074152
     4  C   -0.058868
     5  C   -0.108599
     6  N   -0.330693
     7  C   -0.063351
     8  C    0.015599
     9  C   -0.121674
    10  C    0.063892
    11  C    0.011239
    12  C    0.011700
    13  C   -0.119908
    14  H    0.035123
    15  N   -0.515865
    16  C    0.190059
    17  C   -0.128850
    18  C   -0.091710
    19  C    0.167205
    20  C    0.036552
    21  C    0.055183
    22  O   -0.254763
    23  C    0.008780
    24  N   -0.326511
    25  C   -0.014164
    26  C   -0.059952
    27  C   -0.104884
    28  C    0.037694
    29  C    0.034209
    30  C    0.005137
    31  C   -0.035270
    32  N   -0.421250
    33  C    0.133023
    34  C   -0.209167
    35  C   -0.009011
    36  C    0.152964
    37  C    0.108980
    38  C    0.073367
    39  O   -0.209183
    40  C   -0.032001
    41  C    0.264701
    42  O   -0.283644
    43  O   -0.351512
    44  C    0.134938
    45  H   -0.012389
    46  H    0.030663
    47  H    0.003603
    48  H    0.033922
    49  H    0.037504
    50  H    0.040995
    51  H    0.017626
    52  H    0.035940
    53  H    0.014328
    54  H    0.025749
    55  H    0.056573
    56  H    0.056720
    57  H    0.040365
    58  H    0.054027
    59  H    0.038978
    60  H    0.053145
    61  H    0.060400
    62  H    0.061935
    63  H    0.043801
    64  H    0.028143
    65  H    0.033575
    66  H    0.048041
    67  H    0.054501
    68  H    0.023108
    69  H    0.008898
    70  H    0.052232
    71  H    0.038538
    72  H    0.041133
    73  H    0.077519
    74  H    0.017115
    75  H    0.049458
    76  H    0.080783
    77  H    0.066861
    78  H    0.047224
    79  H    0.046079
    80  Mg   0.966788
    81  C    0.015835
    82  C   -0.089469
    83  C   -0.073360
    84  C   -0.081772
    85  N   -0.340721
    86  C   -0.050089
    87  C   -0.024456
    88  C   -0.146562
    89  C    0.111108
    90  C    0.045289
    91  C    0.022881
    92  C   -0.130108
    93  H    0.029273
    94  N   -0.460589
    95  C    0.119373
    96  C   -0.139229
    97  C   -0.060635
    98  C    0.168541
    99  C    0.086742
   100  C    0.018678
   101  O   -0.210825
   102  C   -0.019707
   103  N   -0.295358
   104  C    0.031287
   105  C   -0.087933
   106  C   -0.051439
   107  C    0.005419
   108  C    0.018792
   109  C   -0.018485
   110  C   -0.065325
   111  N   -0.451091
   112  C    0.151262
   113  C   -0.200851
   114  C   -0.007575
   115  C    0.106084
   116  C    0.098565
   117  C    0.085687
   118  O   -0.226383
   119  C   -0.061129
   120  C    0.241417
   121  O   -0.258163
   122  O   -0.370086
   123  C    0.138485
   124  H    0.002949
   125  H   -0.045456
   126  H   -0.027305
   127  H    0.025901
   128  H    0.042685
   129  H    0.041615
   130  H    0.029674
   131  H    0.040722
   132  H    0.040945
   133  H    0.032352
   134  H    0.057516
   135  H    0.062728
   136  H    0.070244
   137  H    0.019305
   138  H    0.052736
   139  H    0.067080
   140  H    0.060759
   141  H    0.051685
   142  H    0.046769
   143  H    0.041867
   144  H    0.030619
   145  H    0.057206
   146  H    0.038640
   147  H    0.041132
   148  H    0.036548
   149  H    0.040035
   150  H    0.032964
   151  H    0.044188
   152  H    0.043181
   153  H    0.064897
   154  H    0.064687
   155  H    0.078493
   156  H    0.064790
   157  H    0.047198
   158  H    0.060485
 Sum of Mulliken charges =  -0.00000

 Dipole moment (field-independent basis, Debye):
    X=              1.2677    Y=             -1.9026    Z=             -4.4628  Tot=              5.0143
 Quadrupole moment (field-independent basis, Debye-Ang):
   XX=           -447.3905   YY=           -537.1286   ZZ=           -471.9279
   XY=            147.3946   XZ=             22.4550   YZ=            -43.1865

 Normal termination of Gaussian 16 at Mon Sep 20 04:10:21 2021.
