 Gaussian 16, Revision A.03,
 Gaussian 16:  ES64L-G16RevA.03 25-Dec-2016

 --------------------------------
 #p wB97XD/Def2SVP td=(nstates=5)
 --------------------------------

 --------------------------------
 TDDFT excited states in gaussian
 --------------------------------
 Symbolic Z-matrix:
 Charge =  0 Multiplicity = 1

                         Standard orientation:
 ---------------------------------------------------------------------
 Center     Atomic      Atomic             Coordinates (Angstroms)
 Number     Number       Type             X           Y           Z
 ---------------------------------------------------------------------
      1         12           0       24.605356   -0.810539    0.289893
      2          6           0       24.988814    2.148172   -1.517623
      3          6           0       24.432608    0.935178    3.118232
      4          6           0       25.580079   -3.637053    1.946948
      5          6           0       24.842397   -2.596124   -2.692014
      6          7           0       24.534451    1.341671    0.731923
      7          6           0       24.689276    2.322850   -0.148706
      8          6           0       24.446868    3.698155    0.572071
      9          6           0       24.385134    3.278958    2.060421
     10          6           0       24.477922    1.757300    1.998479
     11          6           0       25.639223    3.780685    2.934529
     12          6           0       23.130095    4.479635    0.121820
     13          6           0       23.362621    5.944674   -0.021353
     14          1           0       22.429451    6.923107    0.675141
     15          7           0       24.929572   -1.272486    2.264400
     16          6           0       24.782439   -0.403156    3.312643
     17          6           0       24.771373   -1.174854    4.563203
     18          6           0       25.108786   -2.510184    4.206043
     19          6           0       25.268641   -2.490317    2.742536
     20          6           0       24.558596   -0.523543    5.966969
     21          6           0       25.348869   -3.736394    5.137478
     22          8           0       25.633350   -4.859623    4.737129
     23          6           0       25.198162   -3.538823    6.598473
     24          7           0       25.151226   -2.758054   -0.256402
     25          6           0       25.592292   -3.782419    0.586726
     26          6           0       26.113905   -4.968097   -0.266508
     27          6           0       25.279485   -4.827879   -1.614436
     28          6           0       25.075661   -3.291693   -1.485195
     29          6           0       27.650633   -4.983259   -0.413424
     30          6           0       23.963472   -5.548949   -1.686253
     31          6           0       22.740913   -4.998704   -1.013799
     32          7           0       24.659222   -0.396166   -1.732736
     33          6           0       24.793899   -1.203143   -2.838764
     34          6           0       24.843799   -0.428178   -4.080653
     35          6           0       25.029060    0.948851   -3.609105
     36          6           0       24.914475    0.877103   -2.166188
     37          6           0       24.962996   -0.953724   -5.418426
     38          6           0       25.277533    2.329198   -4.006871
     39          8           0       25.507070    2.826781   -5.044828
     40          6           0       25.178911    3.180842   -2.636065
     41          6           0       26.309506    4.156527   -2.427854
     42          8           0       27.346560    3.918732   -1.815771
     43          8           0       25.934512    5.389844   -2.959791
     44          6           0       26.889765    6.505625   -2.834780
     45          1           0       24.181344    1.327068    4.106396
     46          1           0       25.901397   -4.495694    2.540834
     47          1           0       24.815374   -3.214186   -3.591454
     48          1           0       25.299310    4.370508    0.472031
     49          1           0       23.519335    3.625401    2.624725
     50          1           0       25.354377    4.738701    3.369940
     51          1           0       26.547518    3.989850    2.370005
     52          1           0       25.800714    3.055061    3.732567
     53          1           0       22.319921    4.352044    0.839954
     54          1           0       22.674706    4.136984   -0.807434
     55          1           0       23.181711    6.117857   -1.081840
     56          1           0       24.361100    6.326806    0.189194
     57          1           0       25.554309   -0.258011    6.321035
     58          1           0       24.007164   -1.183520    6.637071
     59          1           0       24.136322    0.481267    5.931273
     60          1           0       25.567235   -2.642018    7.095846
     61          1           0       25.663745   -4.368626    7.129648
     62          1           0       24.174476   -3.778824    6.887238
     63          1           0       25.762522   -5.843310    0.279211
     64          1           0       25.856261   -5.122318   -2.491032
     65          1           0       28.043873   -5.021762   -1.429307
     66          1           0       28.146548   -5.688695    0.253684
     67          1           0       28.067433   -4.051727   -0.030913
     68          1           0       23.993431   -6.572973   -1.315957
     69          1           0       23.701847   -5.651554   -2.739501
     70          1           0       22.255585   -4.458964   -1.826768
     71          1           0       22.919204   -4.274868   -0.218278
     72          1           0       22.125491   -5.824694   -0.655832
     73          1           0       24.382388   -0.282607   -6.051614
     74          1           0       24.495570   -1.938102   -5.418192
     75          1           0       26.006505   -0.952819   -5.731820
     76          1           0       24.260277    3.764824   -2.692619
     77          1           0       27.841045    6.153917   -3.235026
     78          1           0       27.052191    6.761873   -1.788183
     79          1           0       26.666423    7.461596   -3.308713
     80         12           0      -25.467350   -0.577902   -0.228712
     81          6           0      -23.422566    2.412118    0.021524
     82          6           0      -27.483941    0.898354    2.033792
     83          6           0      -27.219182   -3.242033   -0.419173
     84          6           0      -22.997113   -1.997207   -2.331180
     85          7           0      -25.431574    1.545911    0.907811
     86          6           0      -24.576764    2.573189    0.763399
     87          6           0      -25.093303    3.807559    1.527004
     88          6           0      -26.125564    3.042580    2.479776
     89          6           0      -26.409701    1.797596    1.749816
     90          6           0      -25.829959    2.990065    3.969349
     91          6           0      -25.691691    4.800096    0.515215
     92          6           0      -25.662721    6.272183    1.021925
     93          1           0      -24.828712    6.739907    2.302775
     94          7           0      -27.194666   -1.122163    0.658328
     95          6           0      -27.864535   -0.426752    1.646670
     96          6           0      -28.993675   -1.242668    2.082737
     97          6           0      -28.974693   -2.432752    1.314265
     98          6           0      -27.750656   -2.288605    0.476260
     99          6           0      -29.937080   -0.853287    3.132174
    100          6           0      -30.018599   -3.667808    1.283313
    101          8           0      -29.952319   -4.525393    0.445723
    102          6           0      -31.311101   -3.649436    2.118986
    103          7           0      -24.993291   -2.464464   -1.031547
    104          6           0      -25.984898   -3.349075   -1.099883
    105          6           0      -25.680627   -4.560117   -1.940162
    106          6           0      -24.555749   -3.966658   -2.823076
    107          6           0      -24.065152   -2.804343   -1.892754
    108          6           0      -25.172610   -5.828080   -1.108109
    109          6           0      -24.978535   -3.511804   -4.282744
    110          6           0      -26.149630   -4.232604   -5.011788
    111          7           0      -23.563493   -0.023577   -0.922212
    112          6           0      -22.708860   -0.622160   -1.788270
    113          6           0      -21.660849    0.220671   -2.149407
    114          6           0      -21.889606    1.359123   -1.430611
    115          6           0      -23.055086    1.216419   -0.703872
    116          6           0      -20.573630   -0.086004   -3.175694
    117          6           0      -21.326524    2.700789   -1.217058
    118          8           0      -20.257250    3.213199   -1.512233
    119          6           0      -22.395681    3.444937   -0.303679
    120          6           0      -21.683599    4.006416    0.830896
    121          8           0      -21.288952    3.402582    1.833469
    122          8           0      -21.298431    5.249729    0.475026
    123          6           0      -20.267308    5.783734    1.346639
    124          1           0      -28.026093    1.299668    2.892643
    125          1           0      -27.821838   -4.152012   -0.428451
    126          1           0      -22.313303   -2.441181   -3.057389
    127          1           0      -24.321777    4.235348    2.167318
    128          1           0      -27.043576    3.627572    2.444045
    129          1           0      -26.546908    3.569253    4.550480
    130          1           0      -24.827625    3.369113    4.167829
    131          1           0      -25.794685    1.981167    4.380486
    132          1           0      -26.752944    4.567520    0.424391
    133          1           0      -25.272108    4.720038   -0.487433
    134          1           0      -26.666159    6.691818    1.100354
    135          1           0      -25.371557    6.808898    0.119115
    136          1           0      -29.977840    0.228408    3.258373
    137          1           0      -29.572923   -1.343271    4.035336
    138          1           0      -30.965292   -1.162520    2.943135
    139          1           0      -32.018465   -2.876248    1.819216
    140          1           0      -30.965359   -3.637948    3.152867
    141          1           0      -31.805208   -4.619329    2.056114
    142          1           0      -26.639131   -4.769593   -2.414420
    143          1           0      -23.718368   -4.649497   -2.964604
    144          1           0      -25.766815   -6.628319   -1.548695
    145          1           0      -25.376019   -5.776025   -0.037946
    146          1           0      -24.122293   -6.087972   -1.234345
    147          1           0      -24.094105   -3.520931   -4.918184
    148          1           0      -25.374599   -2.518177   -4.072364
    149          1           0      -27.102154   -3.776508   -4.743111
    150          1           0      -26.011386   -5.277616   -4.732216
    151          1           0      -26.033447   -4.215621   -6.094893
    152          1           0      -21.050750   -0.765537   -3.882272
    153          1           0      -19.729245   -0.632995   -2.757288
    154          1           0      -20.271372    0.851464   -3.642142
    155          1           0      -22.830839    4.231752   -0.921129
    156          1           0      -19.929516    6.778703    1.058160
    157          1           0      -19.442933    5.115084    1.595007
    158          1           0      -20.675422    5.983600    2.337994
 ---------------------------------------------------------------------

 SCF Done:  E(RwB97XD) =  -4070.59298216     A.U. after   20 cycles

 Excitation energies and oscillator strengths:

 Excited State   1:      Singlet-A      1.6238 eV  763.53 nm  f=0.3767  <S**2>=0.000
     309 -> 315       -0.18256
     312 -> 313        0.68422
     309 <- 315       -0.11751
 This state for optimization and/or second-order correction.
 Total Energy, E(TD-HF/TD-DFT) =  -4070.53330772
 Copying the excited state density for this state as the 1-particle RhoCI density.

 Excited State   2:      Singlet-A      1.7990 eV  689.18 nm  f=0.3720  <S**2>=0.000
     310 -> 316        0.19145
     311 -> 314        0.67947
     310 <- 316        0.11149

 Excited State   3:      Singlet-A      2.1925 eV  565.49 nm  f=0.1502  <S**2>=0.000
     310 -> 314        0.65248
     311 -> 316       -0.25641

 Excited State   4:      Singlet-A      2.2000 eV  563.57 nm  f=0.1039  <S**2>=0.000
     309 -> 313        0.63106
     312 -> 315        0.30776

 Excited State   5:      Singlet-A      3.3921 eV  365.51 nm  f=0.0179  <S**2>=0.000
     307 -> 313        0.66091
     312 -> 315       -0.17961

 The electronic state is 1-A.
 Alpha  occ. eigenvalues --  -46.95692 -46.94235 -19.30246 -19.30100 -19.25592
 Alpha  occ. eigenvalues --  -19.25025 -19.24731 -19.24156 -19.23857 -19.23696
 Alpha  occ. eigenvalues --  -14.46738 -14.46079 -14.45999 -14.45665 -14.44563
 Alpha  occ. eigenvalues --  -14.43881 -14.43770 -14.43196 -10.43535 -10.42027
 Alpha  occ. eigenvalues --  -10.41026 -10.39568 -10.39525 -10.38797 -10.35525
 Alpha  occ. eigenvalues --  -10.35422 -10.35340 -10.34858 -10.34847 -10.34698
 Alpha  occ. eigenvalues --  -10.34590 -10.34535 -10.34257 -10.33997 -10.33853
 Alpha  occ. eigenvalues --  -10.33779 -10.33655 -10.33567 -10.33562 -10.33506
 Alpha  occ. eigenvalues --  -10.33350 -10.33203 -10.32885 -10.32821 -10.32711
 Alpha  occ. eigenvalues --  -10.32440 -10.32354 -10.32352 -10.32331 -10.32204
 Alpha  occ. eigenvalues --  -10.32047 -10.31983 -10.31908 -10.31682 -10.31661
 Alpha  occ. eigenvalues --  -10.31634 -10.31587 -10.31536 -10.31449 -10.31442
 Alpha  occ. eigenvalues --  -10.31433 -10.31306 -10.31279 -10.31128 -10.31120
 Alpha  occ. eigenvalues --  -10.31049 -10.30796 -10.30711 -10.30513 -10.30162
 Alpha  occ. eigenvalues --  -10.30133 -10.30131 -10.29952 -10.29949 -10.29872
 Alpha  occ. eigenvalues --  -10.29769 -10.29638 -10.29457 -10.29450 -10.29424
 Alpha  occ. eigenvalues --  -10.29363 -10.29355 -10.29346 -10.29040 -10.28333
 Alpha  occ. eigenvalues --  -10.27682  -3.21645  -3.20356  -1.95235  -1.94786
 Alpha  occ. eigenvalues --   -1.94596  -1.93954  -1.93458  -1.93360  -1.18647
 Alpha  occ. eigenvalues --   -1.17310  -1.15203  -1.14886  -1.12320  -1.11642
 Alpha  occ. eigenvalues --   -1.09641  -1.08798  -1.07800  -1.07226  -1.07144
 Alpha  occ. eigenvalues --   -1.06726  -1.05547  -1.05417  -1.04870  -1.04152
 Alpha  occ. eigenvalues --   -0.94290  -0.93830  -0.91174  -0.90865  -0.90609
 Alpha  occ. eigenvalues --   -0.90441  -0.89953  -0.89919  -0.89503  -0.89115
 Alpha  occ. eigenvalues --   -0.88825  -0.88793  -0.88188  -0.87483  -0.86294
 Alpha  occ. eigenvalues --   -0.86031  -0.85464  -0.84999  -0.84422  -0.84259
 Alpha  occ. eigenvalues --   -0.83885  -0.83739  -0.82928  -0.82662  -0.82306
 Alpha  occ. eigenvalues --   -0.82063  -0.80626  -0.80165  -0.79141  -0.78731
 Alpha  occ. eigenvalues --   -0.78654  -0.78529  -0.77735  -0.77638  -0.77196
 Alpha  occ. eigenvalues --   -0.76761  -0.74710  -0.74227  -0.73631  -0.73408
 Alpha  occ. eigenvalues --   -0.71594  -0.71114  -0.70710  -0.70482  -0.69655
 Alpha  occ. eigenvalues --   -0.69570  -0.68815  -0.68674  -0.67614  -0.67394
 Alpha  occ. eigenvalues --   -0.67044  -0.66610  -0.66590  -0.66216  -0.66010
 Alpha  occ. eigenvalues --   -0.65659  -0.63782  -0.63775  -0.62873  -0.62109
 Alpha  occ. eigenvalues --   -0.61520  -0.61475  -0.61224  -0.60852  -0.60370
 Alpha  occ. eigenvalues --   -0.60075  -0.59852  -0.59730  -0.59471  -0.59185
 Alpha  occ. eigenvalues --   -0.58585  -0.57765  -0.57456  -0.57398  -0.57274
 Alpha  occ. eigenvalues --   -0.57143  -0.56731  -0.56521  -0.56029  -0.55983
 Alpha  occ. eigenvalues --   -0.55764  -0.55545  -0.55495  -0.55285  -0.54948
 Alpha  occ. eigenvalues --   -0.54853  -0.54838  -0.54403  -0.54179  -0.54065
 Alpha  occ. eigenvalues --   -0.53675  -0.53671  -0.53524  -0.53282  -0.53210
 Alpha  occ. eigenvalues --   -0.53180  -0.53063  -0.52633  -0.52407  -0.52306
 Alpha  occ. eigenvalues --   -0.52097  -0.51984  -0.51933  -0.51644  -0.51524
 Alpha  occ. eigenvalues --   -0.51406  -0.51059  -0.51020  -0.50881  -0.50696
 Alpha  occ. eigenvalues --   -0.50522  -0.50500  -0.50274  -0.50203  -0.49875
 Alpha  occ. eigenvalues --   -0.49795  -0.49700  -0.49419  -0.49314  -0.48931
 Alpha  occ. eigenvalues --   -0.48866  -0.48746  -0.48664  -0.48485  -0.48160
 Alpha  occ. eigenvalues --   -0.48157  -0.48015  -0.47721  -0.47676  -0.47395
 Alpha  occ. eigenvalues --   -0.47350  -0.47105  -0.46844  -0.46813  -0.46552
 Alpha  occ. eigenvalues --   -0.46525  -0.46438  -0.46251  -0.46221  -0.46069
 Alpha  occ. eigenvalues --   -0.45989  -0.45849  -0.45745  -0.45628  -0.45254
 Alpha  occ. eigenvalues --   -0.45234  -0.45182  -0.45174  -0.44896  -0.44686
 Alpha  occ. eigenvalues --   -0.44586  -0.44565  -0.44376  -0.44217  -0.43985
 Alpha  occ. eigenvalues --   -0.43760  -0.43487  -0.43417  -0.43346  -0.43335
 Alpha  occ. eigenvalues --   -0.43220  -0.43058  -0.42353  -0.42287  -0.42089
 Alpha  occ. eigenvalues --   -0.41628  -0.41226  -0.41012  -0.40597  -0.40566
 Alpha  occ. eigenvalues --   -0.40163  -0.40006  -0.39932  -0.39575  -0.39410
 Alpha  occ. eigenvalues --   -0.38917  -0.38656  -0.38625  -0.38570  -0.37906
 Alpha  occ. eigenvalues --   -0.37814  -0.37644  -0.36399  -0.36251  -0.36145
 Alpha  occ. eigenvalues --   -0.35663  -0.35038  -0.34690  -0.33960  -0.33744
 Alpha  occ. eigenvalues --   -0.33374  -0.33252  -0.33102  -0.32836  -0.32310
 Alpha  occ. eigenvalues --   -0.32161  -0.31740  -0.31589  -0.25879  -0.25305
 Alpha  occ. eigenvalues --   -0.23214  -0.22558
 Alpha virt. eigenvalues --   -0.06785  -0.06592   0.00565   0.00836   0.02509
 Alpha virt. eigenvalues --    0.02615   0.04566   0.04763   0.05568   0.05939
 Alpha virt. eigenvalues --    0.06756   0.06760   0.07910   0.08102   0.08640

 Mulliken charges:
               1
     1  Mg   0.983913
     2  C    0.016789
     3  C   -0.089876
     4  C   -0.082546
     5  C   -0.106078
     6  N   -0.316743
     7  C    0.009824
     8  C   -0.040743
     9  C   -0.128855
    10  C    0.104077
    11  C   -0.004733
    12  C    0.028234
    13  C   -0.147910
    14  H    0.026141
    15  N   -0.452996
    16  C    0.111624
    17  C   -0.155602
    18  C   -0.103365
    19  C    0.123632
    20  C    0.045681
    21  C    0.084746
    22  O   -0.233067
    23  C   -0.023363
    24  N   -0.364621
    25  C    0.051522
    26  C   -0.053014
    27  C   -0.060171
    28  C    0.046873
    29  C    0.044656
    30  C   -0.025415
    31  C   -0.034951
    32  N   -0.448282
    33  C    0.163704
    34  C   -0.168870
    35  C   -0.084440
    36  C    0.117525
    37  C    0.076981
    38  C    0.137653
    39  O   -0.142219
    40  C   -0.139100
    41  C    0.283493
    42  O   -0.249125
    43  O   -0.383385
    44  C    0.147055
    45  H   -0.013082
    46  H    0.021602
    47  H   -0.009722
    48  H    0.043011
    49  H    0.044071
    50  H    0.031218
    51  H    0.051219
    52  H    0.038049
    53  H    0.037928
    54  H    0.036988
    55  H    0.053930
    56  H    0.051425
    57  H    0.057683
    58  H    0.063575
    59  H    0.032730
    60  H    0.059336
    61  H    0.038646
    62  H    0.062593
    63  H    0.024378
    64  H    0.023856
    65  H    0.039134
    66  H    0.044464
    67  H    0.032090
    68  H    0.026708
    69  H    0.023451
    70  H    0.026976
    71  H    0.051692
    72  H    0.040173
    73  H    0.057392
    74  H    0.036690
    75  H    0.074584
    76  H    0.076018
    77  H    0.054218
    78  H    0.040548
    79  H    0.061774
    80  Mg   0.963121
    81  C   -0.002605
    82  C   -0.069667
    83  C   -0.087107
    84  C   -0.078755
    85  N   -0.252440
    86  C   -0.062530
    87  C   -0.061971
    88  C   -0.088878
    89  C    0.000054
    90  C    0.039642
    91  C    0.010121
    92  C   -0.092281
    93  H    0.048508
    94  N   -0.472754
    95  C    0.161601
    96  C   -0.161895
    97  C   -0.088127
    98  C    0.122082
    99  C    0.059509
   100  C    0.076560
   101  O   -0.197361
   102  C   -0.024158
   103  N   -0.321719
   104  C    0.065080
   105  C   -0.102268
   106  C   -0.113834
   107  C    0.058502
   108  C    0.030230
   109  C   -0.010564
   110  C   -0.052958
   111  N   -0.409845
   112  C    0.090367
   113  C   -0.219100
   114  C   -0.051338
   115  C    0.154782
   116  C    0.095810
   117  C    0.138608
   118  O   -0.197795
   119  C   -0.093102
   120  C    0.252667
   121  O   -0.272144
   122  O   -0.331231
   123  C    0.153304
   124  H   -0.010537
   125  H    0.011891
   126  H    0.003368
   127  H    0.040481
   128  H    0.017730
   129  H    0.039849
   130  H    0.042826
   131  H    0.036621
   132  H    0.031797
   133  H    0.047993
   134  H    0.038527
   135  H    0.037346
   136  H    0.044143
   137  H    0.065935
   138  H    0.040921
   139  H    0.086409
   140  H    0.045213
   141  H    0.050823
   142  H    0.043760
   143  H    0.017533
   144  H    0.041951
   145  H    0.045902
   146  H    0.042521
   147  H    0.037398
   148  H    0.027788
   149  H    0.050455
   150  H    0.034824
   151  H    0.039892
   152  H    0.025434
   153  H    0.053050
   154  H    0.055820
   155  H    0.073328
   156  H    0.049833
   157  H    0.060892
   158  H    0.024166
 Sum of Mulliken charges =  -0.00000

 Dipole moment (field-independent basis, Debye):
    X=             -8.5220    Y=              0.8481    Z=              3.8204  Tot=              9.3776
 Quadrupole moment (field-independent basis, Debye-Ang):
   XX=           -326.0507   YY=           -484.7537   ZZ=           -485.7031
   XY=              1.0985   XZ=             15.1947   YZ=             35.7518

 Normal termination of Gaussian 16 at Sat Sep 18 20:25:09 2021.
