 Gaussian 16, Revision A.03,
 Gaussian 16:  ES64L-G16RevA.03 25-Dec-2016

 --------------------------------
 #p wB97XD/Def2SVP td=(nstates=5)
 --------------------------------

 --------------------------------
 TDDFT excited states in gaussian
 --------------------------------
 Symbolic Z-matrix:
 Charge =  0 Multiplicity = 1

                         Standard orientation:
 ---------------------------------------------------------------------
 Center     Atomic      Atomic             Coordinates (Angstroms)
 Number     Number       Type             X           Y           Z
 ---------------------------------------------------------------------
      1         12           0      -19.045436    0.409823    0.379678
      2          6           0      -16.249377   -1.028318   -0.992761
      3          6           0      -20.747501   -2.513273   -0.182382
      4          6           0      -21.912033    1.883359    1.660093
      5          6           0      -17.411119    3.464439    0.516395
      6          7           0      -18.583554   -1.580161   -0.548544
      7          6           0      -17.322109   -1.920421   -0.946544
      8          6           0      -17.271646   -3.299553   -1.397344
      9          6           0      -18.711268   -3.788231   -1.370846
     10          6           0      -19.448529   -2.555733   -0.685892
     11          6           0      -19.387800   -4.215806   -2.718964
     12          6           0      -16.294886   -4.159287   -0.524803
     13          6           0      -15.529622   -5.321542   -1.246955
     14          1           0      -16.217393   -5.967011   -2.465961
     15          7           0      -21.022934   -0.297803    0.789234
     16          6           0      -21.499239   -1.561237    0.483806
     17          6           0      -22.913392   -1.651703    0.900303
     18          6           0      -23.275672   -0.350446    1.458226
     19          6           0      -22.058561    0.472077    1.345894
     20          6           0      -23.791911   -2.878538    0.717553
     21          6           0      -24.570988    0.033846    2.134455
     22          8           0      -24.680661    1.170365    2.627138
     23          6           0      -25.765054   -0.840004    2.232699
     24          7           0      -19.625720    2.407853    0.932540
     25          6           0      -20.812608    2.710429    1.466298
     26          6           0      -20.831810    4.165333    1.963900
     27          6           0      -19.287636    4.656855    1.842814
     28          6           0      -18.714274    3.389107    1.116975
     29          6           0      -21.857202    5.026308    1.163734
     30          6           0      -18.555031    4.898253    3.191082
     31          6           0      -18.199856    6.359628    3.503525
     32          7           0      -17.219522    1.151172   -0.186638
     33          6           0      -16.677953    2.434837   -0.086956
     34          6           0      -15.294821    2.446475   -0.612837
     35          6           0      -15.133523    1.090889   -0.984579
     36          6           0      -16.320564    0.357875   -0.716874
     37          6           0      -14.355078    3.548476   -0.657367
     38          6           0      -14.135400    0.114566   -1.467995
     39          8           0      -12.969073    0.230496   -1.736294
     40          6           0      -14.846249   -1.284287   -1.527852
     41          6           0      -14.681953   -1.831582   -2.884040
     42          8           0      -15.304548   -1.338441   -3.838355
     43          8           0      -13.930735   -2.964430   -2.958158
     44          6           0      -13.880311   -3.690724   -4.223113
     45          1           0      -21.260237   -3.458196   -0.373931
     46          1           0      -22.834505    2.339366    2.026212
     47          1           0      -16.898164    4.411165    0.697613
     48          1           0      -16.912697   -3.300980   -2.427122
     49          1           0      -18.852718   -4.565479   -0.618958
     50          1           0      -18.846343   -4.199973   -3.665395
     51          1           0      -20.277934   -3.601960   -2.854446
     52          1           0      -19.833078   -5.210432   -2.684938
     53          1           0      -16.817806   -4.520726    0.360726
     54          1           0      -15.609560   -3.490369   -0.004587
     55          1           0      -15.301698   -6.116102   -0.535882
     56          1           0      -14.602033   -4.992572   -1.714485
     57          1           0      -23.245939   -3.751719    0.362050
     58          1           0      -24.564240   -2.700035   -0.031138
     59          1           0      -24.134939   -3.239833    1.686871
     60          1           0      -26.485525   -0.304724    2.850426
     61          1           0      -25.554205   -1.819607    2.663669
     62          1           0      -26.120643   -1.081812    1.230962
     63          1           0      -21.029215    4.128423    3.035318
     64          1           0      -19.173745    5.517242    1.183464
     65          1           0      -22.524676    5.608857    1.798866
     66          1           0      -22.491622    4.394758    0.541239
     67          1           0      -21.233259    5.636181    0.509964
     68          1           0      -17.621248    4.344164    3.279057
     69          1           0      -19.137323    4.538389    4.039619
     70          1           0      -18.915438    7.019410    3.012746
     71          1           0      -17.211342    6.559541    3.091233
     72          1           0      -18.128593    6.436459    4.587694
     73          1           0      -13.322270    3.218695   -0.767652
     74          1           0      -14.406407    4.194635    0.218738
     75          1           0      -14.500077    4.065756   -1.605897
     76          1           0      -14.286681   -1.830417   -0.767668
     77          1           0      -13.386924   -3.150188   -5.031343
     78          1           0      -14.869647   -4.048966   -4.507521
     79          1           0      -13.267651   -4.584139   -4.103472
     80         12           0       19.469593   -0.221849   -0.066944
     81          6           0       15.953056   -0.918237    0.085428
     82          6           0       18.554959    2.488250   -2.206730
     83          6           0       22.448136    1.259068    0.406371
     84          6           0       19.940010   -2.395090    2.531525
     85          7           0       17.489920    0.651779   -0.889225
     86          6           0       16.215028    0.196551   -0.719231
     87          6           0       15.173840    1.067910   -1.504848
     88          6           0       16.137634    1.860585   -2.511606
     89          6           0       17.461959    1.719428   -1.778230
     90          6           0       16.233847    1.263585   -3.896883
     91          6           0       14.249554    1.867131   -0.601205
     92          6           0       12.741081    1.890693   -0.960339
     93          1           0       12.095406    3.144573   -1.714492
     94          7           0       20.460646    1.618498   -0.889675
     95          6           0       19.907371    2.518231   -1.824509
     96          6           0       20.926378    3.513758   -2.178989
     97          6           0       22.106660    3.119388   -1.433898
     98          6           0       21.702171    2.046756   -0.550737
     99          6           0       20.759422    4.687579   -3.068759
    100          6           0       23.474764    3.734609   -1.589679
    101          8           0       23.650810    4.511324   -2.501245
    102          6           0       24.652242    3.437792   -0.689958
    103          7           0       20.852422   -0.478310    1.334594
    104          6           0       22.079976    0.164602    1.202071
    105          6           0       22.988628   -0.351314    2.320318
    106          6           0       22.259793   -1.645345    2.837254
    107          6           0       20.939228   -1.525423    2.154464
    108          6           0       24.519821   -0.533633    2.010476
    109          6           0       22.177580   -1.876695    4.377379
    110          6           0       22.696039   -3.168229    4.920619
    111          7           0       18.291572   -1.504888    1.013205
    112          6           0       18.625602   -2.405752    2.009330
    113          6           0       17.496651   -3.312047    2.295259
    114          6           0       16.407867   -2.681619    1.576751
    115          6           0       16.962119   -1.617562    0.858670
    116          6           0       17.424382   -4.527812    3.181173
    117          6           0       14.948792   -2.809125    1.288907
    118          8           0       14.126586   -3.551915    1.744420
    119          6           0       14.623185   -1.602355    0.414799
    120          6           0       13.961102   -2.106425   -0.832713
    121          8           0       14.605382   -2.785441   -1.603086
    122          8           0       12.627320   -1.652694   -1.061181
    123          6           0       12.031704   -1.976069   -2.393080
    124          1           0       18.324353    3.296064   -2.904607
    125          1           0       23.451501    1.601190    0.665414
    126          1           0       20.181811   -3.205871    3.221472
    127          1           0       14.573401    0.465412   -2.185836
    128          1           0       15.903962    2.924995   -2.531339
    129          1           0       16.935235    0.430221   -3.863242
    130          1           0       16.532951    2.066431   -4.570591
    131          1           0       15.342412    0.820555   -4.342139
    132          1           0       14.585926    2.901247   -0.669073
    133          1           0       14.471130    1.589973    0.429386
    134          1           0       12.258334    1.774787    0.010330
    135          1           0       12.427727    1.040597   -1.566472
    136          1           0       21.156314    4.390818   -4.039117
    137          1           0       21.423399    5.485218   -2.735440
    138          1           0       19.775139    5.135469   -3.210608
    139          1           0       25.538029    4.048313   -0.864204
    140          1           0       24.917556    2.400285   -0.893523
    141          1           0       24.515211    3.450317    0.390688
    142          1           0       22.981069    0.493426    3.009737
    143          1           0       22.688558   -2.502932    2.319649
    144          1           0       24.689000   -0.602220    0.935536
    145          1           0       24.918593   -1.392141    2.550583
    146          1           0       25.085848    0.308781    2.407433
    147          1           0       21.139956   -1.766873    4.692449
    148          1           0       22.660443   -1.023160    4.853032
    149          1           0       21.853933   -3.792883    5.217817
    150          1           0       23.296431   -2.975397    5.809586
    151          1           0       23.307596   -3.783984    4.261471
    152          1           0       16.590127   -5.169359    2.898124
    153          1           0       17.315083   -4.158507    4.201249
    154          1           0       18.399582   -5.014472    3.157103
    155          1           0       14.044411   -0.907043    1.022986
    156          1           0       11.693460   -3.012397   -2.390209
    157          1           0       12.780797   -1.905859   -3.181484
    158          1           0       11.217109   -1.291653   -2.629173
 ---------------------------------------------------------------------

 SCF Done:  E(RwB97XD) =  -4070.64738497     A.U. after   18 cycles

 Excitation energies and oscillator strengths:

 Excited State   1:      Singlet-A      1.6114 eV  769.44 nm  f=0.4015  <S**2>=0.000
     309 -> 316        0.17519
     311 -> 313        0.68623
     309 <- 316        0.11590
 This state for optimization and/or second-order correction.
 Total Energy, E(TD-HF/TD-DFT) =  -4070.58816867
 Copying the excited state density for this state as the 1-particle RhoCI density.

 Excited State   2:      Singlet-A      1.6697 eV  742.57 nm  f=0.3868  <S**2>=0.000
     310 -> 315       -0.19469
     312 -> 314        0.68027
     310 <- 315       -0.11868

 Excited State   3:      Singlet-A      2.1827 eV  568.04 nm  f=0.1258  <S**2>=0.000
     309 -> 313        0.63921
     311 -> 316       -0.28430

 Excited State   4:      Singlet-A      2.1969 eV  564.36 nm  f=0.0823  <S**2>=0.000
     310 -> 314        0.62405
     312 -> 315        0.31820

 Excited State   5:      Singlet-A      3.1516 eV  393.39 nm  f=0.0019  <S**2>=0.000
     306 -> 313       -0.12252
     308 -> 313        0.66848
     311 -> 316        0.10229

 The electronic state is 1-A.
 Alpha  occ. eigenvalues --  -46.95647 -46.95216 -19.31182 -19.30491 -19.25659
 Alpha  occ. eigenvalues --  -19.24777 -19.24254 -19.24082 -19.23404 -19.22959
 Alpha  occ. eigenvalues --  -14.47391 -14.46405 -14.46284 -14.46251 -14.44115
 Alpha  occ. eigenvalues --  -14.43929 -14.43823 -14.43733 -10.44096 -10.43413
 Alpha  occ. eigenvalues --  -10.39427 -10.38930 -10.38866 -10.38436 -10.36066
 Alpha  occ. eigenvalues --  -10.36014 -10.35408 -10.35318 -10.34917 -10.34688
 Alpha  occ. eigenvalues --  -10.34687 -10.34660 -10.34468 -10.34415 -10.34289
 Alpha  occ. eigenvalues --  -10.34271 -10.34117 -10.34066 -10.33946 -10.33491
 Alpha  occ. eigenvalues --  -10.33339 -10.33283 -10.33203 -10.33102 -10.32885
 Alpha  occ. eigenvalues --  -10.32837 -10.32773 -10.32684 -10.32670 -10.32514
 Alpha  occ. eigenvalues --  -10.32323 -10.32080 -10.32053 -10.32044 -10.31961
 Alpha  occ. eigenvalues --  -10.31887 -10.31812 -10.31653 -10.31617 -10.31427
 Alpha  occ. eigenvalues --  -10.31424 -10.31326 -10.31280 -10.31246 -10.31029
 Alpha  occ. eigenvalues --  -10.31027 -10.30833 -10.30589 -10.30519 -10.30482
 Alpha  occ. eigenvalues --  -10.30382 -10.30349 -10.30277 -10.30094 -10.29966
 Alpha  occ. eigenvalues --  -10.29927 -10.29922 -10.29920 -10.29887 -10.29730
 Alpha  occ. eigenvalues --  -10.29612 -10.29530 -10.29357 -10.29310 -10.29262
 Alpha  occ. eigenvalues --  -10.29155  -3.21682  -3.21086  -1.95214  -1.94802
 Alpha  occ. eigenvalues --   -1.94697  -1.94653  -1.94191  -1.94062  -1.18610
 Alpha  occ. eigenvalues --   -1.17510  -1.13978  -1.13182  -1.12388  -1.11130
 Alpha  occ. eigenvalues --   -1.10079  -1.09306  -1.07110  -1.06565  -1.06053
 Alpha  occ. eigenvalues --   -1.05578  -1.05391  -1.04788  -1.03523  -1.03000
 Alpha  occ. eigenvalues --   -0.94740  -0.94448  -0.91253  -0.91004  -0.90744
 Alpha  occ. eigenvalues --   -0.90333  -0.90163  -0.89588  -0.89516  -0.89123
 Alpha  occ. eigenvalues --   -0.88654  -0.88206  -0.88159  -0.87573  -0.86385
 Alpha  occ. eigenvalues --   -0.85880  -0.85840  -0.85444  -0.84391  -0.84202
 Alpha  occ. eigenvalues --   -0.83786  -0.83725  -0.83148  -0.82506  -0.82479
 Alpha  occ. eigenvalues --   -0.82159  -0.80399  -0.80071  -0.79482  -0.79420
 Alpha  occ. eigenvalues --   -0.79238  -0.78729  -0.78239  -0.78145  -0.77150
 Alpha  occ. eigenvalues --   -0.76814  -0.74631  -0.74591  -0.73737  -0.73483
 Alpha  occ. eigenvalues --   -0.71432  -0.71161  -0.70880  -0.70263  -0.70014
 Alpha  occ. eigenvalues --   -0.69899  -0.68920  -0.68669  -0.67843  -0.67769
 Alpha  occ. eigenvalues --   -0.67336  -0.67046  -0.67041  -0.66538  -0.66325
 Alpha  occ. eigenvalues --   -0.66306  -0.64706  -0.64326  -0.61832  -0.61788
 Alpha  occ. eigenvalues --   -0.61560  -0.61487  -0.61210  -0.61177  -0.61027
 Alpha  occ. eigenvalues --   -0.60709  -0.60313  -0.60210  -0.59619  -0.59274
 Alpha  occ. eigenvalues --   -0.58483  -0.58038  -0.57826  -0.57586  -0.57407
 Alpha  occ. eigenvalues --   -0.57348  -0.56666  -0.56217  -0.55910  -0.55813
 Alpha  occ. eigenvalues --   -0.55392  -0.55293  -0.55040  -0.54873  -0.54829
 Alpha  occ. eigenvalues --   -0.54721  -0.54338  -0.54151  -0.54143  -0.53752
 Alpha  occ. eigenvalues --   -0.53656  -0.53546  -0.53408  -0.53231  -0.53219
 Alpha  occ. eigenvalues --   -0.53065  -0.53014  -0.52822  -0.52327  -0.52128
 Alpha  occ. eigenvalues --   -0.51907  -0.51851  -0.51804  -0.51792  -0.51658
 Alpha  occ. eigenvalues --   -0.51288  -0.51227  -0.51000  -0.50925  -0.50631
 Alpha  occ. eigenvalues --   -0.50511  -0.50451  -0.50373  -0.50075  -0.50009
 Alpha  occ. eigenvalues --   -0.49848  -0.49588  -0.49401  -0.49154  -0.49057
 Alpha  occ. eigenvalues --   -0.48994  -0.48918  -0.48636  -0.48355  -0.48322
 Alpha  occ. eigenvalues --   -0.48181  -0.48115  -0.47968  -0.47885  -0.47807
 Alpha  occ. eigenvalues --   -0.47735  -0.47623  -0.47440  -0.47181  -0.47150
 Alpha  occ. eigenvalues --   -0.46886  -0.46838  -0.46579  -0.46467  -0.46251
 Alpha  occ. eigenvalues --   -0.45751  -0.45702  -0.45554  -0.45549  -0.45395
 Alpha  occ. eigenvalues --   -0.45386  -0.45228  -0.45088  -0.44952  -0.44800
 Alpha  occ. eigenvalues --   -0.44537  -0.44535  -0.44470  -0.44375  -0.44066
 Alpha  occ. eigenvalues --   -0.43819  -0.43788  -0.43537  -0.43373  -0.43131
 Alpha  occ. eigenvalues --   -0.43004  -0.42832  -0.42710  -0.42576  -0.42455
 Alpha  occ. eigenvalues --   -0.42240  -0.42138  -0.41858  -0.41408  -0.41170
 Alpha  occ. eigenvalues --   -0.40394  -0.40081  -0.39634  -0.39416  -0.39336
 Alpha  occ. eigenvalues --   -0.39196  -0.39137  -0.38773  -0.38698  -0.38593
 Alpha  occ. eigenvalues --   -0.37929  -0.37744  -0.36976  -0.36373  -0.36018
 Alpha  occ. eigenvalues --   -0.35912  -0.35441  -0.35359  -0.33616  -0.33304
 Alpha  occ. eigenvalues --   -0.33274  -0.32889  -0.32695  -0.32385  -0.32225
 Alpha  occ. eigenvalues --   -0.31845  -0.31695  -0.30898  -0.26209  -0.25792
 Alpha  occ. eigenvalues --   -0.22903  -0.22600
 Alpha virt. eigenvalues --   -0.07325  -0.06649   0.00190   0.00451   0.02593
 Alpha virt. eigenvalues --    0.02737   0.04251   0.04690   0.04838   0.06126
 Alpha virt. eigenvalues --    0.06534   0.06615   0.06946   0.07947   0.07996

 Mulliken charges:
               1
     1  Mg   0.952536
     2  C   -0.030057
     3  C   -0.087668
     4  C   -0.053811
     5  C   -0.079086
     6  N   -0.317209
     7  C   -0.009080
     8  C   -0.053961
     9  C   -0.041533
    10  C   -0.008968
    11  C    0.019984
    12  C    0.021181
    13  C   -0.115165
    14  H    0.015605
    15  N   -0.461344
    16  C    0.197397
    17  C   -0.169660
    18  C   -0.061168
    19  C    0.119972
    20  C    0.061305
    21  C    0.038490
    22  O   -0.262803
    23  C    0.013349
    24  N   -0.333154
    25  C    0.064179
    26  C   -0.091895
    27  C   -0.098964
    28  C    0.041442
    29  C    0.031144
    30  C   -0.015245
    31  C   -0.053810
    32  N   -0.449387
    33  C    0.129807
    34  C   -0.162270
    35  C   -0.055511
    36  C    0.145233
    37  C    0.075976
    38  C    0.096393
    39  O   -0.183880
    40  C   -0.041912
    41  C    0.280414
    42  O   -0.276059
    43  O   -0.352410
    44  C    0.141005
    45  H   -0.023840
    46  H    0.028192
    47  H   -0.002410
    48  H    0.045916
    49  H    0.034459
    50  H    0.048875
    51  H    0.031131
    52  H    0.026867
    53  H    0.018644
    54  H    0.024804
    55  H    0.055110
    56  H    0.067001
    57  H    0.025623
    58  H    0.064166
    59  H    0.051412
    60  H    0.063680
    61  H    0.041629
    62  H    0.053102
    63  H    0.040552
    64  H    0.038358
    65  H    0.048232
    66  H    0.046055
    67  H    0.029714
    68  H    0.031776
    69  H    0.025737
    70  H    0.040584
    71  H    0.032174
    72  H    0.041547
    73  H    0.049771
    74  H    0.047511
    75  H    0.057476
    76  H    0.066900
    77  H    0.067201
    78  H    0.052490
    79  H    0.050156
    80  Mg   0.981251
    81  C   -0.076555
    82  C   -0.054050
    83  C   -0.080042
    84  C   -0.124257
    85  N   -0.313085
    86  C   -0.015688
    87  C   -0.066115
    88  C   -0.119681
    89  C    0.048942
    90  C    0.041499
    91  C    0.037344
    92  C   -0.107668
    93  H    0.023655
    94  N   -0.419611
    95  C    0.112306
    96  C   -0.143777
    97  C   -0.073745
    98  C    0.168753
    99  C    0.081158
   100  C    0.035538
   101  O   -0.234935
   102  C   -0.012140
   103  N   -0.451640
   104  C    0.092039
   105  C   -0.128651
   106  C   -0.033636
   107  C    0.088991
   108  C    0.013825
   109  C    0.000860
   110  C   -0.047200
   111  N   -0.442101
   112  C    0.135473
   113  C   -0.189499
   114  C   -0.106310
   115  C    0.178242
   116  C    0.090775
   117  C    0.132715
   118  O   -0.174069
   119  C   -0.015195
   120  C    0.278374
   121  O   -0.234471
   122  O   -0.404949
   123  C    0.133334
   124  H   -0.006085
   125  H   -0.037490
   126  H   -0.011941
   127  H    0.025681
   128  H    0.028755
   129  H    0.043252
   130  H    0.042638
   131  H    0.036756
   132  H    0.037370
   133  H    0.040588
   134  H    0.055507
   135  H    0.048149
   136  H    0.055522
   137  H    0.053853
   138  H    0.036874
   139  H    0.051232
   140  H    0.050100
   141  H    0.057948
   142  H    0.051495
   143  H    0.033565
   144  H    0.044827
   145  H    0.038316
   146  H    0.031041
   147  H    0.038687
   148  H    0.025374
   149  H    0.036238
   150  H    0.036882
   151  H    0.035829
   152  H    0.071574
   153  H    0.053851
   154  H    0.034403
   155  H    0.072742
   156  H    0.063790
   157  H    0.051486
   158  H    0.065191
 Sum of Mulliken charges =  -0.00000

 Dipole moment (field-independent basis, Debye):
    X=             -0.0003    Y=             -3.6614    Z=              2.3259  Tot=              4.3377
 Quadrupole moment (field-independent basis, Debye-Ang):
   XX=           -406.6765   YY=           -491.9072   ZZ=           -503.8876
   XY=             30.9897   XZ=             38.3769   YZ=             13.5695

 Normal termination of Gaussian 16 at Sun Sep 19 23:30:01 2021.
