 Gaussian 16, Revision A.03,
 Gaussian 16:  ES64L-G16RevA.03 25-Dec-2016

 --------------------------------
 #p wB97XD/Def2SVP td=(nstates=5)
 --------------------------------

 --------------------------------
 TDDFT excited states in gaussian
 --------------------------------
 Symbolic Z-matrix:
 Charge =  0 Multiplicity = 1

                         Standard orientation:
 ---------------------------------------------------------------------
 Center     Atomic      Atomic             Coordinates (Angstroms)
 Number     Number       Type             X           Y           Z
 ---------------------------------------------------------------------
      1         12           0       23.643688    0.534284   -0.071456
      2          6           0       22.567539   -2.555605   -1.153363
      3          6           0       23.779468   -0.770272    3.088725
      4          6           0       24.416816    3.626897    1.043185
      5          6           0       22.910107    1.885335   -3.190053
      6          7           0       23.058579   -1.471529    0.820332
      7          6           0       22.858217   -2.571450    0.202652
      8          6           0       22.756316   -3.902241    1.112043
      9          6           0       22.858830   -3.207768    2.527250
     10          6           0       23.179416   -1.679879    2.168012
     11          6           0       21.499766   -3.234119    3.404370
     12          6           0       23.878395   -4.997618    0.848611
     13          6           0       23.494888   -6.504113    1.067730
     14          1           0       22.188166   -6.772146    1.751294
     15          7           0       24.107113    1.294571    1.736276
     16          6           0       24.202859    0.567368    2.987349
     17          6           0       24.660059    1.508049    4.004881
     18          6           0       24.740962    2.810902    3.453082
     19          6           0       24.460079    2.614582    2.012879
     20          6           0       24.959807    0.953268    5.350843
     21          6           0       25.155130    4.160608    4.084765
     22          8           0       25.093881    5.228536    3.551852
     23          6           0       25.506368    4.094584    5.584879
     24          7           0       23.579105    2.547189   -0.874842
     25          6           0       23.925928    3.634768   -0.262340
     26          6           0       23.573245    4.901191   -1.093016
     27          6           0       23.199519    4.338100   -2.485166
     28          6           0       23.239431    2.817063   -2.206575
     29          6           0       22.444280    5.709932   -0.419317
     30          6           0       24.159698    4.835780   -3.608794
     31          6           0       24.000547    6.316466   -3.990132
     32          7           0       22.885696   -0.159792   -1.860420
     33          6           0       22.744892    0.500808   -3.067906
     34          6           0       22.316113   -0.483875   -4.026014
     35          6           0       22.173830   -1.734465   -3.353488
     36          6           0       22.586723   -1.426031   -2.028656
     37          6           0       22.021470   -0.219899   -5.386512
     38          6           0       21.893547   -3.131693   -3.448469
     39          8           0       21.454850   -3.781104   -4.444154
     40          6           0       22.031935   -3.679799   -1.975288
     41          6           0       20.745911   -4.224197   -1.595080
     42          8           0       19.800828   -3.552545   -1.182222
     43          8           0       20.755531   -5.554275   -1.930228
     44          6           0       19.421426   -6.184463   -1.839960
     45          1           0       23.807814   -1.151201    4.111284
     46          1           0       24.700098    4.591876    1.470245
     47          1           0       22.763141    2.345472   -4.169876
     48          1           0       21.737253   -4.248699    0.938183
     49          1           0       23.626687   -3.694561    3.128194
     50          1           0       20.666269   -3.418411    2.725969
     51          1           0       21.365983   -2.273889    3.902287
     52          1           0       21.451364   -3.978969    4.199368
     53          1           0       24.653705   -4.745022    1.571440
     54          1           0       24.483179   -4.864957   -0.049121
     55          1           0       24.243284   -7.072291    1.620025
     56          1           0       23.359751   -6.979296    0.096069
     57          1           0       24.052210    0.891767    5.952015
     58          1           0       25.810136    1.437051    5.831669
     59          1           0       25.323800   -0.062282    5.196881
     60          1           0       26.473663    3.642342    5.805992
     61          1           0       24.670895    3.512848    5.973012
     62          1           0       25.467976    5.040727    6.123908
     63          1           0       24.525585    5.429826   -1.126559
     64          1           0       22.164669    4.591566   -2.715136
     65          1           0       21.788106    5.145511    0.243589
     66          1           0       21.689846    6.168265   -1.059603
     67          1           0       22.951330    6.488621    0.150387
     68          1           0       23.953305    4.274209   -4.518862
     69          1           0       25.193871    4.643042   -3.321417
     70          1           0       23.281984    6.757986   -3.299589
     71          1           0       23.443659    6.379695   -4.925121
     72          1           0       24.893459    6.927499   -4.120008
     73          1           0       22.835951    0.422880   -5.720735
     74          1           0       21.097298    0.322759   -5.584659
     75          1           0       21.897039   -1.171754   -5.903862
     76          1           0       22.744707   -4.497165   -2.087811
     77          1           0       18.814908   -5.717262   -2.616332
     78          1           0       19.022112   -6.149705   -0.826874
     79          1           0       19.544684   -7.237012   -2.095482
     80         12           0      -23.717196    0.551692    0.259310
     81          6           0      -21.122109   -1.809318    0.712689
     82          6           0      -25.572590   -1.912301   -0.862937
     83          6           0      -25.608877    2.913326   -1.073453
     84          6           0      -21.234359    3.024335    0.850858
     85          7           0      -23.339660   -1.679480    0.155341
     86          6           0      -22.325740   -2.410862    0.444029
     87          6           0      -22.706861   -3.905596    0.441076
     88          6           0      -23.994101   -3.948440   -0.529855
     89          6           0      -24.314494   -2.396312   -0.492114
     90          6           0      -23.758344   -4.496630   -1.992761
     91          6           0      -23.133260   -4.391412    1.923322
     92          6           0      -22.844325   -5.854314    2.391896
     93          1           0      -22.812144   -6.951299    1.264757
     94          7           0      -25.477557    0.519106   -0.642356
     95          6           0      -26.123695   -0.662710   -0.972456
     96          6           0      -27.436916   -0.316251   -1.621815
     97          6           0      -27.448074    1.140891   -1.643718
     98          6           0      -26.178265    1.661811   -1.130230
     99          6           0      -28.374333   -1.396903   -2.126647
    100          6           0      -28.573480    2.034831   -2.116033
    101          8           0      -28.520591    3.271938   -2.155673
    102          6           0      -29.845712    1.413058   -2.528716
    103          7           0      -23.490267    2.761618    0.020814
    104          6           0      -24.426534    3.445030   -0.612225
    105          6           0      -24.210129    5.007090   -0.385089
    106          6           0      -22.712801    4.995153    0.243363
    107          6           0      -22.473932    3.497899    0.418980
    108          6           0      -24.397859    5.867636   -1.678073
    109          6           0      -22.468823    5.777688    1.575340
    110          6           0      -21.606930    7.011505    1.496160
    111          7           0      -21.635099    0.659628    0.911047
    112          6           0      -20.814336    1.755382    1.090099
    113          6           0      -19.502790    1.335334    1.359502
    114          6           0      -19.574083   -0.059007    1.179174
    115          6           0      -20.855694   -0.454106    0.876722
    116          6           0      -18.343978    2.147397    1.654311
    117          6           0      -18.766706   -1.210367    1.300368
    118          8           0      -17.586744   -1.453066    1.673151
    119          6           0      -19.685858   -2.382014    0.729905
    120          6           0      -19.530711   -3.606669    1.554826
    121          8           0      -19.818292   -3.760289    2.740078
    122          8           0      -19.080779   -4.646781    0.681719
    123          6           0      -18.843728   -5.966846    1.279728
    124          1           0      -26.195413   -2.779156   -1.095232
    125          1           0      -26.273730    3.686205   -1.463060
    126          1           0      -20.498646    3.790083    1.108038
    127          1           0      -21.946629   -4.425981   -0.140880
    128          1           0      -24.707965   -4.659633   -0.115696
    129          1           0      -22.698188   -4.571809   -2.233705
    130          1           0      -24.163716   -3.820498   -2.745298
    131          1           0      -24.223166   -5.482201   -2.016607
    132          1           0      -24.187051   -4.185186    2.111312
    133          1           0      -22.663145   -3.720873    2.642950
    134          1           0      -23.556896   -6.228233    3.127804
    135          1           0      -21.799272   -5.878857    2.703194
    136          1           0      -29.411282   -1.204052   -1.849268
    137          1           0      -28.106544   -2.394451   -1.778312
    138          1           0      -28.217238   -1.537937   -3.195723
    139          1           0      -29.691963    0.707134   -3.345374
    140          1           0      -30.550125    2.184744   -2.839350
    141          1           0      -30.384634    0.878026   -1.746788
    142          1           0      -24.855497    5.411671    0.394515
    143          1           0      -21.953082    5.236577   -0.501496
    144          1           0      -24.548596    5.223146   -2.544292
    145          1           0      -23.501399    6.486754   -1.638574
    146          1           0      -25.216202    6.558034   -1.477845
    147          1           0      -21.973871    5.093816    2.265216
    148          1           0      -23.428130    6.037998    2.023081
    149          1           0      -21.480458    7.157739    0.424262
    150          1           0      -20.633419    6.763080    1.920431
    151          1           0      -22.082944    7.900284    1.908534
    152          1           0      -18.629441    2.816544    2.465571
    153          1           0      -18.084878    2.899216    0.908777
    154          1           0      -17.521317    1.508623    1.976244
    155          1           0      -19.379538   -2.581928   -0.297384
    156          1           0      -18.421215   -6.653009    0.545257
    157          1           0      -19.808807   -6.425486    1.495874
    158          1           0      -18.122634   -5.867746    2.090401
 ---------------------------------------------------------------------

 SCF Done:  E(RwB97XD) =  -4070.58962470     A.U. after   20 cycles

 Excitation energies and oscillator strengths:

 Excited State   1:      Singlet-A      1.7222 eV  719.91 nm  f=0.3814  <S**2>=0.000
     310 -> 316        0.20374
     312 -> 314        0.67764
     310 <- 316        0.11867
 This state for optimization and/or second-order correction.
 Total Energy, E(TD-HF/TD-DFT) =  -4070.52633449
 Copying the excited state density for this state as the 1-particle RhoCI density.

 Excited State   2:      Singlet-A      1.7434 eV  711.16 nm  f=0.3629  <S**2>=0.000
     309 -> 315        0.21768
     311 -> 313        0.67308
     309 <- 315        0.11923

 Excited State   3:      Singlet-A      2.1613 eV  573.65 nm  f=0.1064  <S**2>=0.000
     310 -> 314        0.64083
     312 -> 316       -0.28349

 Excited State   4:      Singlet-A      2.1695 eV  571.50 nm  f=0.0800  <S**2>=0.000
     309 -> 313        0.62749
     311 -> 315       -0.30971

 Excited State   5:      Singlet-A      3.3073 eV  374.88 nm  f=0.0359  <S**2>=0.000
     305 -> 313       -0.13263
     307 -> 313        0.60487
     311 -> 315        0.28123

 The electronic state is 1-A.
 Alpha  occ. eigenvalues --  -46.95724 -46.94707 -19.29968 -19.29176 -19.25169
 Alpha  occ. eigenvalues --  -19.25145 -19.24196 -19.24028 -19.23527 -19.23251
 Alpha  occ. eigenvalues --  -14.46756 -14.46714 -14.46292 -14.46072 -14.44606
 Alpha  occ. eigenvalues --  -14.44304 -14.43467 -14.43175 -10.43156 -10.42341
 Alpha  occ. eigenvalues --  -10.40236 -10.39085 -10.38743 -10.38521 -10.35897
 Alpha  occ. eigenvalues --  -10.35578 -10.35022 -10.34948 -10.34827 -10.34799
 Alpha  occ. eigenvalues --  -10.34776 -10.34729 -10.34697 -10.34631 -10.34435
 Alpha  occ. eigenvalues --  -10.34431 -10.34404 -10.34280 -10.34272 -10.33590
 Alpha  occ. eigenvalues --  -10.33311 -10.33116 -10.33027 -10.32968 -10.32848
 Alpha  occ. eigenvalues --  -10.32753 -10.32719 -10.32555 -10.32509 -10.32380
 Alpha  occ. eigenvalues --  -10.32359 -10.32209 -10.32099 -10.31963 -10.31878
 Alpha  occ. eigenvalues --  -10.31812 -10.31698 -10.31653 -10.31652 -10.31606
 Alpha  occ. eigenvalues --  -10.31574 -10.31550 -10.31462 -10.31116 -10.31114
 Alpha  occ. eigenvalues --  -10.31110 -10.31005 -10.30998 -10.30633 -10.30450
 Alpha  occ. eigenvalues --  -10.30402 -10.30234 -10.30164 -10.30132 -10.30063
 Alpha  occ. eigenvalues --  -10.29992 -10.29791 -10.29686 -10.29665 -10.29488
 Alpha  occ. eigenvalues --  -10.29341 -10.29215 -10.29166 -10.28667 -10.28433
 Alpha  occ. eigenvalues --  -10.28424  -3.21636  -3.20751  -1.95227  -1.94768
 Alpha  occ. eigenvalues --   -1.94583  -1.94335  -1.93881  -1.93725  -1.17633
 Alpha  occ. eigenvalues --   -1.16106  -1.14730  -1.11630  -1.09504  -1.09358
 Alpha  occ. eigenvalues --   -1.08929  -1.08906  -1.07790  -1.07358  -1.07213
 Alpha  occ. eigenvalues --   -1.06267  -1.05549  -1.05435  -1.03508  -1.02906
 Alpha  occ. eigenvalues --   -0.94951  -0.94454  -0.91422  -0.91159  -0.90516
 Alpha  occ. eigenvalues --   -0.90237  -0.89798  -0.89684  -0.89481  -0.89352
 Alpha  occ. eigenvalues --   -0.89265  -0.88857  -0.88854  -0.88758  -0.86214
 Alpha  occ. eigenvalues --   -0.85868  -0.85814  -0.85310  -0.84644  -0.84186
 Alpha  occ. eigenvalues --   -0.83951  -0.83610  -0.83446  -0.82951  -0.82629
 Alpha  occ. eigenvalues --   -0.82204  -0.80937  -0.80498  -0.79649  -0.79260
 Alpha  occ. eigenvalues --   -0.78888  -0.78251  -0.77825  -0.77624  -0.77168
 Alpha  occ. eigenvalues --   -0.76731  -0.75220  -0.74245  -0.74154  -0.73406
 Alpha  occ. eigenvalues --   -0.71277  -0.70939  -0.70696  -0.70504  -0.70123
 Alpha  occ. eigenvalues --   -0.69890  -0.69204  -0.68968  -0.67887  -0.67711
 Alpha  occ. eigenvalues --   -0.67579  -0.67553  -0.67272  -0.66730  -0.66594
 Alpha  occ. eigenvalues --   -0.66040  -0.63498  -0.63256  -0.62544  -0.62121
 Alpha  occ. eigenvalues --   -0.62009  -0.61330  -0.61296  -0.61046  -0.60350
 Alpha  occ. eigenvalues --   -0.60228  -0.59816  -0.59721  -0.59589  -0.59293
 Alpha  occ. eigenvalues --   -0.58963  -0.57952  -0.57755  -0.57553  -0.57406
 Alpha  occ. eigenvalues --   -0.57128  -0.56411  -0.56306  -0.55850  -0.55738
 Alpha  occ. eigenvalues --   -0.55469  -0.55277  -0.55113  -0.55080  -0.54882
 Alpha  occ. eigenvalues --   -0.54873  -0.54646  -0.54554  -0.54399  -0.54183
 Alpha  occ. eigenvalues --   -0.53976  -0.53766  -0.53456  -0.53212  -0.53080
 Alpha  occ. eigenvalues --   -0.53036  -0.52842  -0.52814  -0.52619  -0.52505
 Alpha  occ. eigenvalues --   -0.52323  -0.52263  -0.51833  -0.51494  -0.51284
 Alpha  occ. eigenvalues --   -0.51106  -0.51026  -0.50804  -0.50737  -0.50615
 Alpha  occ. eigenvalues --   -0.50451  -0.50339  -0.50308  -0.50093  -0.49954
 Alpha  occ. eigenvalues --   -0.49726  -0.49718  -0.49665  -0.49561  -0.49243
 Alpha  occ. eigenvalues --   -0.49003  -0.48935  -0.48724  -0.48537  -0.48332
 Alpha  occ. eigenvalues --   -0.48243  -0.48116  -0.48051  -0.47923  -0.47520
 Alpha  occ. eigenvalues --   -0.47500  -0.47290  -0.47039  -0.46868  -0.46731
 Alpha  occ. eigenvalues --   -0.46276  -0.46186  -0.46172  -0.46044  -0.45898
 Alpha  occ. eigenvalues --   -0.45849  -0.45703  -0.45495  -0.45425  -0.45238
 Alpha  occ. eigenvalues --   -0.45131  -0.44917  -0.44849  -0.44636  -0.44551
 Alpha  occ. eigenvalues --   -0.44520  -0.44177  -0.43886  -0.43621  -0.43616
 Alpha  occ. eigenvalues --   -0.43593  -0.43573  -0.43346  -0.43110  -0.43054
 Alpha  occ. eigenvalues --   -0.42946  -0.42656  -0.42531  -0.42490  -0.42234
 Alpha  occ. eigenvalues --   -0.42079  -0.41974  -0.41667  -0.41232  -0.40951
 Alpha  occ. eigenvalues --   -0.40419  -0.40098  -0.39906  -0.39854  -0.39496
 Alpha  occ. eigenvalues --   -0.39405  -0.39015  -0.38516  -0.38394  -0.38196
 Alpha  occ. eigenvalues --   -0.38093  -0.37609  -0.36580  -0.36254  -0.35892
 Alpha  occ. eigenvalues --   -0.35833  -0.35634  -0.35580  -0.34012  -0.33782
 Alpha  occ. eigenvalues --   -0.33310  -0.33225  -0.32616  -0.32405  -0.32306
 Alpha  occ. eigenvalues --   -0.32234  -0.31463  -0.31268  -0.26088  -0.25558
 Alpha  occ. eigenvalues --   -0.23490  -0.23018
 Alpha virt. eigenvalues --   -0.06963  -0.06729  -0.00732   0.00259   0.01820
 Alpha virt. eigenvalues --    0.02063   0.04239   0.04360   0.05435   0.05739
 Alpha virt. eigenvalues --    0.06746   0.07690   0.07864   0.08129   0.08326

 Mulliken charges:
               1
     1  Mg   0.972784
     2  C    0.036670
     3  C   -0.076535
     4  C   -0.083491
     5  C   -0.099805
     6  N   -0.274829
     7  C   -0.097133
     8  C   -0.014223
     9  C   -0.137599
    10  C    0.065897
    11  C    0.000612
    12  C    0.023528
    13  C   -0.131686
    14  H    0.035261
    15  N   -0.531990
    16  C    0.160674
    17  C   -0.146752
    18  C   -0.100031
    19  C    0.147702
    20  C    0.050258
    21  C    0.084687
    22  O   -0.192561
    23  C   -0.045201
    24  N   -0.332435
    25  C    0.040170
    26  C   -0.054372
    27  C   -0.067608
    28  C    0.054567
    29  C    0.016546
    30  C   -0.022540
    31  C   -0.039116
    32  N   -0.427716
    33  C    0.163666
    34  C   -0.180278
    35  C    0.016115
    36  C    0.116687
    37  C    0.057397
    38  C    0.086181
    39  O   -0.253855
    40  C   -0.075471
    41  C    0.267859
    42  O   -0.262074
    43  O   -0.366888
    44  C    0.144941
    45  H   -0.003028
    46  H    0.012712
    47  H   -0.006260
    48  H    0.049181
    49  H    0.040252
    50  H    0.048211
    51  H    0.038277
    52  H    0.039859
    53  H    0.016290
    54  H    0.039538
    55  H    0.057636
    56  H    0.064715
    57  H    0.067859
    58  H    0.043801
    59  H    0.042664
    60  H    0.070864
    61  H    0.053263
    62  H    0.049657
    63  H    0.038194
    64  H    0.035346
    65  H    0.043637
    66  H    0.034041
    67  H    0.050527
    68  H    0.028769
    69  H    0.032070
    70  H    0.024467
    71  H    0.026118
    72  H    0.050540
    73  H    0.038251
    74  H    0.050049
    75  H    0.057908
    76  H    0.063343
    77  H    0.068128
    78  H    0.056093
    79  H    0.049013
    80  Mg   0.950670
    81  C   -0.001560
    82  C   -0.092558
    83  C   -0.057229
    84  C   -0.097646
    85  N   -0.289321
    86  C   -0.079821
    87  C   -0.022173
    88  C   -0.152192
    89  C    0.044721
    90  C    0.020225
    91  C    0.019288
    92  C   -0.121900
    93  H   -0.003163
    94  N   -0.573316
    95  C    0.230464
    96  C   -0.157362
    97  C   -0.064117
    98  C    0.176456
    99  C    0.067614
   100  C    0.057122
   101  O   -0.243279
   102  C   -0.029532
   103  N   -0.281909
   104  C    0.040561
   105  C   -0.118745
   106  C   -0.082431
   107  C    0.022839
   108  C    0.039343
   109  C   -0.018064
   110  C   -0.035019
   111  N   -0.420972
   112  C    0.154740
   113  C   -0.152089
   114  C   -0.029638
   115  C    0.146367
   116  C    0.092548
   117  C    0.133343
   118  O   -0.250631
   119  C   -0.095385
   120  C    0.288868
   121  O   -0.246524
   122  O   -0.409256
   123  C    0.146552
   124  H   -0.006526
   125  H    0.019236
   126  H   -0.015414
   127  H    0.025037
   128  H    0.044093
   129  H    0.036966
   130  H    0.039613
   131  H    0.044102
   132  H    0.028269
   133  H    0.057672
   134  H    0.065748
   135  H    0.078816
   136  H    0.055771
   137  H    0.031549
   138  H    0.060670
   139  H    0.053896
   140  H    0.050860
   141  H    0.060055
   142  H    0.047705
   143  H    0.033945
   144  H    0.061760
   145  H    0.028996
   146  H    0.039250
   147  H    0.034200
   148  H    0.025054
   149  H    0.022704
   150  H    0.040449
   151  H    0.046553
   152  H    0.029864
   153  H    0.045578
   154  H    0.071968
   155  H    0.082496
   156  H    0.044140
   157  H    0.042336
   158  H    0.066705
 Sum of Mulliken charges =  -0.00000

 Dipole moment (field-independent basis, Debye):
    X=             -1.5545    Y=             -0.6377    Z=              2.3221  Tot=              2.8662
 Quadrupole moment (field-independent basis, Debye-Ang):
   XX=           -203.7576   YY=           -474.5259   ZZ=           -506.9482
   XY=             37.7492   XZ=            122.7374   YZ=            -12.9522

 Normal termination of Gaussian 16 at Mon Sep 20 09:01:48 2021.
