 Gaussian 16, Revision A.03,
 Gaussian 16:  ES64L-G16RevA.03 25-Dec-2016

 --------------------------------
 #p wB97XD/Def2SVP td=(nstates=5)
 --------------------------------

 --------------------------------
 TDDFT excited states in gaussian
 --------------------------------
 Symbolic Z-matrix:
 Charge =  0 Multiplicity = 1

                         Standard orientation:
 ---------------------------------------------------------------------
 Center     Atomic      Atomic             Coordinates (Angstroms)
 Number     Number       Type             X           Y           Z
 ---------------------------------------------------------------------
      1         12           0      -20.956536   -0.534054   -0.184457
      2          6           0      -18.954391    2.245847   -0.001841
      3          6           0      -23.557557    1.336764    1.037080
      4          6           0      -22.965620   -3.360134   -0.255197
      5          6           0      -18.197143   -2.472460   -0.989875
      6          7           0      -21.243754    1.579324    0.512755
      7          6           0      -20.265609    2.524345    0.387879
      8          6           0      -20.746831    3.830656    0.799887
      9          6           0      -22.145759    3.594011    1.346715
     10          6           0      -22.366355    2.058948    0.990785
     11          6           0      -22.427742    3.904163    2.857419
     12          6           0      -20.692890    4.865434   -0.375212
     13          6           0      -20.402470    6.358933    0.003057
     14          1           0      -20.845433    6.830034    1.402158
     15          7           0      -23.025676   -0.895755    0.223957
     16          6           0      -23.921101    0.042715    0.707596
     17          6           0      -25.239394   -0.600395    0.880785
     18          6           0      -25.082649   -2.000873    0.493632
     19          6           0      -23.667396   -2.140772    0.108911
     20          6           0      -26.480586    0.100120    1.409026
     21          6           0      -26.162859   -3.050621    0.375378
     22          8           0      -25.862763   -4.180397   -0.048874
     23          6           0      -27.580055   -2.852933    0.764649
     24          7           0      -20.629472   -2.639792   -0.490092
     25          6           0      -21.613789   -3.542812   -0.518861
     26          6           0      -21.086611   -4.909389   -0.987128
     27          6           0      -19.569943   -4.610172   -1.488043
     28          6           0      -19.483334   -3.111765   -1.029738
     29          6           0      -21.203919   -5.980697    0.140483
     30          6           0      -19.334788   -4.732654   -3.018569
     31          6           0      -18.441181   -5.900049   -3.463587
     32          7           0      -18.937373   -0.242229   -0.389626
     33          6           0      -17.908402   -1.130858   -0.709921
     34          6           0      -16.615631   -0.413257   -0.769353
     35          6           0      -17.024251    0.908685   -0.473852
     36          6           0      -18.425468    0.955942   -0.244943
     37          6           0      -15.307969   -0.935531   -1.111047
     38          6           0      -16.539436    2.302916   -0.408865
     39          8           0      -15.457986    2.783583   -0.621385
     40          6           0      -17.774042    3.207258   -0.057308
     41          6           0      -17.440755    4.007010    1.132267
     42          8           0      -17.363771    3.468075    2.248130
     43          8           0      -17.372258    5.349878    0.919714
     44          6           0      -17.249607    6.236789    2.072320
     45          1           0      -24.365020    1.960441    1.426310
     46          1           0      -23.605127   -4.245337   -0.235504
     47          1           0      -17.385030   -3.095716   -1.369713
     48          1           0      -20.103129    4.184266    1.606049
     49          1           0      -22.902139    4.068529    0.720473
     50          1           0      -21.658795    4.310815    3.515075
     51          1           0      -22.789529    2.988112    3.323747
     52          1           0      -23.284164    4.560624    3.013339
     53          1           0      -21.595818    4.779299   -0.979816
     54          1           0      -19.997545    4.500704   -1.130999
     55          1           0      -20.858265    7.024634   -0.730422
     56          1           0      -19.337651    6.581582    0.064810
     57          1           0      -26.350507    1.174704    1.532570
     58          1           0      -26.749314   -0.270871    2.398493
     59          1           0      -27.268927    0.080654    0.656750
     60          1           0      -28.106724   -3.760985    0.472669
     61          1           0      -28.043147   -1.982649    0.297784
     62          1           0      -27.634800   -2.621393    1.828503
     63          1           0      -21.634653   -5.163487   -1.894516
     64          1           0      -18.826839   -5.186596   -0.937125
     65          1           0      -21.671079   -6.908893   -0.188898
     66          1           0      -21.804706   -5.606540    0.969884
     67          1           0      -20.178699   -6.107162    0.489191
     68          1           0      -18.892261   -3.840007   -3.459086
     69          1           0      -20.271493   -4.840496   -3.565868
     70          1           0      -18.517561   -6.711371   -2.739600
     71          1           0      -17.410371   -5.547330   -3.474937
     72          1           0      -18.723214   -6.132850   -4.489582
     73          1           0      -14.607192   -0.156681   -1.410906
     74          1           0      -15.335635   -1.681911   -1.904688
     75          1           0      -14.839801   -1.278493   -0.188274
     76          1           0      -17.859952    3.799087   -0.969236
     77          1           0      -16.309052    6.139359    2.615190
     78          1           0      -18.116850    6.149066    2.726695
     79          1           0      -17.241329    7.272468    1.732970
     80         12           0       20.764782   -0.709241    0.397454
     81          6           0       20.312873    2.176721   -1.547299
     82          6           0       22.412454    1.028187    2.718668
     83          6           0       21.152099   -3.488846    2.009102
     84          6           0       19.913573   -2.549385   -2.598875
     85          7           0       21.367791    1.358109    0.466205
     86          6           0       20.965639    2.384958   -0.293181
     87          6           0       21.570882    3.689726    0.156368
     88          6           0       22.575293    3.226034    1.286373
     89          6           0       22.097666    1.806993    1.526770
     90          6           0       24.109679    3.310244    0.999804
     91          6           0       20.439277    4.649586    0.790062
     92          6           0       20.489205    6.114399    0.244556
     93          1           0       19.162358    6.952280    0.661477
     94          7           0       21.414577   -1.112169    2.184800
     95          6           0       22.047577   -0.248677    3.062554
     96          6           0       22.148789   -0.894063    4.342512
     97          6           0       21.747002   -2.287251    4.223273
     98          6           0       21.292897   -2.354597    2.781536
     99          6           0       22.797081   -0.119343    5.525672
    100          6           0       21.675867   -3.488448    5.159212
    101          8           0       21.207574   -4.608971    4.888303
    102          6           0       22.134361   -3.166032    6.537309
    103          7           0       20.694196   -2.686329   -0.322493
    104          6           0       20.918072   -3.644457    0.635167
    105          6           0       20.908568   -5.044677    0.020782
    106          6           0       20.213837   -4.775226   -1.339787
    107          6           0       20.322640   -3.255847   -1.482452
    108          6           0       22.370380   -5.644887    0.020883
    109          6           0       18.715683   -5.283971   -1.471249
    110          6           0       18.200710   -5.559683   -2.893004
    111          7           0       20.181501   -0.318852   -1.661095
    112          6           0       19.884596   -1.157979   -2.691975
    113          6           0       19.415943   -0.423482   -3.845742
    114          6           0       19.511810    0.901126   -3.381364
    115          6           0       20.037944    0.923877   -2.081797
    116          6           0       18.925824   -0.882313   -5.238382
    117          6           0       19.257876    2.260908   -3.767990
    118          8           0       18.676025    2.762876   -4.693769
    119          6           0       19.945222    3.158618   -2.613294
    120          6           0       18.912221    4.177770   -2.410035
    121          8           0       17.869551    4.119723   -1.710379
    122          8           0       19.304374    5.222517   -3.159418
    123          6           0       18.445977    6.407242   -3.199841
    124          1           0       22.871886    1.604448    3.524641
    125          1           0       21.209038   -4.423458    2.571338
    126          1           0       19.575189   -3.155816   -3.441604
    127          1           0       22.051740    4.273586   -0.628970
    128          1           0       22.460073    3.708777    2.257013
    129          1           0       24.485896    2.291084    0.911229
    130          1           0       24.534871    3.790093    1.881139
    131          1           0       24.446219    3.826875    0.101635
    132          1           0       20.402172    4.687008    1.879429
    133          1           0       19.485264    4.159003    0.596639
    134          1           0       20.564498    6.115227   -0.842644
    135          1           0       21.292291    6.732077    0.645866
    136          1           0       22.004522    0.410731    6.052052
    137          1           0       23.381957    0.746875    5.213908
    138          1           0       23.532510   -0.654730    6.125722
    139          1           0       21.550337   -2.397421    7.042287
    140          1           0       23.176216   -2.890888    6.368716
    141          1           0       22.167979   -4.030163    7.201424
    142          1           0       20.291507   -5.645007    0.689447
    143          1           0       20.754688   -5.299185   -2.127799
    144          1           0       22.773991   -5.653962   -0.991519
    145          1           0       22.517117   -6.665375    0.373732
    146          1           0       23.137399   -5.067619    0.537584
    147          1           0       18.141265   -4.415415   -1.147998
    148          1           0       18.423800   -6.153193   -0.881486
    149          1           0       17.409548   -4.867782   -3.184761
    150          1           0       17.807530   -6.547561   -3.133892
    151          1           0       19.027454   -5.298318   -3.552032
    152          1           0       19.387641   -1.855165   -5.406871
    153          1           0       19.218834   -0.171212   -6.011902
    154          1           0       17.844648   -0.995188   -5.158954
    155          1           0       20.832337    3.650476   -3.012689
    156          1           0       18.950820    7.216774   -2.672976
    157          1           0       17.430208    6.192508   -2.869581
    158          1           0       18.396608    6.754813   -4.231686
 ---------------------------------------------------------------------

 SCF Done:  E(RwB97XD) =  -4070.63999099     A.U. after   20 cycles

 Excitation energies and oscillator strengths:

 Excited State   1:      Singlet-A      1.6695 eV  742.66 nm  f=0.4169  <S**2>=0.000
     310 -> 316        0.18427
     311 -> 313       -0.21955
     312 -> 314        0.64371
     310 <- 316        0.11231
 This state for optimization and/or second-order correction.
 Total Energy, E(TD-HF/TD-DFT) =  -4070.57863968
 Copying the excited state density for this state as the 1-particle RhoCI density.

 Excited State   2:      Singlet-A      1.6709 eV  742.02 nm  f=0.3486  <S**2>=0.000
     309 -> 315       -0.19220
     311 -> 313        0.64229
     312 -> 314        0.21997
     309 <- 315       -0.11359

 Excited State   3:      Singlet-A      2.1931 eV  565.33 nm  f=0.0579  <S**2>=0.000
     309 -> 313        0.61577
     311 -> 315        0.33606

 Excited State   4:      Singlet-A      2.1969 eV  564.37 nm  f=0.0856  <S**2>=0.000
     310 -> 314        0.62394
     312 -> 316       -0.31814

 Excited State   5:      Singlet-A      3.4245 eV  362.05 nm  f=0.1893  <S**2>=0.000
     308 -> 314        0.53296
     310 -> 314        0.16283
     312 -> 316        0.41098

 The electronic state is 1-A.
 Alpha  occ. eigenvalues --  -46.95196 -46.93900 -19.31161 -19.30059 -19.24713
 Alpha  occ. eigenvalues --  -19.24232 -19.24060 -19.24046 -19.23386 -19.23378
 Alpha  occ. eigenvalues --  -14.47159 -14.46386 -14.46293 -14.46266 -14.44094
 Alpha  occ. eigenvalues --  -14.44074 -14.43803 -14.42977 -10.43391 -10.42399
 Alpha  occ. eigenvalues --  -10.39969 -10.38912 -10.38844 -10.38640 -10.36045
 Alpha  occ. eigenvalues --  -10.35737 -10.35177 -10.34898 -10.34803 -10.34717
 Alpha  occ. eigenvalues --  -10.34666 -10.34649 -10.34640 -10.34396 -10.34234
 Alpha  occ. eigenvalues --  -10.34230 -10.34131 -10.34097 -10.34045 -10.33926
 Alpha  occ. eigenvalues --  -10.33438 -10.33318 -10.33266 -10.33203 -10.32771
 Alpha  occ. eigenvalues --  -10.32671 -10.32651 -10.32494 -10.32395 -10.32305
 Alpha  occ. eigenvalues --  -10.32032 -10.31971 -10.31941 -10.31866 -10.31863
 Alpha  occ. eigenvalues --  -10.31773 -10.31754 -10.31735 -10.31660 -10.31633
 Alpha  occ. eigenvalues --  -10.31633 -10.31408 -10.31407 -10.31312 -10.31308
 Alpha  occ. eigenvalues --  -10.31229 -10.31007 -10.30743 -10.30499 -10.30498
 Alpha  occ. eigenvalues --  -10.30336 -10.30332 -10.30241 -10.30075 -10.29950
 Alpha  occ. eigenvalues --  -10.29913 -10.29907 -10.29904 -10.29896 -10.29847
 Alpha  occ. eigenvalues --  -10.29709 -10.29337 -10.29289 -10.29165 -10.29134
 Alpha  occ. eigenvalues --  -10.28458  -3.21066  -3.20144  -1.94676  -1.94171
 Alpha  occ. eigenvalues --   -1.94042  -1.93726  -1.93288  -1.93133  -1.18588
 Alpha  occ. eigenvalues --   -1.18092  -1.13160  -1.12981  -1.11609  -1.11112
 Alpha  occ. eigenvalues --   -1.09285  -1.07695  -1.07178  -1.07090  -1.06291
 Alpha  occ. eigenvalues --   -1.06033  -1.05592  -1.05371  -1.04449  -1.02980
 Alpha  occ. eigenvalues --   -0.94671  -0.94428  -0.91036  -0.90986  -0.90143
 Alpha  occ. eigenvalues --   -0.90103  -0.89874  -0.89568  -0.89354  -0.89102
 Alpha  occ. eigenvalues --   -0.88911  -0.88635  -0.88193  -0.88187  -0.86431
 Alpha  occ. eigenvalues --   -0.85860  -0.85710  -0.85424  -0.84369  -0.84182
 Alpha  occ. eigenvalues --   -0.84146  -0.83769  -0.83210  -0.83128  -0.82486
 Alpha  occ. eigenvalues --   -0.82222  -0.80379  -0.80165  -0.79462  -0.79219
 Alpha  occ. eigenvalues --   -0.79215  -0.78805  -0.78125  -0.77828  -0.77299
 Alpha  occ. eigenvalues --   -0.76794  -0.74753  -0.74571  -0.74093  -0.73464
 Alpha  occ. eigenvalues --   -0.71202  -0.71143  -0.70694  -0.70243  -0.69994
 Alpha  occ. eigenvalues --   -0.69828  -0.69177  -0.68901  -0.67967  -0.67751
 Alpha  occ. eigenvalues --   -0.67442  -0.67316  -0.67021  -0.66858  -0.66416
 Alpha  occ. eigenvalues --   -0.66305  -0.64685  -0.63732  -0.62242  -0.61812
 Alpha  occ. eigenvalues --   -0.61772  -0.61540  -0.61189  -0.61123  -0.60688
 Alpha  occ. eigenvalues --   -0.60598  -0.60190  -0.59967  -0.59254  -0.59086
 Alpha  occ. eigenvalues --   -0.58301  -0.58018  -0.57825  -0.57806  -0.57420
 Alpha  occ. eigenvalues --   -0.57329  -0.56645  -0.56263  -0.55891  -0.55820
 Alpha  occ. eigenvalues --   -0.55372  -0.55358  -0.55155  -0.54853  -0.54735
 Alpha  occ. eigenvalues --   -0.54700  -0.54469  -0.54320  -0.54128  -0.54124
 Alpha  occ. eigenvalues --   -0.53526  -0.53502  -0.53387  -0.53317  -0.53209
 Alpha  occ. eigenvalues --   -0.53046  -0.52956  -0.52659  -0.52289  -0.52108
 Alpha  occ. eigenvalues --   -0.52102  -0.51927  -0.51889  -0.51784  -0.51337
 Alpha  occ. eigenvalues --   -0.51268  -0.50995  -0.50905  -0.50818  -0.50431
 Alpha  occ. eigenvalues --   -0.50378  -0.50354  -0.50063  -0.49990  -0.49909
 Alpha  occ. eigenvalues --   -0.49828  -0.49381  -0.49294  -0.49167  -0.49134
 Alpha  occ. eigenvalues --   -0.49037  -0.48790  -0.48617  -0.48390  -0.48237
 Alpha  occ. eigenvalues --   -0.48161  -0.47821  -0.47787  -0.47628  -0.47603
 Alpha  occ. eigenvalues --   -0.47434  -0.47420  -0.47129  -0.47045  -0.46829
 Alpha  occ. eigenvalues --   -0.46818  -0.46447  -0.46231  -0.45939  -0.45731
 Alpha  occ. eigenvalues --   -0.45666  -0.45534  -0.45481  -0.45394  -0.45376
 Alpha  occ. eigenvalues --   -0.45069  -0.44990  -0.44932  -0.44790  -0.44759
 Alpha  occ. eigenvalues --   -0.44571  -0.44518  -0.44139  -0.44047  -0.44004
 Alpha  occ. eigenvalues --   -0.43853  -0.43767  -0.43353  -0.43235  -0.43128
 Alpha  occ. eigenvalues --   -0.43113  -0.42813  -0.42685  -0.42557  -0.42441
 Alpha  occ. eigenvalues --   -0.42220  -0.42180  -0.41838  -0.41480  -0.41388
 Alpha  occ. eigenvalues --   -0.40703  -0.40062  -0.39748  -0.39440  -0.39396
 Alpha  occ. eigenvalues --   -0.39176  -0.38925  -0.38753  -0.38678  -0.37909
 Alpha  occ. eigenvalues --   -0.37490  -0.37197  -0.36132  -0.35998  -0.35952
 Alpha  occ. eigenvalues --   -0.35890  -0.35339  -0.34934  -0.33700  -0.33482
 Alpha  occ. eigenvalues --   -0.33254  -0.32871  -0.32674  -0.32597  -0.32441
 Alpha  occ. eigenvalues --   -0.32204  -0.31751  -0.31675  -0.26096  -0.25772
 Alpha  occ. eigenvalues --   -0.22910  -0.22580
 Alpha virt. eigenvalues --   -0.06765  -0.06629  -0.00374   0.00209   0.01773
 Alpha virt. eigenvalues --    0.02613   0.04583   0.04710   0.06146   0.06241
 Alpha virt. eigenvalues --    0.06637   0.07394   0.07622   0.07964   0.08268

 Mulliken charges:
               1
     1  Mg   0.952300
     2  C   -0.029988
     3  C   -0.087601
     4  C   -0.053731
     5  C   -0.079023
     6  N   -0.317077
     7  C   -0.009095
     8  C   -0.054129
     9  C   -0.041589
    10  C   -0.008954
    11  C    0.019986
    12  C    0.021204
    13  C   -0.115160
    14  H    0.015590
    15  N   -0.461197
    16  C    0.197278
    17  C   -0.169714
    18  C   -0.061177
    19  C    0.119843
    20  C    0.061425
    21  C    0.038541
    22  O   -0.262828
    23  C    0.013215
    24  N   -0.333147
    25  C    0.064146
    26  C   -0.091917
    27  C   -0.098963
    28  C    0.041365
    29  C    0.031136
    30  C   -0.015249
    31  C   -0.053806
    32  N   -0.449211
    33  C    0.129840
    34  C   -0.162205
    35  C   -0.055518
    36  C    0.145170
    37  C    0.075947
    38  C    0.096386
    39  O   -0.183805
    40  C   -0.042150
    41  C    0.280585
    42  O   -0.276068
    43  O   -0.352439
    44  C    0.141026
    45  H   -0.023867
    46  H    0.028183
    47  H   -0.002357
    48  H    0.045988
    49  H    0.034444
    50  H    0.048883
    51  H    0.031129
    52  H    0.026840
    53  H    0.018621
    54  H    0.024813
    55  H    0.055067
    56  H    0.067061
    57  H    0.025582
    58  H    0.064128
    59  H    0.051364
    60  H    0.063666
    61  H    0.041655
    62  H    0.053129
    63  H    0.040535
    64  H    0.038384
    65  H    0.048218
    66  H    0.046052
    67  H    0.029737
    68  H    0.031777
    69  H    0.025718
    70  H    0.040584
    71  H    0.032213
    72  H    0.041536
    73  H    0.049826
    74  H    0.047535
    75  H    0.057542
    76  H    0.066927
    77  H    0.067256
    78  H    0.052456
    79  H    0.050132
    80  Mg   0.994434
    81  C    0.048706
    82  C   -0.082872
    83  C   -0.068821
    84  C   -0.108858
    85  N   -0.341403
    86  C    0.045831
    87  C   -0.121666
    88  C   -0.075754
    89  C    0.029351
    90  C    0.026882
    91  C    0.023795
    92  C   -0.140377
    93  H    0.018753
    94  N   -0.559288
    95  C    0.189727
    96  C   -0.126365
    97  C   -0.130578
    98  C    0.181211
    99  C    0.043767
   100  C    0.089180
   101  O   -0.240696
   102  C   -0.020765
   103  N   -0.364146
   104  C    0.073098
   105  C   -0.083600
   106  C   -0.059738
   107  C    0.063491
   108  C    0.017232
   109  C   -0.011364
   110  C   -0.064780
   111  N   -0.360431
   112  C    0.130551
   113  C   -0.202651
   114  C   -0.018003
   115  C    0.092288
   116  C    0.097827
   117  C    0.101695
   118  O   -0.185073
   119  C   -0.133429
   120  C    0.263756
   121  O   -0.285070
   122  O   -0.350141
   123  C    0.138309
   124  H   -0.014491
   125  H    0.026605
   126  H   -0.019337
   127  H    0.037159
   128  H    0.028901
   129  H    0.042187
   130  H    0.037567
   131  H    0.042977
   132  H    0.031577
   133  H    0.058220
   134  H    0.053258
   135  H    0.056588
   136  H    0.054104
   137  H    0.028113
   138  H    0.054134
   139  H    0.074579
   140  H    0.050192
   141  H    0.047475
   142  H    0.043288
   143  H    0.027318
   144  H    0.021165
   145  H    0.043975
   146  H    0.041008
   147  H    0.036425
   148  H    0.043301
   149  H    0.035227
   150  H    0.044633
   151  H    0.027500
   152  H    0.034200
   153  H    0.066257
   154  H    0.064479
   155  H    0.073454
   156  H    0.048527
   157  H    0.075998
   158  H    0.049422
 Sum of Mulliken charges =  -0.00000

 Dipole moment (field-independent basis, Debye):
    X=              1.0627    Y=              2.2250    Z=              1.6200  Tot=              2.9503
 Quadrupole moment (field-independent basis, Debye-Ang):
   XX=           -201.6724   YY=           -478.7895   ZZ=           -500.9899
   XY=            -43.1873   XZ=             56.7984   YZ=             32.9659

 Normal termination of Gaussian 16 at Sun Sep 19 23:28:20 2021.
