 Gaussian 16, Revision A.03,
 Gaussian 16:  ES64L-G16RevA.03 25-Dec-2016

 --------------------------------
 #p wB97XD/Def2SVP td=(nstates=5)
 --------------------------------

 --------------------------------
 TDDFT excited states in gaussian
 --------------------------------
 Symbolic Z-matrix:
 Charge =  0 Multiplicity = 1

                         Standard orientation:
 ---------------------------------------------------------------------
 Center     Atomic      Atomic             Coordinates (Angstroms)
 Number     Number       Type             X           Y           Z
 ---------------------------------------------------------------------
      1         12           0       -9.604057    0.018198    0.752797
      2          6           0       -8.956884   -2.007583   -1.968748
      3          6           0       -6.798551   -1.281659    2.266017
      4          6           0       -9.889355    2.431686    3.180324
      5          6           0      -12.330002    1.349876   -0.874178
      6          7           0       -7.961323   -1.308412    0.138669
      7          6           0       -7.973436   -2.072612   -1.011521
      8          6           0       -6.773638   -3.013530   -1.082013
      9          6           0       -6.298174   -3.009926    0.418669
     10          6           0       -7.019175   -1.780322    0.951416
     11          6           0       -6.507527   -4.351150    1.257429
     12          6           0       -5.673484   -2.659067   -2.132708
     13          6           0       -5.157853   -3.816901   -2.961025
     14          1           0       -3.721997   -4.176739   -2.612259
     15          7           0       -8.482182    0.480993    2.439576
     16          6           0       -7.407462   -0.169819    2.899045
     17          6           0       -6.973623    0.383676    4.170127
     18          6           0       -7.778557    1.452245    4.528183
     19          6           0       -8.749220    1.547412    3.354687
     20          6           0       -5.674392   -0.147245    4.943555
     21          6           0       -7.717794    2.277840    5.857540
     22          8           0       -6.795932    2.026715    6.684412
     23          6           0       -8.673758    3.371183    6.146256
     24          7           0      -10.817218    1.878845    1.007412
     25          6           0      -10.861151    2.562110    2.127946
     26          6           0      -12.097648    3.429306    2.239660
     27          6           0      -12.912903    3.216044    0.919260
     28          6           0      -12.039032    2.019752    0.305827
     29          6           0      -12.893283    3.486730    3.582743
     30          6           0      -13.092072    4.381237   -0.096659
     31          6           0      -14.222845    4.143563   -1.076073
     32          7           0      -10.487406   -0.260144   -1.094456
     33          6           0      -11.676794    0.304529   -1.610364
     34          6           0      -11.966961   -0.345217   -2.859400
     35          6           0      -10.944104   -1.305137   -3.054425
     36          6           0      -10.084724   -1.150566   -1.970198
     37          6           0      -13.250354   -0.223638   -3.667453
     38          6           0      -10.537437   -2.298140   -3.919110
     39          8           0      -10.885300   -2.689059   -4.999962
     40          6           0       -9.098232   -2.733301   -3.325720
     41          6           0       -8.097095   -2.019124   -4.232486
     42          8           0       -7.771594   -0.850537   -4.148617
     43          8           0       -7.663686   -2.952328   -5.160416
     44          6           0       -6.774214   -2.449483   -6.202350
     45          1           0       -6.048611   -1.787130    2.877752
     46          1           0       -9.929168    3.160968    3.991741
     47          1           0      -13.236851    1.573994   -1.439709
     48          1           0       -7.156366   -4.013926   -1.281981
     49          1           0       -5.263606   -2.664847    0.414683
     50          1           0       -6.526780   -3.968646    2.277870
     51          1           0       -5.643504   -5.016099    1.262318
     52          1           0       -7.387815   -4.948184    1.019608
     53          1           0       -4.870121   -2.250073   -1.519645
     54          1           0       -5.853412   -1.787679   -2.761981
     55          1           0       -5.241093   -3.526756   -4.008645
     56          1           0       -5.739439   -4.727215   -2.814134
     57          1           0       -5.117679   -0.933445    4.431851
     58          1           0       -5.943191   -0.516411    5.933848
     59          1           0       -4.891423    0.604831    5.030279
     60          1           0       -9.688288    2.974017    6.155857
     61          1           0       -8.493640    4.240159    5.513238
     62          1           0       -8.526778    3.572152    7.206712
     63          1           0      -11.933744    4.499724    2.113695
     64          1           0      -13.835453    2.658811    1.083732
     65          1           0      -12.251194    3.017111    4.329189
     66          1           0      -13.903060    3.080269    3.515156
     67          1           0      -13.065619    4.495594    3.957981
     68          1           0      -12.119776    4.518660   -0.569600
     69          1           0      -13.240482    5.260605    0.529983
     70          1           0      -14.639232    5.116784   -1.337202
     71          1           0      -15.044421    3.531939   -0.701328
     72          1           0      -13.808007    3.768044   -2.011520
     73          1           0      -13.337793   -0.955998   -4.470064
     74          1           0      -13.299593    0.793099   -4.055067
     75          1           0      -14.129259   -0.347823   -3.034734
     76          1           0       -9.014344   -3.817183   -3.240796
     77          1           0       -7.314854   -1.741250   -6.830433
     78          1           0       -6.336178   -3.258017   -6.786585
     79          1           0       -5.969313   -1.874861   -5.744911
     80         12           0        9.524652    0.786685   -0.067382
     81          6           0        8.598688   -2.410407    1.012357
     82          6           0        6.241120    1.532140   -0.653320
     83          6           0       10.504577    3.655222   -1.391179
     84          6           0       12.928759   -0.193360    0.410104
     85          7           0        7.641241   -0.365875    0.122744
     86          6           0        7.450026   -1.626254    0.643873
     87          6           0        5.974747   -1.880622    0.892480
     88          6           0        5.273259   -0.717273    0.085999
     89          6           0        6.491477    0.254816   -0.074428
     90          6           0        4.705295   -1.160642   -1.256224
     91          6           0        5.708100   -2.031040    2.434605
     92          6           0        4.198171   -2.080910    2.798402
     93          1           0        3.267471   -2.670415    1.759064
     94          7           0        8.543574    2.326338   -0.862022
     95          6           0        7.184051    2.431187   -1.127599
     96          6           0        6.857644    3.694820   -1.811615
     97          6           0        8.129423    4.323222   -1.982997
     98          6           0        9.122861    3.420166   -1.407909
     99          6           0        5.471035    4.110639   -2.132763
    100          6           0        8.380372    5.652782   -2.646520
    101          8           0        9.535211    6.157668   -2.715370
    102          6           0        7.247659    6.481189   -3.189455
    103          7           0       11.468721    1.636942   -0.385605
    104          6           0       11.546907    2.841430   -0.951842
    105          6           0       13.066550    3.223699   -1.232345
    106          6           0       13.876249    1.925733   -0.671437
    107          6           0       12.704085    1.063419   -0.201150
    108          6           0       13.239589    3.490469   -2.783727
    109          6           0       14.840386    2.231072    0.553454
    110          6           0       16.271473    2.716883    0.184370
    111          7           0       10.591249   -0.906127    0.495904
    112          6           0       11.963560   -1.151580    0.765624
    113          6           0       12.128114   -2.560491    1.334091
    114          6           0       10.855028   -3.119526    1.381386
    115          6           0        9.945666   -2.034103    0.933293
    116          6           0       13.387501   -3.218654    1.803850
    117          6           0       10.061789   -4.264884    1.761664
    118          8           0       10.368237   -5.369660    2.220962
    119          6           0        8.525560   -3.789951    1.710859
    120          6           0        7.631099   -4.777722    0.997366
    121          8           0        7.452754   -4.787676   -0.190645
    122          8           0        6.857771   -5.521637    1.917015
    123          6           0        5.647131   -6.179052    1.402350
    124          1           0        5.165164    1.598097   -0.829809
    125          1           0       10.822539    4.597074   -1.843484
    126          1           0       13.942221   -0.594077    0.480615
    127          1           0        5.730807   -2.844863    0.448389
    128          1           0        4.500959   -0.168873    0.626329
    129          1           0        3.647958   -0.897757   -1.227890
    130          1           0        4.937267   -2.216117   -1.396700
    131          1           0        5.039919   -0.535222   -2.083514
    132          1           0        6.384811   -1.279925    2.840832
    133          1           0        6.167553   -2.979075    2.712285
    134          1           0        3.960059   -1.035871    2.996838
    135          1           0        4.090899   -2.673662    3.706716
    136          1           0        5.480156    4.127418   -3.222460
    137          1           0        5.189544    5.059545   -1.676989
    138          1           0        4.640507    3.450630   -1.879083
    139          1           0        6.601077    6.778386   -2.364940
    140          1           0        6.837575    5.749582   -3.886762
    141          1           0        7.524298    7.352210   -3.782857
    142          1           0       13.164211    4.091277   -0.578595
    143          1           0       14.308521    1.245340   -1.406362
    144          1           0       12.333042    3.347013   -3.371434
    145          1           0       13.989438    2.813427   -3.193803
    146          1           0       13.477099    4.550368   -2.869936
    147          1           0       14.817121    1.442669    1.305229
    148          1           0       14.387532    3.071620    1.078288
    149          1           0       16.420233    3.666073    0.697946
    150          1           0       16.352058    2.759837   -0.901876
    151          1           0       17.040927    2.031764    0.541048
    152          1           0       13.327118   -3.243751    2.892104
    153          1           0       14.257595   -2.659953    1.456927
    154          1           0       13.556835   -4.256392    1.517333
    155          1           0        8.220540   -3.653320    2.747949
    156          1           0        6.011444   -7.072487    0.895948
    157          1           0        5.046707   -5.481474    0.818067
    158          1           0        5.040165   -6.419128    2.274898
 ---------------------------------------------------------------------

 SCF Done:  E(RwB97XD) =  -4070.62463576     A.U. after   20 cycles

 Excitation energies and oscillator strengths:

 Excited State   1:      Singlet-A      1.6552 eV  749.05 nm  f=0.3789  <S**2>=0.000
     310 -> 315        0.20544
     312 -> 314        0.67802
     310 <- 315        0.12140
 This state for optimization and/or second-order correction.
 Total Energy, E(TD-HF/TD-DFT) =  -4070.56380787
 Copying the excited state density for this state as the 1-particle RhoCI density.

 Excited State   2:      Singlet-A      1.8687 eV  663.48 nm  f=0.3737  <S**2>=0.000
     309 -> 316       -0.14200
     311 -> 313        0.68596

 Excited State   3:      Singlet-A      2.2251 eV  557.21 nm  f=0.1272  <S**2>=0.000
     309 -> 313        0.64156
     311 -> 316        0.24584
     311 -> 318        0.10776

 Excited State   4:      Singlet-A      2.2349 eV  554.75 nm  f=0.0332  <S**2>=0.000
     310 -> 314        0.58530
     312 -> 315       -0.38502

 Excited State   5:      Singlet-A      3.3844 eV  366.35 nm  f=0.0000  <S**2>=0.000
     312 -> 313        0.70677

 The electronic state is 1-A.
 Alpha  occ. eigenvalues --  -46.95927 -46.94408 -19.29856 -19.29236 -19.25522
 Alpha  occ. eigenvalues --  -19.25234 -19.24906 -19.24263 -19.23437 -19.22811
 Alpha  occ. eigenvalues --  -14.47085 -14.46812 -14.46733 -14.46114 -14.45396
 Alpha  occ. eigenvalues --  -14.44573 -14.44496 -14.43181 -10.43290 -10.43062
 Alpha  occ. eigenvalues --  -10.41277 -10.39579 -10.39218 -10.37513 -10.37453
 Alpha  occ. eigenvalues --  -10.36688 -10.36009 -10.35519 -10.35429 -10.35016
 Alpha  occ. eigenvalues --  -10.34934 -10.34749 -10.34652 -10.34513 -10.34382
 Alpha  occ. eigenvalues --  -10.34367 -10.34359 -10.34263 -10.34166 -10.33949
 Alpha  occ. eigenvalues --  -10.33632 -10.33567 -10.33484 -10.33398 -10.33231
 Alpha  occ. eigenvalues --  -10.32689 -10.32619 -10.32565 -10.32469 -10.32451
 Alpha  occ. eigenvalues --  -10.32384 -10.32339 -10.32290 -10.32268 -10.32235
 Alpha  occ. eigenvalues --  -10.31811 -10.31760 -10.31755 -10.31687 -10.31542
 Alpha  occ. eigenvalues --  -10.31526 -10.31347 -10.31276 -10.31245 -10.31217
 Alpha  occ. eigenvalues --  -10.31132 -10.31111 -10.30990 -10.30978 -10.30964
 Alpha  occ. eigenvalues --  -10.30944 -10.30911 -10.30667 -10.30628 -10.30369
 Alpha  occ. eigenvalues --  -10.30279 -10.30096 -10.30078 -10.30046 -10.29764
 Alpha  occ. eigenvalues --  -10.29619 -10.29416 -10.29227 -10.29188 -10.29187
 Alpha  occ. eigenvalues --  -10.27160  -3.21821  -3.20507  -1.95390  -1.94945
 Alpha  occ. eigenvalues --   -1.94791  -1.94108  -1.93620  -1.93509  -1.17724
 Alpha  occ. eigenvalues --   -1.17635  -1.12093  -1.11619  -1.11375  -1.10204
 Alpha  occ. eigenvalues --   -1.10007  -1.09999  -1.06786  -1.06321  -1.06041
 Alpha  occ. eigenvalues --   -1.05470  -1.05455  -1.04816  -1.04711  -1.03396
 Alpha  occ. eigenvalues --   -0.93638  -0.93577  -0.91182  -0.90841  -0.90549
 Alpha  occ. eigenvalues --   -0.90441  -0.90122  -0.89736  -0.89480  -0.89174
 Alpha  occ. eigenvalues --   -0.88880  -0.88636  -0.88232  -0.87882  -0.86574
 Alpha  occ. eigenvalues --   -0.86154  -0.85703  -0.85307  -0.84842  -0.84168
 Alpha  occ. eigenvalues --   -0.84103  -0.83809  -0.82790  -0.82692  -0.82323
 Alpha  occ. eigenvalues --   -0.81958  -0.80925  -0.79763  -0.79340  -0.79260
 Alpha  occ. eigenvalues --   -0.78901  -0.78830  -0.77706  -0.77437  -0.77253
 Alpha  occ. eigenvalues --   -0.76474  -0.74521  -0.74062  -0.73848  -0.73432
 Alpha  occ. eigenvalues --   -0.71819  -0.71349  -0.71270  -0.70505  -0.70286
 Alpha  occ. eigenvalues --   -0.70027  -0.69554  -0.69076  -0.67737  -0.67548
 Alpha  occ. eigenvalues --   -0.67399  -0.67111  -0.66873  -0.66200  -0.65915
 Alpha  occ. eigenvalues --   -0.65763  -0.63838  -0.63280  -0.62645  -0.62203
 Alpha  occ. eigenvalues --   -0.61600  -0.61465  -0.61209  -0.60698  -0.60640
 Alpha  occ. eigenvalues --   -0.59930  -0.59743  -0.59518  -0.59493  -0.58752
 Alpha  occ. eigenvalues --   -0.58634  -0.58121  -0.57829  -0.57574  -0.57138
 Alpha  occ. eigenvalues --   -0.56519  -0.56246  -0.56140  -0.56084  -0.55881
 Alpha  occ. eigenvalues --   -0.55844  -0.55587  -0.55445  -0.55287  -0.55207
 Alpha  occ. eigenvalues --   -0.54865  -0.54436  -0.54140  -0.54106  -0.53828
 Alpha  occ. eigenvalues --   -0.53642  -0.53640  -0.53352  -0.53137  -0.53093
 Alpha  occ. eigenvalues --   -0.52845  -0.52773  -0.52673  -0.52389  -0.52309
 Alpha  occ. eigenvalues --   -0.52139  -0.52020  -0.51909  -0.51585  -0.51456
 Alpha  occ. eigenvalues --   -0.51378  -0.51234  -0.51148  -0.50910  -0.50785
 Alpha  occ. eigenvalues --   -0.50768  -0.50565  -0.50425  -0.50270  -0.50048
 Alpha  occ. eigenvalues --   -0.50019  -0.49683  -0.49460  -0.49342  -0.49333
 Alpha  occ. eigenvalues --   -0.48777  -0.48686  -0.48304  -0.48196  -0.48100
 Alpha  occ. eigenvalues --   -0.48086  -0.48004  -0.47671  -0.47502  -0.47296
 Alpha  occ. eigenvalues --   -0.47275  -0.47137  -0.47134  -0.47090  -0.46966
 Alpha  occ. eigenvalues --   -0.46779  -0.46758  -0.46622  -0.46435  -0.46104
 Alpha  occ. eigenvalues --   -0.46022  -0.45911  -0.45675  -0.45460  -0.45417
 Alpha  occ. eigenvalues --   -0.45256  -0.45066  -0.44989  -0.44944  -0.44840
 Alpha  occ. eigenvalues --   -0.44628  -0.44612  -0.44475  -0.44250  -0.44216
 Alpha  occ. eigenvalues --   -0.44146  -0.44094  -0.43686  -0.43494  -0.43296
 Alpha  occ. eigenvalues --   -0.42818  -0.42815  -0.42487  -0.42246  -0.42236
 Alpha  occ. eigenvalues --   -0.42079  -0.41939  -0.41378  -0.41128  -0.41078
 Alpha  occ. eigenvalues --   -0.40948  -0.40487  -0.40178  -0.40092  -0.39890
 Alpha  occ. eigenvalues --   -0.39454  -0.38821  -0.38767  -0.38484  -0.38268
 Alpha  occ. eigenvalues --   -0.37805  -0.37454  -0.36567  -0.36493  -0.36316
 Alpha  occ. eigenvalues --   -0.36132  -0.35504  -0.35404  -0.34652  -0.34304
 Alpha  occ. eigenvalues --   -0.33470  -0.33237  -0.33057  -0.32592  -0.32432
 Alpha  occ. eigenvalues --   -0.32225  -0.31761  -0.31318  -0.26221  -0.25905
 Alpha  occ. eigenvalues --   -0.23515  -0.22213
 Alpha virt. eigenvalues --   -0.06911  -0.06228  -0.00234  -0.00017   0.01843
 Alpha virt. eigenvalues --    0.02007   0.03933   0.04267   0.04774   0.06315
 Alpha virt. eigenvalues --    0.06698   0.07433   0.07659   0.08005   0.08484

 Mulliken charges:
               1
     1  Mg   0.966851
     2  C   -0.041474
     3  C   -0.129129
     4  C   -0.108903
     5  C   -0.041980
     6  N   -0.333152
     7  C   -0.011554
     8  C   -0.074655
     9  C   -0.075793
    10  C    0.063353
    11  C    0.035002
    12  C    0.028556
    13  C   -0.106888
    14  H    0.023812
    15  N   -0.466053
    16  C    0.185951
    17  C   -0.153247
    18  C   -0.065341
    19  C    0.141957
    20  C    0.072487
    21  C    0.052371
    22  O   -0.254100
    23  C    0.003455
    24  N   -0.331032
    25  C    0.128624
    26  C   -0.083593
    27  C   -0.090800
    28  C    0.027196
    29  C    0.020502
    30  C    0.009821
    31  C   -0.034629
    32  N   -0.438572
    33  C    0.046249
    34  C   -0.148061
    35  C    0.002788
    36  C    0.157703
    37  C    0.059480
    38  C    0.058111
    39  O   -0.194737
    40  C   -0.117659
    41  C    0.296764
    42  O   -0.239113
    43  O   -0.363983
    44  C    0.141315
    45  H   -0.003924
    46  H   -0.019310
    47  H   -0.016542
    48  H    0.023601
    49  H    0.031818
    50  H    0.025102
    51  H    0.044378
    52  H    0.054308
    53  H    0.019225
    54  H    0.052592
    55  H    0.048565
    56  H    0.049218
    57  H    0.018983
    58  H    0.064977
    59  H    0.058760
    60  H    0.062186
    61  H    0.091170
    62  H    0.055304
    63  H    0.038422
    64  H    0.031806
    65  H    0.030221
    66  H    0.041861
    67  H    0.029320
    68  H    0.041905
    69  H    0.025979
    70  H    0.032675
    71  H    0.043279
    72  H    0.051642
    73  H    0.058814
    74  H    0.038198
    75  H    0.041044
    76  H    0.055071
    77  H    0.058338
    78  H    0.061290
    79  H    0.041822
    80  Mg   0.985036
    81  C   -0.029949
    82  C   -0.097514
    83  C   -0.088115
    84  C   -0.091585
    85  N   -0.320745
    86  C   -0.001563
    87  C   -0.052290
    88  C   -0.133887
    89  C    0.011262
    90  C    0.044471
    91  C   -0.023352
    92  C   -0.099650
    93  H    0.045859
    94  N   -0.499710
    95  C    0.214617
    96  C   -0.158398
    97  C   -0.076609
    98  C    0.175325
    99  C    0.073429
   100  C    0.037570
   101  O   -0.272499
   102  C    0.021038
   103  N   -0.348932
   104  C    0.045911
   105  C   -0.087897
   106  C   -0.049321
   107  C    0.040508
   108  C    0.013462
   109  C   -0.039920
   110  C   -0.032196
   111  N   -0.452054
   112  C    0.124887
   113  C   -0.194149
   114  C   -0.009039
   115  C    0.139251
   116  C    0.070688
   117  C    0.151140
   118  O   -0.215126
   119  C   -0.144171
   120  C    0.289147
   121  O   -0.219232
   122  O   -0.405889
   123  C    0.143489
   124  H   -0.011033
   125  H    0.021232
   126  H    0.001179
   127  H    0.028532
   128  H    0.029404
   129  H    0.028544
   130  H    0.059018
   131  H    0.036417
   132  H    0.041498
   133  H    0.036875
   134  H    0.058645
   135  H    0.059418
   136  H    0.054344
   137  H    0.058055
   138  H    0.036356
   139  H    0.065622
   140  H    0.039229
   141  H    0.055220
   142  H    0.050635
   143  H    0.044476
   144  H    0.052717
   145  H    0.038291
   146  H    0.049618
   147  H    0.034797
   148  H    0.019197
   149  H    0.041747
   150  H    0.039450
   151  H    0.036805
   152  H    0.060537
   153  H    0.027135
   154  H    0.060428
   155  H    0.091695
   156  H    0.068621
   157  H    0.050020
   158  H    0.051979
 Sum of Mulliken charges =  -0.00000

 Dipole moment (field-independent basis, Debye):
    X=             -4.8480    Y=              4.5196    Z=              4.5716  Tot=              8.0517
 Quadrupole moment (field-independent basis, Debye-Ang):
   XX=           -494.0731   YY=           -522.9995   ZZ=           -534.4128
   XY=            -13.0516   XZ=            -53.4967   YZ=             -1.6828

 Normal termination of Gaussian 16 at Sun Sep 19 11:53:53 2021.
