 Gaussian 16, Revision A.03,
 Gaussian 16:  ES64L-G16RevA.03 25-Dec-2016

 --------------------------------
 #p wB97XD/Def2SVP td=(nstates=5)
 --------------------------------

 --------------------------------
 TDDFT excited states in gaussian
 --------------------------------
 Symbolic Z-matrix:
 Charge =  0 Multiplicity = 1

                         Standard orientation:
 ---------------------------------------------------------------------
 Center     Atomic      Atomic             Coordinates (Angstroms)
 Number     Number       Type             X           Y           Z
 ---------------------------------------------------------------------
      1         12           0       29.961239    0.421251    0.595171
      2          6           0       30.195397   -2.027005   -1.810826
      3          6           0       28.231564    2.392698   -1.724357
      4          6           0       29.767737    2.911906    2.865321
      5          6           0       31.959459   -1.385409    2.659232
      6          7           0       29.528151    0.275306   -1.639799
      7          6           0       29.523435   -0.948459   -2.320709
      8          6           0       28.690671   -0.887017   -3.616448
      9          6           0       28.185368    0.601874   -3.566218
     10          6           0       28.609663    1.155274   -2.222823
     11          6           0       28.696515    1.446016   -4.726863
     12          6           0       27.515350   -1.905149   -3.831130
     13          6           0       27.693944   -3.002901   -5.014653
     14          1           0       26.578893   -2.880482   -6.057809
     15          7           0       29.230419    2.379179    0.558362
     16          6           0       28.437033    2.949701   -0.450096
     17          6           0       27.819406    4.201327    0.000404
     18          6           0       28.321892    4.462169    1.387457
     19          6           0       29.103706    3.203787    1.715608
     20          6           0       26.898686    5.029270   -0.868703
     21          6           0       28.116472    5.583186    2.293115
     22          8           0       28.724739    5.621062    3.372861
     23          6           0       27.231455    6.770170    1.955284
     24          7           0       30.809193    0.710503    2.389437
     25          6           0       30.493518    1.774785    3.254218
     26          6           0       31.068821    1.637430    4.721600
     27          6           0       31.807827    0.209257    4.570880
     28          6           0       31.486057   -0.185838    3.111835
     29          6           0       32.055632    2.826340    5.166509
     30          6           0       31.285531   -0.828006    5.623571
     31          6           0       32.275799   -1.773141    6.228593
     32          7           0       30.988166   -1.337936    0.397619
     33          6           0       31.741906   -1.996038    1.373688
     34          6           0       32.102470   -3.303311    0.942360
     35          6           0       31.407954   -3.398759   -0.319991
     36          6           0       30.834728   -2.151003   -0.596182
     37          6           0       32.854604   -4.374940    1.613120
     38          6           0       31.236693   -4.235174   -1.466453
     39          8           0       31.562348   -5.389932   -1.763239
     40          6           0       30.548891   -3.292721   -2.555348
     41          6           0       31.481211   -3.127698   -3.701850
     42          8           0       32.197765   -2.235605   -3.935998
     43          8           0       31.319492   -4.173797   -4.607257
     44          6           0       31.692660   -3.866347   -5.972306
     45          1           0       27.616954    2.964497   -2.422795
     46          1           0       29.721042    3.607266    3.705927
     47          1           0       32.474202   -2.030504    3.374264
     48          1           0       29.365575   -0.981768   -4.466429
     49          1           0       27.104132    0.665693   -3.691628
     50          1           0       29.362639    2.213568   -4.333760
     51          1           0       27.783585    1.901362   -5.108783
     52          1           0       29.145745    0.895571   -5.553214
     53          1           0       26.610096   -1.330951   -4.029975
     54          1           0       27.350918   -2.512652   -2.941074
     55          1           0       27.543466   -3.940016   -4.478384
     56          1           0       28.672658   -2.901536   -5.483106
     57          1           0       27.528482    5.509064   -1.618896
     58          1           0       26.431997    5.784600   -0.238293
     59          1           0       26.195658    4.431882   -1.449603
     60          1           0       27.529736    7.559659    2.645398
     61          1           0       26.164060    6.557753    2.024127
     62          1           0       27.419146    7.281472    1.011328
     63          1           0       30.251202    1.484453    5.425266
     64          1           0       32.882565    0.226324    4.753275
     65          1           0       32.871242    2.395421    5.747565
     66          1           0       31.658266    3.554948    5.872095
     67          1           0       32.457208    3.386026    4.321533
     68          1           0       30.439318   -1.421309    5.277523
     69          1           0       30.910435   -0.350309    6.528469
     70          1           0       31.988279   -2.751666    5.844319
     71          1           0       32.248541   -1.995082    7.295415
     72          1           0       33.282319   -1.512648    5.899608
     73          1           0       32.738929   -4.252135    2.690336
     74          1           0       33.891741   -4.176702    1.342930
     75          1           0       32.586238   -5.327350    1.155565
     76          1           0       29.628532   -3.750488   -2.917096
     77          1           0       32.781418   -3.903105   -5.958292
     78          1           0       31.350182   -2.846346   -6.145949
     79          1           0       31.307871   -4.609820   -6.670952
     80         12           0      -30.673449   -0.769836   -0.389122
     81          6           0      -27.744770    1.167491   -0.906869
     82          6           0      -28.694741   -3.005690    1.414429
     83          6           0      -33.462550   -1.812053    1.014746
     84          6           0      -32.482952    1.940053   -2.058305
     85          7           0      -28.444978   -0.744405    0.397697
     86          6           0      -27.457723   -0.013016   -0.176334
     87          6           0      -26.110619   -0.597921    0.208446
     88          6           0      -26.391523   -2.089971    0.387615
     89          6           0      -27.940704   -1.954188    0.817267
     90          6           0      -26.275934   -3.006630   -0.831694
     91          6           0      -25.528060    0.185393    1.464584
     92          6           0      -24.096236    0.516724    1.306382
     93          1           0      -23.183276    0.341791    2.535558
     94          7           0      -31.077898   -2.212766    1.093024
     95          6           0      -30.116085   -3.089845    1.653059
     96          6           0      -30.839342   -3.985703    2.519954
     97          6           0      -32.235803   -3.762061    2.390684
     98          6           0      -32.345980   -2.552163    1.500248
     99          6           0      -30.099328   -5.023534    3.357941
    100          6           0      -33.306552   -4.479531    3.113380
    101          8           0      -32.996377   -5.368385    3.896871
    102          6           0      -34.770810   -4.187993    3.074619
    103          7           0      -32.739052    0.085506   -0.463568
    104          6           0      -33.675228   -0.723367    0.071283
    105          6           0      -35.088393   -0.244911   -0.308042
    106          6           0      -34.805880    0.892792   -1.442059
    107          6           0      -33.258886    0.975860   -1.375477
    108          6           0      -36.100292   -1.412967   -0.702091
    109          6           0      -35.542704    2.252188   -1.229405
    110          6           0      -34.737090    3.423021   -0.569866
    111          7           0      -30.269632    1.087441   -1.276424
    112          6           0      -31.101849    2.019554   -1.959390
    113          6           0      -30.209954    3.041073   -2.662807
    114          6           0      -28.940609    2.724080   -2.206176
    115          6           0      -29.034787    1.536278   -1.395995
    116          6           0      -30.518594    4.221066   -3.604393
    117          6           0      -27.559630    3.076859   -2.301261
    118          8           0      -27.000664    3.936408   -2.984507
    119          6           0      -26.850735    2.175467   -1.354581
    120          6           0      -26.463682    3.123826   -0.196824
    121          8           0      -27.191592    3.533329    0.705076
    122          8           0      -25.109525    3.507285   -0.403937
    123          6           0      -24.551369    4.470805    0.455383
    124          1           0      -28.121748   -3.792206    1.910201
    125          1           0      -34.338285   -2.340478    1.396688
    126          1           0      -32.916177    2.709147   -2.700089
    127          1           0      -25.377497   -0.558836   -0.597086
    128          1           0      -25.836093   -2.672536    1.121715
    129          1           0      -25.687482   -2.584059   -1.645591
    130          1           0      -27.239617   -3.438807   -1.102321
    131          1           0      -25.674846   -3.829138   -0.442305
    132          1           0      -25.609537   -0.456688    2.341687
    133          1           0      -26.132687    1.034958    1.782197
    134          1           0      -24.148138    1.553927    0.977240
    135          1           0      -23.687398   -0.108708    0.512933
    136          1           0      -30.195523   -6.034849    2.963340
    137          1           0      -30.428297   -4.934815    4.392287
    138          1           0      -29.030590   -4.809015    3.367448
    139          1           0      -35.141587   -4.442981    2.081537
    140          1           0      -35.058417   -3.162080    3.307826
    141          1           0      -35.338934   -4.910456    3.659350
    142          1           0      -35.420134    0.267996    0.594467
    143          1           0      -35.024566    0.466430   -2.420504
    144          1           0      -35.798947   -2.360384   -0.255434
    145          1           0      -36.371321   -1.549089   -1.749719
    146          1           0      -37.057946   -1.014283   -0.363707
    147          1           0      -36.471026    2.138386   -0.670201
    148          1           0      -35.766440    2.550073   -2.253476
    149          1           0      -35.595095    3.874601   -0.071316
    150          1           0      -34.270984    4.159245   -1.225074
    151          1           0      -34.048930    2.982344    0.151772
    152          1           0      -30.004060    4.105326   -4.557673
    153          1           0      -29.946254    4.970081   -3.057954
    154          1           0      -31.594242    4.393166   -3.572956
    155          1           0      -25.940952    1.799919   -1.823078
    156          1           0      -23.514901    4.730117    0.235973
    157          1           0      -24.585657    4.063637    1.465110
    158          1           0      -25.185210    5.350291    0.338530
 ---------------------------------------------------------------------

 SCF Done:  E(RwB97XD) =  -4070.55074470     A.U. after   20 cycles

 Excitation energies and oscillator strengths:

 Excited State   1:      Singlet-A      1.6222 eV  764.31 nm  f=0.3681  <S**2>=0.000
     309 -> 316        0.16179
     311 -> 313        0.68378
     309 <- 316        0.10532
 This state for optimization and/or second-order correction.
 Total Energy, E(TD-HF/TD-DFT) =  -4070.49113115
 Copying the excited state density for this state as the 1-particle RhoCI density.

 Excited State   2:      Singlet-A      1.6240 eV  763.46 nm  f=0.3923  <S**2>=0.000
     310 -> 315        0.20363
     312 -> 314        0.67569
     310 <- 315        0.12247

 Excited State   3:      Singlet-A      2.1336 eV  581.09 nm  f=0.0547  <S**2>=0.000
     310 -> 314        0.61274
     312 -> 315       -0.34219

 Excited State   4:      Singlet-A      2.1350 eV  580.71 nm  f=0.1224  <S**2>=0.000
     309 -> 313        0.64273
     311 -> 316       -0.25997

 Excited State   5:      Singlet-A      3.2509 eV  381.38 nm  f=0.0040  <S**2>=0.000
     304 -> 313        0.47428
     306 -> 313       -0.38275
     308 -> 313        0.30360
     311 -> 316        0.12182

 The electronic state is 1-A.
 Alpha  occ. eigenvalues --  -46.97676 -46.94317 -19.29975 -19.27385 -19.26367
 Alpha  occ. eigenvalues --  -19.24451 -19.24015 -19.23957 -19.22973 -19.22590
 Alpha  occ. eigenvalues --  -14.47199 -14.47013 -14.46621 -14.46537 -14.44962
 Alpha  occ. eigenvalues --  -14.44857 -14.44367 -14.43150 -10.44525 -10.41901
 Alpha  occ. eigenvalues --  -10.39357 -10.38606 -10.38195 -10.38079 -10.35937
 Alpha  occ. eigenvalues --  -10.35872 -10.35480 -10.35480 -10.35380 -10.35366
 Alpha  occ. eigenvalues --  -10.35182 -10.35170 -10.35068 -10.34885 -10.34797
 Alpha  occ. eigenvalues --  -10.34758 -10.34750 -10.34345 -10.34233 -10.34138
 Alpha  occ. eigenvalues --  -10.33593 -10.33529 -10.33512 -10.33333 -10.33257
 Alpha  occ. eigenvalues --  -10.32855 -10.32759 -10.32593 -10.32478 -10.32464
 Alpha  occ. eigenvalues --  -10.32322 -10.32318 -10.32282 -10.32192 -10.31965
 Alpha  occ. eigenvalues --  -10.31865 -10.31817 -10.31800 -10.31666 -10.31662
 Alpha  occ. eigenvalues --  -10.31633 -10.31624 -10.31479 -10.31438 -10.31384
 Alpha  occ. eigenvalues --  -10.31196 -10.31182 -10.31091 -10.31059 -10.30686
 Alpha  occ. eigenvalues --  -10.30600 -10.30511 -10.30376 -10.30374 -10.30244
 Alpha  occ. eigenvalues --  -10.30191 -10.30115 -10.29887 -10.29813 -10.29754
 Alpha  occ. eigenvalues --  -10.29644 -10.29530 -10.29201 -10.29149 -10.29062
 Alpha  occ. eigenvalues --  -10.28491  -3.23381  -3.20486  -1.96897  -1.96543
 Alpha  occ. eigenvalues --   -1.96293  -1.94050  -1.93624  -1.93480  -1.18888
 Alpha  occ. eigenvalues --   -1.18012  -1.11871  -1.11834  -1.11565  -1.10881
 Alpha  occ. eigenvalues --   -1.10308  -1.09910  -1.06633  -1.06230  -1.05464
 Alpha  occ. eigenvalues --   -1.05458  -1.04888  -1.04076  -1.03316  -1.02718
 Alpha  occ. eigenvalues --   -0.96426  -0.94546  -0.91120  -0.91053  -0.90643
 Alpha  occ. eigenvalues --   -0.90507  -0.90399  -0.89701  -0.89288  -0.89226
 Alpha  occ. eigenvalues --   -0.89143  -0.88808  -0.88670  -0.87526  -0.86714
 Alpha  occ. eigenvalues --   -0.86159  -0.85590  -0.85365  -0.84631  -0.84349
 Alpha  occ. eigenvalues --   -0.83848  -0.83575  -0.82828  -0.82803  -0.82257
 Alpha  occ. eigenvalues --   -0.82195  -0.80781  -0.80005  -0.79335  -0.79213
 Alpha  occ. eigenvalues --   -0.78822  -0.78610  -0.77985  -0.77221  -0.77170
 Alpha  occ. eigenvalues --   -0.77163  -0.75069  -0.74764  -0.73847  -0.73686
 Alpha  occ. eigenvalues --   -0.71856  -0.71360  -0.70738  -0.70608  -0.69900
 Alpha  occ. eigenvalues --   -0.69557  -0.69273  -0.68840  -0.67604  -0.67328
 Alpha  occ. eigenvalues --   -0.67253  -0.67015  -0.66935  -0.66715  -0.66570
 Alpha  occ. eigenvalues --   -0.65906  -0.64239  -0.62847  -0.62229  -0.61943
 Alpha  occ. eigenvalues --   -0.61785  -0.61353  -0.61290  -0.61011  -0.60883
 Alpha  occ. eigenvalues --   -0.60440  -0.60288  -0.60258  -0.59662  -0.59030
 Alpha  occ. eigenvalues --   -0.58522  -0.58116  -0.57955  -0.57638  -0.57504
 Alpha  occ. eigenvalues --   -0.57257  -0.56872  -0.56529  -0.55860  -0.55657
 Alpha  occ. eigenvalues --   -0.55581  -0.55317  -0.55258  -0.54994  -0.54936
 Alpha  occ. eigenvalues --   -0.54601  -0.54589  -0.54260  -0.54111  -0.54091
 Alpha  occ. eigenvalues --   -0.53910  -0.53627  -0.53519  -0.53352  -0.53277
 Alpha  occ. eigenvalues --   -0.53267  -0.53099  -0.52678  -0.52507  -0.52499
 Alpha  occ. eigenvalues --   -0.52141  -0.52105  -0.51965  -0.51920  -0.51693
 Alpha  occ. eigenvalues --   -0.51583  -0.51418  -0.51184  -0.50940  -0.50924
 Alpha  occ. eigenvalues --   -0.50573  -0.50469  -0.50442  -0.50196  -0.50010
 Alpha  occ. eigenvalues --   -0.49944  -0.49722  -0.49418  -0.49233  -0.49133
 Alpha  occ. eigenvalues --   -0.48961  -0.48792  -0.48773  -0.48407  -0.48067
 Alpha  occ. eigenvalues --   -0.48030  -0.47921  -0.47918  -0.47848  -0.47815
 Alpha  occ. eigenvalues --   -0.47380  -0.47339  -0.47250  -0.47218  -0.47080
 Alpha  occ. eigenvalues --   -0.46893  -0.46629  -0.46506  -0.46385  -0.46089
 Alpha  occ. eigenvalues --   -0.46043  -0.45818  -0.45626  -0.45481  -0.45461
 Alpha  occ. eigenvalues --   -0.45291  -0.45230  -0.45008  -0.45007  -0.44865
 Alpha  occ. eigenvalues --   -0.44552  -0.44363  -0.43988  -0.43984  -0.43628
 Alpha  occ. eigenvalues --   -0.43511  -0.43324  -0.43320  -0.43077  -0.42982
 Alpha  occ. eigenvalues --   -0.42918  -0.42892  -0.42593  -0.42344  -0.42058
 Alpha  occ. eigenvalues --   -0.41971  -0.41834  -0.41079  -0.41020  -0.40629
 Alpha  occ. eigenvalues --   -0.40519  -0.40194  -0.39900  -0.39800  -0.39646
 Alpha  occ. eigenvalues --   -0.39620  -0.39251  -0.38617  -0.38335  -0.38035
 Alpha  occ. eigenvalues --   -0.37740  -0.37199  -0.36878  -0.36445  -0.36244
 Alpha  occ. eigenvalues --   -0.36061  -0.35631  -0.35403  -0.33679  -0.33550
 Alpha  occ. eigenvalues --   -0.33518  -0.33001  -0.32731  -0.32211  -0.32159
 Alpha  occ. eigenvalues --   -0.31844  -0.31648  -0.31383  -0.26318  -0.25982
 Alpha  occ. eigenvalues --   -0.23282  -0.22850
 Alpha virt. eigenvalues --   -0.07649  -0.06899  -0.00746  -0.00242   0.01781
 Alpha virt. eigenvalues --    0.01835   0.02909   0.04298   0.04300   0.05240
 Alpha virt. eigenvalues --    0.06832   0.07539   0.07552   0.07898   0.08392

 Mulliken charges:
               1
     1  Mg   0.967444
     2  C    0.011653
     3  C   -0.103222
     4  C   -0.069949
     5  C   -0.098328
     6  N   -0.364038
     7  C   -0.034260
     8  C   -0.002514
     9  C   -0.138194
    10  C    0.093013
    11  C    0.019373
    12  C   -0.009446
    13  C   -0.148395
    14  H    0.036386
    15  N   -0.481823
    16  C    0.200843
    17  C   -0.180070
    18  C   -0.027818
    19  C    0.193818
    20  C    0.079747
    21  C    0.021660
    22  O   -0.252853
    23  C   -0.034258
    24  N   -0.411018
    25  C    0.038736
    26  C   -0.045307
    27  C   -0.088437
    28  C    0.134106
    29  C   -0.000916
    30  C   -0.040866
    31  C   -0.058080
    32  N   -0.418821
    33  C    0.119432
    34  C   -0.179150
    35  C   -0.042490
    36  C    0.138875
    37  C    0.103166
    38  C    0.092982
    39  O   -0.217692
    40  C   -0.114188
    41  C    0.257022
    42  O   -0.187472
    43  O   -0.389608
    44  C    0.148289
    45  H   -0.010816
    46  H    0.026003
    47  H   -0.021914
    48  H    0.032283
    49  H    0.032479
    50  H    0.050122
    51  H    0.027199
    52  H    0.046206
    53  H    0.042873
    54  H    0.040719
    55  H    0.074226
    56  H    0.060405
    57  H    0.058527
    58  H    0.036784
    59  H    0.054112
    60  H    0.050791
    61  H    0.073251
    62  H    0.053554
    63  H    0.052012
    64  H    0.039618
    65  H    0.033983
    66  H    0.046063
    67  H    0.057355
    68  H    0.033686
    69  H    0.029698
    70  H    0.026206
    71  H    0.038831
    72  H    0.035114
    73  H    0.041488
    74  H    0.054385
    75  H    0.067151
    76  H    0.052247
    77  H    0.050846
    78  H    0.037031
    79  H    0.060153
    80  Mg   0.936428
    81  C    0.010835
    82  C   -0.075255
    83  C   -0.029765
    84  C   -0.064600
    85  N   -0.298251
    86  C   -0.021792
    87  C   -0.051676
    88  C   -0.134245
    89  C    0.044126
    90  C    0.038271
    91  C    0.033661
    92  C   -0.117020
    93  H    0.034869
    94  N   -0.490282
    95  C    0.145751
    96  C   -0.165616
    97  C   -0.024984
    98  C    0.111715
    99  C    0.096350
   100  C   -0.007051
   101  O   -0.246437
   102  C    0.014111
   103  N   -0.325725
   104  C    0.062823
   105  C   -0.098312
   106  C   -0.020416
   107  C    0.007671
   108  C    0.005951
   109  C   -0.047121
   110  C   -0.047993
   111  N   -0.422709
   112  C    0.106704
   113  C   -0.210665
   114  C   -0.023519
   115  C    0.161955
   116  C    0.090937
   117  C    0.075714
   118  O   -0.216293
   119  C   -0.054988
   120  C    0.276467
   121  O   -0.229447
   122  O   -0.374846
   123  C    0.144822
   124  H    0.004559
   125  H   -0.047407
   126  H   -0.000867
   127  H    0.012659
   128  H    0.029568
   129  H    0.042131
   130  H    0.047039
   131  H    0.028402
   132  H    0.032671
   133  H    0.056489
   134  H    0.045303
   135  H    0.046265
   136  H    0.058328
   137  H    0.061363
   138  H    0.009458
   139  H    0.040865
   140  H    0.071625
   141  H    0.046920
   142  H    0.050782
   143  H    0.037830
   144  H    0.052411
   145  H    0.033880
   146  H    0.031541
   147  H    0.040229
   148  H    0.030988
   149  H    0.035602
   150  H    0.046419
   151  H    0.060458
   152  H    0.072920
   153  H    0.067982
   154  H    0.038972
   155  H    0.061005
   156  H    0.058005
   157  H    0.041808
   158  H    0.053643
 Sum of Mulliken charges =  -0.00000

 Dipole moment (field-independent basis, Debye):
    X=             -6.2824    Y=              2.7806    Z=             -2.5469  Tot=              7.3272
 Quadrupole moment (field-independent basis, Debye-Ang):
   XX=           -612.6265   YY=           -549.6457   ZZ=           -499.4564
   XY=            109.7042   XZ=            168.0552   YZ=             -3.1102

 Normal termination of Gaussian 16 at Mon Sep 20 13:44:59 2021.
