 Gaussian 16, Revision A.03,
 Gaussian 16:  ES64L-G16RevA.03 25-Dec-2016

 --------------------------------
 #p wB97XD/Def2SVP td=(nstates=5)
 --------------------------------

 --------------------------------
 TDDFT excited states in gaussian
 --------------------------------
 Symbolic Z-matrix:
 Charge =  0 Multiplicity = 1

                         Standard orientation:
 ---------------------------------------------------------------------
 Center     Atomic      Atomic             Coordinates (Angstroms)
 Number     Number       Type             X           Y           Z
 ---------------------------------------------------------------------
      1         12           0       -9.940921   -0.928632    0.388750
      2          6           0      -10.000024    2.581703   -0.148150
      3          6           0       -7.889043   -0.220029    3.181543
      4          6           0       -9.499079   -4.135531    0.794848
      5          6           0      -11.723506   -1.356852   -2.566857
      6          7           0       -9.020042    1.004756    1.417119
      7          6           0       -9.312272    2.287091    1.021758
      8          6           0       -8.764819    3.343635    1.966395
      9          6           0       -7.975078    2.392682    2.964514
     10          6           0       -8.336461    0.963131    2.532703
     11          6           0       -6.494768    2.759466    3.013167
     12          6           0       -9.914798    4.124511    2.639675
     13          6           0       -9.715013    5.661226    2.927975
     14          1           0       -8.270155    6.211490    2.977033
     15          7           0       -8.907453   -2.045699    1.840607
     16          6           0       -8.067970   -1.559955    2.843517
     17          6           0       -7.546605   -2.710335    3.598579
     18          6           0       -8.100294   -3.867145    2.959111
     19          6           0       -8.906823   -3.338924    1.842191
     20          6           0       -6.610178   -2.585483    4.678396
     21          6           0       -7.900557   -5.336642    3.316097
     22          8           0       -8.371286   -6.237738    2.603924
     23          6           0       -7.295377   -5.725066    4.607686
     24          7           0      -10.441947   -2.523796   -0.787581
     25          6           0      -10.235971   -3.767433   -0.346179
     26          6           0      -10.733522   -4.822762   -1.386661
     27          6           0      -11.599298   -3.935413   -2.336386
     28          6           0      -11.254049   -2.538375   -1.925542
     29          6           0       -9.585264   -5.650151   -2.068856
     30          6           0      -13.094152   -4.285022   -1.978059
     31          6           0      -13.878663   -3.423701   -0.929232
     32          7           0      -10.806414    0.304740   -1.023066
     33          6           0      -11.498769   -0.035794   -2.199241
     34          6           0      -11.829033    1.217050   -2.922900
     35          6           0      -11.212893    2.217320   -2.180033
     36          6           0      -10.637249    1.691255   -1.042894
     37          6           0      -12.367356    1.165428   -4.271220
     38          6           0      -10.892067    3.641177   -2.241255
     39          8           0      -11.173018    4.439211   -3.128333
     40          6           0      -10.051567    3.953071   -0.915320
     41          6           0       -8.718590    4.514082   -1.244204
     42          8           0       -7.673692    3.880020   -1.359422
     43          8           0       -8.831776    5.909908   -1.387528
     44          6           0       -7.700145    6.725054   -1.767356
     45          1           0       -7.467127   -0.087859    4.180424
     46          1           0       -9.407435   -5.220463    0.882779
     47          1           0      -12.314133   -1.617472   -3.447257
     48          1           0       -8.098237    4.048030    1.468131
     49          1           0       -8.325051    2.654656    3.962633
     50          1           0       -6.107392    2.976458    4.008016
     51          1           0       -6.185015    3.592755    2.382421
     52          1           0       -5.947274    1.863931    2.716290
     53          1           0      -10.197666    3.659899    3.584174
     54          1           0      -10.717647    3.945321    1.923693
     55          1           0      -10.087997    5.911119    3.920659
     56          1           0      -10.439612    6.164214    2.287634
     57          1           0       -7.039044   -3.134044    5.517249
     58          1           0       -6.284568   -1.552270    4.795107
     59          1           0       -5.738213   -3.061829    4.229097
     60          1           0       -6.221362   -5.543416    4.657779
     61          1           0       -7.419929   -6.797508    4.756324
     62          1           0       -7.708753   -5.070537    5.374486
     63          1           0      -11.286514   -5.463098   -0.699403
     64          1           0      -11.436492   -4.184016   -3.385397
     65          1           0       -9.457410   -6.603536   -1.556034
     66          1           0       -8.707674   -5.004897   -2.092116
     67          1           0       -9.913450   -5.823757   -3.093540
     68          1           0      -13.185819   -5.361658   -1.833291
     69          1           0      -13.637678   -3.952795   -2.863040
     70          1           0      -14.392285   -4.172435   -0.326861
     71          1           0      -14.633418   -2.780607   -1.383696
     72          1           0      -13.273062   -2.827440   -0.247578
     73          1           0      -11.763232    0.475039   -4.858480
     74          1           0      -12.244058    2.164669   -4.690081
     75          1           0      -13.447379    1.021583   -4.256270
     76          1           0      -10.649406    4.716686   -0.416780
     77          1           0       -7.660744    6.940280   -2.834892
     78          1           0       -6.786270    6.390414   -1.276257
     79          1           0       -7.901854    7.627717   -1.189922
     80         12           0        9.896853   -0.456703   -0.154491
     81          6           0        7.966554    2.344066   -0.181733
     82          6           0       12.602023    1.340866    0.980274
     83          6           0       11.742586   -3.287812   -0.351608
     84          6           0        7.250757   -2.159014   -1.764484
     85          7           0       10.299510    1.666907    0.132442
     86          6           0        9.277298    2.531503    0.370360
     87          6           0        9.702290    3.772465    1.079524
     88          6           0       11.287965    3.484057    1.195626
     89          6           0       11.434070    2.068018    0.743930
     90          6           0       12.162659    4.481264    0.308768
     91          6           0        8.991333    3.817803    2.511770
     92          6           0        8.845556    5.186883    3.179588
     93          1           0        9.596658    6.464467    2.728893
     94          7           0       11.860407   -0.983261    0.337024
     95          6           0       12.832522   -0.068570    0.773854
     96          6           0       14.058548   -0.810530    0.955662
     97          6           0       13.816535   -2.154026    0.603797
     98          6           0       12.410249   -2.172707    0.225341
     99          6           0       15.329728   -0.129739    1.514623
    100          6           0       14.886315   -3.365538    0.537229
    101          8           0       14.551915   -4.542751    0.353351
    102          6           0       16.384412   -3.194649    0.727585
    103          7           0        9.484821   -2.496635   -0.908741
    104          6           0       10.456548   -3.440058   -0.891863
    105          6           0       10.059964   -4.664652   -1.714800
    106          6           0        8.451117   -4.429715   -1.896177
    107          6           0        8.309007   -2.978528   -1.410915
    108          6           0       10.914560   -4.930652   -3.037496
    109          6           0        7.485793   -5.302600   -0.944449
    110          6           0        6.313207   -6.055413   -1.545670
    111          7           0        7.951631   -0.086585   -0.819298
    112          6           0        7.018062   -0.824652   -1.445014
    113          6           0        5.759834   -0.028535   -1.595596
    114          6           0        6.122800    1.220678   -1.038648
    115          6           0        7.498060    1.137040   -0.710593
    116          6           0        4.424290   -0.404261   -2.132909
    117          6           0        5.566701    2.495623   -0.779585
    118          8           0        4.418147    2.934010   -0.995489
    119          6           0        6.739858    3.291483   -0.213172
    120          6           0        6.995837    4.422289   -1.075686
    121          8           0        7.219797    4.475247   -2.244514
    122          8           0        7.055963    5.536913   -0.244513
    123          6           0        7.370935    6.920209   -0.770499
    124          1           0       13.423710    1.786464    1.544135
    125          1           0       12.371141   -4.168506   -0.501414
    126          1           0        6.474347   -2.553187   -2.422559
    127          1           0        9.542783    4.760371    0.647890
    128          1           0       11.632652    3.574120    2.225745
    129          1           0       13.120763    4.779951    0.733487
    130          1           0       11.541879    5.323199    0.002754
    131          1           0       12.408683    3.939498   -0.605083
    132          1           0        9.495965    3.170361    3.229158
    133          1           0        7.997362    3.401312    2.346542
    134          1           0        9.065896    5.020578    4.234812
    135          1           0        7.790851    5.459365    3.181448
    136          1           0       15.192208    0.913680    1.797981
    137          1           0       16.098077   -0.232482    0.749059
    138          1           0       15.653277   -0.717041    2.374290
    139          1           0       16.496051   -2.941169    1.781159
    140          1           0       16.759458   -2.271854    0.284537
    141          1           0       16.923284   -4.027277    0.275887
    142          1           0       10.178903   -5.541737   -1.077539
    143          1           0        8.145956   -4.601666   -2.928550
    144          1           0       10.279324   -4.944369   -3.923468
    145          1           0       11.460343   -5.869191   -2.947684
    146          1           0       11.614833   -4.113654   -3.212999
    147          1           0        7.119478   -4.722619   -0.097500
    148          1           0        8.128512   -6.036767   -0.459576
    149          1           0        5.422906   -5.705299   -1.024448
    150          1           0        6.421725   -7.137520   -1.477871
    151          1           0        6.180282   -5.756097   -2.586248
    152          1           0        4.319516   -1.452977   -2.410481
    153          1           0        4.190143    0.170638   -3.029258
    154          1           0        3.675032   -0.178798   -1.374306
    155          1           0        6.541985    3.655920    0.795283
    156          1           0        7.585877    6.880277   -1.838569
    157          1           0        8.275169    7.296395   -0.290149
    158          1           0        6.484829    7.518256   -0.557934
 ---------------------------------------------------------------------

 SCF Done:  E(RwB97XD) =  -4070.60713458     A.U. after   19 cycles

 Excitation energies and oscillator strengths:

 Excited State   1:      Singlet-A      1.6818 eV  737.22 nm  f=0.4561  <S**2>=0.000
     309 -> 315        0.19673
     311 -> 313        0.67733
     309 <- 315        0.11873
 This state for optimization and/or second-order correction.
 Total Energy, E(TD-HF/TD-DFT) =  -4070.54533071
 Copying the excited state density for this state as the 1-particle RhoCI density.

 Excited State   2:      Singlet-A      1.6994 eV  729.57 nm  f=0.3156  <S**2>=0.000
     310 -> 316        0.19361
     312 -> 314        0.67558
     310 <- 316        0.11621

 Excited State   3:      Singlet-A      2.1742 eV  570.25 nm  f=0.0932  <S**2>=0.000
     309 -> 313        0.63652
     311 -> 315       -0.29870

 Excited State   4:      Singlet-A      2.2204 eV  558.39 nm  f=0.0717  <S**2>=0.000
     310 -> 314        0.62141
     312 -> 316       -0.32294

 Excited State   5:      Singlet-A      3.5067 eV  353.57 nm  f=0.0000  <S**2>=0.000
     312 -> 313        0.70669

 The electronic state is 1-A.
 Alpha  occ. eigenvalues --  -46.95733 -46.94721 -19.29048 -19.28936 -19.24636
 Alpha  occ. eigenvalues --  -19.24524 -19.24213 -19.24209 -19.23895 -19.23727
 Alpha  occ. eigenvalues --  -14.47049 -14.46618 -14.46281 -14.45731 -14.44181
 Alpha  occ. eigenvalues --  -14.44135 -14.43984 -14.43402 -10.43156 -10.42485
 Alpha  occ. eigenvalues --  -10.40223 -10.39245 -10.39209 -10.38527 -10.35804
 Alpha  occ. eigenvalues --  -10.35666 -10.34932 -10.34705 -10.34674 -10.34665
 Alpha  occ. eigenvalues --  -10.34649 -10.34430 -10.34346 -10.34326 -10.34209
 Alpha  occ. eigenvalues --  -10.34086 -10.34042 -10.33891 -10.33726 -10.33127
 Alpha  occ. eigenvalues --  -10.33090 -10.33059 -10.33049 -10.33022 -10.32801
 Alpha  occ. eigenvalues --  -10.32779 -10.32399 -10.32345 -10.32329 -10.32290
 Alpha  occ. eigenvalues --  -10.32087 -10.32048 -10.32026 -10.32014 -10.31875
 Alpha  occ. eigenvalues --  -10.31600 -10.31585 -10.31490 -10.31455 -10.31407
 Alpha  occ. eigenvalues --  -10.31322 -10.31320 -10.31311 -10.31308 -10.31218
 Alpha  occ. eigenvalues --  -10.31099 -10.30953 -10.30640 -10.30524 -10.30470
 Alpha  occ. eigenvalues --  -10.30331 -10.30292 -10.30220 -10.30090 -10.30049
 Alpha  occ. eigenvalues --  -10.30033 -10.29959 -10.29910 -10.29524 -10.29265
 Alpha  occ. eigenvalues --  -10.29160 -10.29037 -10.29010 -10.28834 -10.28805
 Alpha  occ. eigenvalues --  -10.28564  -3.21589  -3.20710  -1.95199  -1.94692
 Alpha  occ. eigenvalues --   -1.94568  -1.94306  -1.93847  -1.93667  -1.17787
 Alpha  occ. eigenvalues --   -1.16635  -1.11740  -1.11722  -1.11367  -1.10590
 Alpha  occ. eigenvalues --   -1.09418  -1.09261  -1.07624  -1.06688  -1.06476
 Alpha  occ. eigenvalues --   -1.05975  -1.05589  -1.04972  -1.04651  -1.03248
 Alpha  occ. eigenvalues --   -0.95516  -0.93805  -0.91764  -0.90543  -0.90401
 Alpha  occ. eigenvalues --   -0.90149  -0.90146  -0.89436  -0.89184  -0.88988
 Alpha  occ. eigenvalues --   -0.88792  -0.88528  -0.88160  -0.87983  -0.86279
 Alpha  occ. eigenvalues --   -0.85939  -0.85358  -0.85082  -0.84485  -0.84255
 Alpha  occ. eigenvalues --   -0.83751  -0.83525  -0.83131  -0.82641  -0.82283
 Alpha  occ. eigenvalues --   -0.82271  -0.80858  -0.80369  -0.79407  -0.79062
 Alpha  occ. eigenvalues --   -0.78906  -0.78638  -0.78129  -0.77557  -0.77106
 Alpha  occ. eigenvalues --   -0.76619  -0.74604  -0.73979  -0.73960  -0.73165
 Alpha  occ. eigenvalues --   -0.71279  -0.71038  -0.70739  -0.70572  -0.70167
 Alpha  occ. eigenvalues --   -0.69713  -0.68638  -0.67970  -0.67253  -0.67172
 Alpha  occ. eigenvalues --   -0.66803  -0.66521  -0.66516  -0.66320  -0.66252
 Alpha  occ. eigenvalues --   -0.66051  -0.63838  -0.63372  -0.62466  -0.62261
 Alpha  occ. eigenvalues --   -0.61892  -0.61183  -0.61179  -0.60930  -0.60802
 Alpha  occ. eigenvalues --   -0.60440  -0.59888  -0.59739  -0.59721  -0.59017
 Alpha  occ. eigenvalues --   -0.58170  -0.58018  -0.57515  -0.57352  -0.57238
 Alpha  occ. eigenvalues --   -0.57054  -0.56143  -0.56069  -0.55840  -0.55714
 Alpha  occ. eigenvalues --   -0.55604  -0.55181  -0.54975  -0.54965  -0.54897
 Alpha  occ. eigenvalues --   -0.54711  -0.54560  -0.54114  -0.54091  -0.54083
 Alpha  occ. eigenvalues --   -0.53593  -0.53589  -0.53553  -0.53353  -0.53312
 Alpha  occ. eigenvalues --   -0.53105  -0.52756  -0.52678  -0.52486  -0.52377
 Alpha  occ. eigenvalues --   -0.51803  -0.51724  -0.51604  -0.51575  -0.51431
 Alpha  occ. eigenvalues --   -0.51367  -0.51068  -0.50824  -0.50794  -0.50706
 Alpha  occ. eigenvalues --   -0.50304  -0.50245  -0.50219  -0.50089  -0.49913
 Alpha  occ. eigenvalues --   -0.49886  -0.49553  -0.49434  -0.49239  -0.49170
 Alpha  occ. eigenvalues --   -0.48868  -0.48717  -0.48514  -0.48506  -0.48393
 Alpha  occ. eigenvalues --   -0.48145  -0.48089  -0.47904  -0.47812  -0.47511
 Alpha  occ. eigenvalues --   -0.47193  -0.47126  -0.46792  -0.46635  -0.46392
 Alpha  occ. eigenvalues --   -0.46271  -0.46235  -0.46086  -0.46045  -0.45908
 Alpha  occ. eigenvalues --   -0.45881  -0.45833  -0.45701  -0.45651  -0.45446
 Alpha  occ. eigenvalues --   -0.45254  -0.45165  -0.45072  -0.44771  -0.44602
 Alpha  occ. eigenvalues --   -0.44323  -0.44318  -0.43721  -0.43690  -0.43589
 Alpha  occ. eigenvalues --   -0.43568  -0.43303  -0.43254  -0.43066  -0.42928
 Alpha  occ. eigenvalues --   -0.42786  -0.42758  -0.42417  -0.42107  -0.42100
 Alpha  occ. eigenvalues --   -0.41662  -0.41654  -0.41353  -0.41140  -0.40375
 Alpha  occ. eigenvalues --   -0.40323  -0.39751  -0.39592  -0.39538  -0.39248
 Alpha  occ. eigenvalues --   -0.38983  -0.38773  -0.38574  -0.38505  -0.38121
 Alpha  occ. eigenvalues --   -0.37943  -0.37522  -0.36463  -0.36226  -0.35979
 Alpha  occ. eigenvalues --   -0.35871  -0.35409  -0.35398  -0.33388  -0.33131
 Alpha  occ. eigenvalues --   -0.33083  -0.33052  -0.33023  -0.32653  -0.32359
 Alpha  occ. eigenvalues --   -0.32278  -0.32229  -0.31354  -0.25754  -0.25696
 Alpha  occ. eigenvalues --   -0.22939  -0.22472
 Alpha virt. eigenvalues --   -0.06863  -0.06372   0.00188   0.00322   0.02042
 Alpha virt. eigenvalues --    0.02410   0.04392   0.04439   0.05806   0.06482
 Alpha virt. eigenvalues --    0.07237   0.07301   0.07806   0.08002   0.08369

 Mulliken charges:
               1
     1  Mg   0.959136
     2  C    0.014292
     3  C   -0.115578
     4  C   -0.071873
     5  C   -0.091881
     6  N   -0.268410
     7  C   -0.049971
     8  C   -0.080509
     9  C   -0.081256
    10  C    0.061281
    11  C    0.017688
    12  C   -0.000788
    13  C   -0.101237
    14  H    0.042389
    15  N   -0.420419
    16  C    0.160487
    17  C   -0.187158
    18  C   -0.089667
    19  C    0.145921
    20  C    0.087381
    21  C    0.060729
    22  O   -0.251737
    23  C   -0.004385
    24  N   -0.411484
    25  C    0.041715
    26  C   -0.106314
    27  C   -0.056804
    28  C    0.053219
    29  C    0.041987
    30  C   -0.057065
    31  C   -0.040241
    32  N   -0.481905
    33  C    0.164221
    34  C   -0.192892
    35  C   -0.021420
    36  C    0.159995
    37  C    0.078076
    38  C    0.119575
    39  O   -0.196944
    40  C   -0.104444
    41  C    0.295950
    42  O   -0.245009
    43  O   -0.393364
    44  C    0.148667
    45  H    0.010684
    46  H    0.016372
    47  H   -0.005225
    48  H    0.046479
    49  H    0.028623
    50  H    0.025103
    51  H    0.046082
    52  H    0.027518
    53  H    0.030608
    54  H    0.034201
    55  H    0.043835
    56  H    0.052109
    57  H    0.062053
    58  H    0.037975
    59  H    0.061545
    60  H    0.050446
    61  H    0.063169
    62  H    0.049809
    63  H    0.039143
    64  H    0.036045
    65  H    0.056032
    66  H    0.049630
    67  H    0.029493
    68  H    0.044461
    69  H    0.027344
    70  H    0.033233
    71  H    0.043475
    72  H    0.047447
    73  H    0.057840
    74  H    0.044401
    75  H    0.045603
    76  H    0.074843
    77  H    0.071797
    78  H    0.048168
    79  H    0.039705
    80  Mg   0.950607
    81  C   -0.080450
    82  C   -0.065207
    83  C   -0.054780
    84  C   -0.099725
    85  N   -0.357620
    86  C    0.029419
    87  C   -0.079484
    88  C   -0.109787
    89  C    0.090016
    90  C    0.022800
    91  C   -0.013493
    92  C   -0.098814
    93  H    0.035730
    94  N   -0.438999
    95  C    0.108616
    96  C   -0.179321
    97  C   -0.083564
    98  C    0.122456
    99  C    0.062307
   100  C    0.075951
   101  O   -0.249690
   102  C    0.010449
   103  N   -0.332143
   104  C    0.030850
   105  C   -0.062551
   106  C   -0.122840
   107  C    0.110976
   108  C    0.017293
   109  C   -0.023467
   110  C   -0.037709
   111  N   -0.390453
   112  C    0.092526
   113  C   -0.157232
   114  C   -0.058386
   115  C    0.195130
   116  C    0.082455
   117  C    0.128962
   118  O   -0.229137
   119  C   -0.055154
   120  C    0.260509
   121  O   -0.202495
   122  O   -0.416755
   123  C    0.130285
   124  H   -0.007908
   125  H    0.015263
   126  H    0.000355
   127  H    0.042303
   128  H    0.032120
   129  H    0.044406
   130  H    0.032992
   131  H    0.038632
   132  H    0.033116
   133  H    0.032323
   134  H    0.042784
   135  H    0.053295
   136  H    0.042653
   137  H    0.051456
   138  H    0.048379
   139  H    0.054786
   140  H    0.026348
   141  H    0.075599
   142  H    0.037421
   143  H    0.035502
   144  H    0.033821
   145  H    0.050434
   146  H    0.045496
   147  H    0.038143
   148  H    0.020743
   149  H    0.037023
   150  H    0.048336
   151  H    0.024725
   152  H    0.023806
   153  H    0.065960
   154  H    0.063755
   155  H    0.069320
   156  H    0.066124
   157  H    0.053259
   158  H    0.069147
 Sum of Mulliken charges =  -0.00000

 Dipole moment (field-independent basis, Debye):
    X=              3.8863    Y=             -0.3328    Z=              6.9158  Tot=              7.9399
 Quadrupole moment (field-independent basis, Debye-Ang):
   XX=           -459.7556   YY=           -502.5095   ZZ=           -489.0246
   XY=             51.7281   XZ=             -8.1386   YZ=             37.9930

 Normal termination of Gaussian 16 at Sun Sep 19 04:43:18 2021.
