 Gaussian 16, Revision A.03,
 Gaussian 16:  ES64L-G16RevA.03 25-Dec-2016

 --------------------------------
 #p wB97XD/Def2SVP td=(nstates=5)
 --------------------------------

 --------------------------------
 TDDFT excited states in gaussian
 --------------------------------
 Symbolic Z-matrix:
 Charge =  0 Multiplicity = 1

                         Standard orientation:
 ---------------------------------------------------------------------
 Center     Atomic      Atomic             Coordinates (Angstroms)
 Number     Number       Type             X           Y           Z
 ---------------------------------------------------------------------
      1         12           0       23.984210   -0.870884   -0.048887
      2          6           0       25.250526    2.378243   -0.572133
      3          6           0       22.541824    0.247858    2.863047
      4          6           0       22.807435   -3.956556    0.562958
      5          6           0       25.934359   -2.082242   -2.689477
      6          7           0       23.847185    1.112111    0.862287
      7          6           0       24.373937    2.296313    0.563979
      8          6           0       24.027736    3.463561    1.511738
      9          6           0       23.414038    2.573015    2.697704
     10          6           0       23.298046    1.186516    2.113050
     11          6           0       24.245097    2.583576    3.957690
     12          6           0       22.956455    4.526877    0.902409
     13          6           0       23.092717    5.928590    1.504140
     14          1           0       23.442794    7.030791    0.471440
     15          7           0       22.675444   -1.740511    1.429223
     16          6           0       22.233750   -1.072735    2.598228
     17          6           0       21.230210   -1.917946    3.205070
     18          6           0       21.264659   -3.143149    2.545308
     19          6           0       22.260890   -3.003918    1.437187
     20          6           0       20.488133   -1.567173    4.480891
     21          6           0       20.466177   -4.411404    2.742070
     22          8           0       20.614583   -5.329450    1.989412
     23          6           0       19.428111   -4.539420    3.811915
     24          7           0       24.457131   -2.782152   -0.789480
     25          6           0       23.778637   -3.909397   -0.427974
     26          6           0       24.286696   -5.043024   -1.361528
     27          6           0       24.763858   -4.361580   -2.631518
     28          6           0       25.116561   -2.974845   -2.043865
     29          6           0       25.464090   -5.755335   -0.697301
     30          6           0       23.767977   -4.329315   -3.731149
     31          6           0       22.350436   -3.913269   -3.425258
     32          7           0       25.305619   -0.069730   -1.410783
     33          6           0       26.039957   -0.656342   -2.424249
     34          6           0       26.820021    0.386342   -3.108663
     35          6           0       26.510068    1.574299   -2.424000
     36          6           0       25.617398    1.253679   -1.437936
     37          6           0       27.752966    0.186447   -4.223832
     38          6           0       26.640878    3.006691   -2.430300
     39          8           0       27.268270    3.777839   -3.214314
     40          6           0       25.771465    3.568019   -1.207974
     41          6           0       26.735137    4.276505   -0.291618
     42          8           0       27.772094    3.795401    0.057612
     43          8           0       26.305761    5.543494    0.188279
     44          6           0       27.096220    6.089900    1.333023
     45          1           0       22.119974    0.570447    3.816604
     46          1           0       22.529509   -4.989254    0.785380
     47          1           0       26.427642   -2.355642   -3.624843
     48          1           0       24.925481    4.040906    1.736202
     49          1           0       22.440896    3.027975    2.886468
     50          1           0       23.786759    3.322031    4.615300
     51          1           0       25.306985    2.736360    3.763783
     52          1           0       24.010276    1.630295    4.431090
     53          1           0       21.940795    4.183732    1.101780
     54          1           0       23.034228    4.569832   -0.184152
     55          1           0       23.858423    5.763558    2.262417
     56          1           0       22.210765    6.217942    2.075255
     57          1           0       20.597407   -0.486518    4.564027
     58          1           0       21.107686   -2.024768    5.251637
     59          1           0       19.432764   -1.836947    4.436925
     60          1           0       18.662689   -3.885124    3.394278
     61          1           0       19.728879   -4.153636    4.785609
     62          1           0       19.095458   -5.574607    3.895623
     63          1           0       23.564530   -5.831243   -1.571502
     64          1           0       25.628394   -4.820173   -3.110340
     65          1           0       26.481893   -5.533753   -1.018524
     66          1           0       25.303734   -6.826610   -0.818340
     67          1           0       25.410019   -5.562681    0.374781
     68          1           0       23.726865   -5.275896   -4.270552
     69          1           0       24.177051   -3.599970   -4.430055
     70          1           0       22.213532   -2.952051   -3.921486
     71          1           0       21.965307   -3.774450   -2.414622
     72          1           0       21.679320   -4.609806   -3.927544
     73          1           0       28.628073   -0.339638   -3.842504
     74          1           0       27.946016    1.197429   -4.582468
     75          1           0       27.326015   -0.461082   -4.990857
     76          1           0       25.009956    4.189518   -1.679445
     77          1           0       28.038087    6.507159    0.976956
     78          1           0       27.309320    5.346021    2.102055
     79          1           0       26.660463    6.945177    1.848676
     80         12           0      -24.418375   -0.625799   -0.052281
     81          6           0      -23.528679    2.790330   -0.792768
     82          6           0      -24.428891    0.301386    3.329663
     83          6           0      -25.345060   -3.699468    0.635984
     84          6           0      -24.048024   -1.408586   -3.439198
     85          7           0      -23.980600    1.386282    1.103913
     86          6           0      -23.860578    2.640061    0.593145
     87          6           0      -24.018126    3.708205    1.663049
     88          6           0      -23.958279    2.874527    3.061809
     89          6           0      -24.104641    1.437781    2.482432
     90          6           0      -22.706667    3.147131    3.933216
     91          6           0      -25.329831    4.546555    1.492228
     92          6           0      -25.090255    6.073682    1.369097
     93          1           0      -25.729168    6.941680    2.599896
     94          7           0      -24.823231   -1.536681    1.681395
     95          6           0      -24.760008   -1.046968    3.029853
     96          6           0      -25.145127   -2.058469    4.042310
     97          6           0      -25.458823   -3.186696    3.215741
     98          6           0      -25.217625   -2.833176    1.806758
     99          6           0      -25.143830   -1.831464    5.555400
    100          6           0      -25.858012   -4.550851    3.632824
    101          8           0      -26.337933   -5.409845    2.901002
    102          6           0      -25.799966   -4.890854    5.135068
    103          7           0      -24.816537   -2.222823   -1.248533
    104          6           0      -25.163541   -3.421814   -0.727439
    105          6           0      -25.112611   -4.536757   -1.734730
    106          6           0      -24.746499   -3.835105   -3.065766
    107          6           0      -24.571659   -2.371994   -2.600134
    108          6           0      -24.231205   -5.704508   -1.344071
    109          6           0      -25.974202   -3.966947   -4.145779
    110          6           0      -25.574832   -4.584348   -5.594085
    111          7           0      -23.637579    0.380122   -1.755119
    112          6           0      -23.640112   -0.084020   -3.092583
    113          6           0      -23.217489    1.028574   -3.950876
    114          6           0      -23.310587    2.156607   -3.093813
    115          6           0      -23.443047    1.701071   -1.781215
    116          6           0      -22.838202    1.036464   -5.428683
    117          6           0      -22.999595    3.613811   -3.069068
    118          8           0      -22.595521    4.461654   -3.912473
    119          6           0      -23.264767    4.059929   -1.579251
    120          6           0      -22.057490    4.799637   -1.083113
    121          8           0      -20.926881    4.443910   -1.260794
    122          8           0      -22.446842    5.980512   -0.514445
    123          6           0      -21.310954    6.914553   -0.309795
    124          1           0      -24.286738    0.605887    4.368468
    125          1           0      -25.647256   -4.736400    0.798757
    126          1           0      -23.962906   -1.620532   -4.506818
    127          1           0      -23.121803    4.325664    1.603765
    128          1           0      -24.842974    3.031318    3.679509
    129          1           0      -22.083923    2.255217    4.008314
    130          1           0      -23.001105    3.478918    4.929719
    131          1           0      -22.077332    3.978397    3.615266
    132          1           0      -26.007372    4.412206    2.335828
    133          1           0      -25.874549    4.261479    0.591770
    134          1           0      -25.637328    6.527455    0.542307
    135          1           0      -24.057192    6.368825    1.188030
    136          1           0      -25.137103   -0.797580    5.902008
    137          1           0      -24.366846   -2.359114    6.108467
    138          1           0      -26.084993   -2.260415    5.900845
    139          1           0      -24.777225   -4.810014    5.503159
    140          1           0      -26.221881   -5.872114    5.354975
    141          1           0      -26.416930   -4.164471    5.664027
    142          1           0      -26.100260   -4.998302   -1.772891
    143          1           0      -23.801787   -4.206307   -3.461952
    144          1           0      -24.791018   -6.597308   -1.064124
    145          1           0      -23.613329   -5.542486   -0.460925
    146          1           0      -23.560313   -5.910161   -2.178422
    147          1           0      -26.476370   -3.024675   -4.362550
    148          1           0      -26.776214   -4.612288   -3.788401
    149          1           0      -24.649003   -5.135568   -5.428295
    150          1           0      -25.442481   -3.804810   -6.345485
    151          1           0      -26.277325   -5.357783   -5.903474
    152          1           0      -23.098199    1.976257   -5.915418
    153          1           0      -23.481294    0.313103   -5.931313
    154          1           0      -21.804588    0.690142   -5.425065
    155          1           0      -24.061098    4.801745   -1.634241
    156          1           0      -20.551598    6.380745    0.261310
    157          1           0      -21.725477    7.672788    0.354368
    158          1           0      -20.796814    7.326572   -1.178084
 ---------------------------------------------------------------------

 SCF Done:  E(RwB97XD) =  -4070.59579668     A.U. after   20 cycles

 Excitation energies and oscillator strengths:

 Excited State   1:      Singlet-A      1.6155 eV  767.45 nm  f=0.3667  <S**2>=0.000
     310 -> 315        0.19319
     312 -> 313        0.68204
     310 <- 315        0.12122
 This state for optimization and/or second-order correction.
 Total Energy, E(TD-HF/TD-DFT) =  -4070.53642671
 Copying the excited state density for this state as the 1-particle RhoCI density.

 Excited State   2:      Singlet-A      1.6527 eV  750.18 nm  f=0.3728  <S**2>=0.000
     309 -> 316       -0.17781
     311 -> 314        0.68544
     309 <- 316       -0.11379

 Excited State   3:      Singlet-A      2.1191 eV  585.07 nm  f=0.1288  <S**2>=0.000
     310 -> 313        0.64520
     312 -> 315       -0.27987

 Excited State   4:      Singlet-A      2.1346 eV  580.82 nm  f=0.1165  <S**2>=0.000
     309 -> 314        0.64476
     311 -> 316        0.27141

 Excited State   5:      Singlet-A      3.3518 eV  369.90 nm  f=0.0005  <S**2>=0.000
     303 -> 319       -0.10269
     304 -> 313       -0.13798
     307 -> 313        0.64954
     307 -> 317        0.13004

 The electronic state is 1-A.
 Alpha  occ. eigenvalues --  -46.94952 -46.94888 -19.30893 -19.29707 -19.24929
 Alpha  occ. eigenvalues --  -19.24690 -19.24142 -19.24039 -19.23770 -19.23268
 Alpha  occ. eigenvalues --  -14.48027 -14.47271 -14.46526 -14.45922 -14.45396
 Alpha  occ. eigenvalues --  -14.44336 -14.43856 -14.43616 -10.43230 -10.42680
 Alpha  occ. eigenvalues --  -10.39207 -10.39178 -10.39147 -10.38747 -10.35939
 Alpha  occ. eigenvalues --  -10.35938 -10.35713 -10.35701 -10.35651 -10.35444
 Alpha  occ. eigenvalues --  -10.35359 -10.35322 -10.35093 -10.35057 -10.34940
 Alpha  occ. eigenvalues --  -10.34929 -10.34799 -10.34747 -10.34510 -10.34002
 Alpha  occ. eigenvalues --  -10.33655 -10.33337 -10.33317 -10.33149 -10.32983
 Alpha  occ. eigenvalues --  -10.32950 -10.32941 -10.32773 -10.32737 -10.32556
 Alpha  occ. eigenvalues --  -10.32530 -10.32512 -10.32397 -10.32314 -10.32313
 Alpha  occ. eigenvalues --  -10.32305 -10.32256 -10.32243 -10.32181 -10.32054
 Alpha  occ. eigenvalues --  -10.31892 -10.31697 -10.31306 -10.31213 -10.31184
 Alpha  occ. eigenvalues --  -10.31169 -10.31142 -10.31134 -10.30742 -10.30697
 Alpha  occ. eigenvalues --  -10.30610 -10.30493 -10.30488 -10.30296 -10.30214
 Alpha  occ. eigenvalues --  -10.29977 -10.29962 -10.29750 -10.29658 -10.29373
 Alpha  occ. eigenvalues --  -10.29286 -10.29233 -10.28953 -10.28912 -10.28383
 Alpha  occ. eigenvalues --  -10.28265  -3.20964  -3.20885  -1.94554  -1.94497
 Alpha  occ. eigenvalues --   -1.94089  -1.93986  -1.93954  -1.93873  -1.19146
 Alpha  occ. eigenvalues --   -1.17725  -1.14375  -1.12238  -1.10899  -1.09561
 Alpha  occ. eigenvalues --   -1.09314  -1.08839  -1.07314  -1.06006  -1.05627
 Alpha  occ. eigenvalues --   -1.05298  -1.04914  -1.04655  -1.04091  -1.03754
 Alpha  occ. eigenvalues --   -0.94911  -0.93565  -0.91988  -0.91315  -0.90765
 Alpha  occ. eigenvalues --   -0.90636  -0.90386  -0.90027  -0.89805  -0.89383
 Alpha  occ. eigenvalues --   -0.88970  -0.88843  -0.88102  -0.87573  -0.86607
 Alpha  occ. eigenvalues --   -0.85968  -0.85416  -0.85083  -0.84581  -0.84421
 Alpha  occ. eigenvalues --   -0.83723  -0.83362  -0.83039  -0.82642  -0.81862
 Alpha  occ. eigenvalues --   -0.81736  -0.81110  -0.80923  -0.79250  -0.79038
 Alpha  occ. eigenvalues --   -0.78998  -0.78729  -0.78205  -0.77988  -0.77193
 Alpha  occ. eigenvalues --   -0.76934  -0.74574  -0.74424  -0.73426  -0.73304
 Alpha  occ. eigenvalues --   -0.71601  -0.71183  -0.70842  -0.70682  -0.69814
 Alpha  occ. eigenvalues --   -0.69556  -0.69128  -0.69091  -0.67852  -0.67777
 Alpha  occ. eigenvalues --   -0.67628  -0.66956  -0.66435  -0.66199  -0.66041
 Alpha  occ. eigenvalues --   -0.65329  -0.64367  -0.63749  -0.62865  -0.62413
 Alpha  occ. eigenvalues --   -0.61904  -0.61244  -0.61146  -0.60951  -0.60760
 Alpha  occ. eigenvalues --   -0.60534  -0.60353  -0.59949  -0.59589  -0.59155
 Alpha  occ. eigenvalues --   -0.58416  -0.58175  -0.57752  -0.57282  -0.56971
 Alpha  occ. eigenvalues --   -0.56699  -0.56487  -0.56439  -0.56000  -0.55937
 Alpha  occ. eigenvalues --   -0.55744  -0.55671  -0.55595  -0.55371  -0.54982
 Alpha  occ. eigenvalues --   -0.54652  -0.54544  -0.54352  -0.54163  -0.53806
 Alpha  occ. eigenvalues --   -0.53637  -0.53621  -0.53444  -0.53359  -0.53309
 Alpha  occ. eigenvalues --   -0.52798  -0.52741  -0.52619  -0.52434  -0.52194
 Alpha  occ. eigenvalues --   -0.52000  -0.51915  -0.51907  -0.51732  -0.51621
 Alpha  occ. eigenvalues --   -0.51539  -0.51431  -0.51185  -0.51077  -0.51025
 Alpha  occ. eigenvalues --   -0.50753  -0.50266  -0.50234  -0.50150  -0.50072
 Alpha  occ. eigenvalues --   -0.49966  -0.49678  -0.49582  -0.49561  -0.49440
 Alpha  occ. eigenvalues --   -0.49084  -0.49001  -0.48796  -0.48665  -0.48508
 Alpha  occ. eigenvalues --   -0.48268  -0.48154  -0.47896  -0.47794  -0.47511
 Alpha  occ. eigenvalues --   -0.47455  -0.47327  -0.47107  -0.46928  -0.46912
 Alpha  occ. eigenvalues --   -0.46765  -0.46701  -0.46362  -0.46232  -0.46082
 Alpha  occ. eigenvalues --   -0.46054  -0.45809  -0.45744  -0.45642  -0.45435
 Alpha  occ. eigenvalues --   -0.45296  -0.45129  -0.45033  -0.44791  -0.44771
 Alpha  occ. eigenvalues --   -0.44565  -0.44460  -0.44395  -0.44210  -0.44034
 Alpha  occ. eigenvalues --   -0.43741  -0.43530  -0.43487  -0.43282  -0.42950
 Alpha  occ. eigenvalues --   -0.42891  -0.42729  -0.42625  -0.42404  -0.42282
 Alpha  occ. eigenvalues --   -0.42155  -0.42089  -0.41647  -0.41418  -0.41326
 Alpha  occ. eigenvalues --   -0.40538  -0.40305  -0.40194  -0.39678  -0.39468
 Alpha  occ. eigenvalues --   -0.39357  -0.39281  -0.39085  -0.38545  -0.38376
 Alpha  occ. eigenvalues --   -0.38221  -0.37532  -0.36663  -0.36621  -0.36500
 Alpha  occ. eigenvalues --   -0.36416  -0.35403  -0.35275  -0.33906  -0.33883
 Alpha  occ. eigenvalues --   -0.33372  -0.32989  -0.32620  -0.32502  -0.32333
 Alpha  occ. eigenvalues --   -0.32143  -0.31525  -0.31447  -0.26075  -0.25842
 Alpha  occ. eigenvalues --   -0.23204  -0.23135
 Alpha virt. eigenvalues --   -0.07369  -0.07295   0.00047   0.00187   0.02150
 Alpha virt. eigenvalues --    0.02482   0.04127   0.04298   0.06264   0.06542
 Alpha virt. eigenvalues --    0.06768   0.07148   0.07698   0.07720   0.07879

 Mulliken charges:
               1
     1  Mg   0.954046
     2  C   -0.043088
     3  C   -0.110355
     4  C   -0.074506
     5  C   -0.071290
     6  N   -0.321300
     7  C   -0.003999
     8  C   -0.076440
     9  C   -0.141314
    10  C    0.116799
    11  C    0.056672
    12  C    0.009153
    13  C   -0.101840
    14  H    0.060752
    15  N   -0.444628
    16  C    0.147189
    17  C   -0.177166
    18  C   -0.058209
    19  C    0.148160
    20  C    0.068312
    21  C    0.023160
    22  O   -0.209949
    23  C   -0.009834
    24  N   -0.406349
    25  C    0.080616
    26  C   -0.094185
    27  C   -0.044058
    28  C    0.107998
    29  C    0.034248
    30  C    0.007535
    31  C   -0.069560
    32  N   -0.442746
    33  C    0.083807
    34  C   -0.209070
    35  C    0.007003
    36  C    0.127373
    37  C    0.079109
    38  C    0.099182
    39  O   -0.251501
    40  C   -0.045815
    41  C    0.263525
    42  O   -0.210424
    43  O   -0.401539
    44  C    0.135714
    45  H    0.006440
    46  H    0.021255
    47  H   -0.000374
    48  H    0.038132
    49  H    0.035956
    50  H    0.032099
    51  H    0.057747
    52  H    0.022841
    53  H    0.027428
    54  H    0.042855
    55  H    0.027487
    56  H    0.044604
    57  H    0.032563
    58  H    0.076063
    59  H    0.059580
    60  H    0.059862
    61  H    0.052692
    62  H    0.061955
    63  H    0.025020
    64  H    0.018251
    65  H    0.044993
    66  H    0.032943
    67  H    0.031267
    68  H    0.032137
    69  H    0.016191
    70  H    0.030695
    71  H    0.056730
    72  H    0.029955
    73  H    0.053932
    74  H    0.066199
    75  H    0.035081
    76  H    0.077677
    77  H    0.056917
    78  H    0.049854
    79  H    0.051783
    80  Mg   0.990531
    81  C   -0.017470
    82  C   -0.078582
    83  C   -0.086385
    84  C   -0.079808
    85  N   -0.298148
    86  C   -0.019882
    87  C   -0.052947
    88  C   -0.107216
    89  C    0.010869
    90  C    0.015738
    91  C    0.042972
    92  C   -0.139083
    93  H   -0.009621
    94  N   -0.512262
    95  C    0.177385
    96  C   -0.130218
    97  C   -0.070924
    98  C    0.181985
    99  C    0.070195
   100  C    0.029674
   101  O   -0.236655
   102  C   -0.016552
   103  N   -0.420605
   104  C    0.093848
   105  C   -0.078856
   106  C   -0.074242
   107  C    0.102001
   108  C    0.012673
   109  C   -0.031810
   110  C   -0.079632
   111  N   -0.424449
   112  C    0.112331
   113  C   -0.186302
   114  C   -0.110941
   115  C    0.145535
   116  C    0.092645
   117  C    0.193624
   118  O   -0.247685
   119  C   -0.086695
   120  C    0.237144
   121  O   -0.215013
   122  O   -0.372154
   123  C    0.133809
   124  H   -0.004499
   125  H    0.020964
   126  H   -0.003293
   127  H    0.041518
   128  H    0.042943
   129  H    0.048233
   130  H    0.034624
   131  H    0.041293
   132  H    0.049091
   133  H    0.046176
   134  H    0.054740
   135  H    0.060333
   136  H    0.047037
   137  H    0.062932
   138  H    0.044855
   139  H    0.052789
   140  H    0.053700
   141  H    0.038510
   142  H    0.046273
   143  H    0.048422
   144  H    0.040265
   145  H    0.042060
   146  H    0.029145
   147  H    0.043063
   148  H    0.034679
   149  H    0.027509
   150  H    0.051967
   151  H    0.040952
   152  H    0.063949
   153  H    0.026475
   154  H    0.068682
   155  H    0.067107
   156  H    0.050103
   157  H    0.052103
   158  H    0.076478
 Sum of Mulliken charges =  -0.00000

 Dipole moment (field-independent basis, Debye):
    X=             -6.2476    Y=             -2.5979    Z=              9.5925  Tot=             11.7387
 Quadrupole moment (field-independent basis, Debye-Ang):
   XX=           -703.1670   YY=           -516.9061   ZZ=           -467.3918
   XY=            -30.0370   XZ=             25.4109   YZ=             57.0963

 Normal termination of Gaussian 16 at Sat Sep 18 13:59:22 2021.
