 Gaussian 16, Revision A.03,
 Gaussian 16:  ES64L-G16RevA.03 25-Dec-2016

 --------------------------------
 #p wB97XD/Def2SVP td=(nstates=5)
 --------------------------------

 --------------------------------
 TDDFT excited states in gaussian
 --------------------------------
 Symbolic Z-matrix:
 Charge =  0 Multiplicity = 1

                         Standard orientation:
 ---------------------------------------------------------------------
 Center     Atomic      Atomic             Coordinates (Angstroms)
 Number     Number       Type             X           Y           Z
 ---------------------------------------------------------------------
      1         12           0        0.592547   -0.007623    0.254296
      2          6           0       -2.810153   -0.053437   -0.044704
      3          6           0        0.527936   -3.532987   -0.225560
      4          6           0        3.964762    0.041792    0.146414
      5          6           0        0.557333    3.443940   -0.217518
      6          7           0       -1.025282   -1.608243   -0.488317
      7          6           0       -2.353009   -1.379405   -0.284622
      8          6           0       -3.137056   -2.626996   -0.584185
      9          6           0       -2.037361   -3.772288   -0.676507
     10          6           0       -0.717370   -2.972648   -0.439044
     11          6           0       -2.376021   -5.068187   -0.035042
     12          6           0       -4.210970   -2.627706   -1.772499
     13          6           0       -3.950023   -1.754902   -2.964173
     14          1           0       -4.103533   -2.394554   -4.336970
     15          7           0        2.016890   -1.553701    0.235725
     16          6           0        1.813121   -2.888202    0.067378
     17          6           0        3.042301   -3.624871    0.059680
     18          6           0        4.078715   -2.580024    0.290871
     19          6           0        3.367422   -1.284055    0.238262
     20          6           0        3.242390   -5.057628   -0.085745
     21          6           0        5.571911   -2.753365    0.528924
     22          8           0        6.081930   -3.808802    0.396128
     23          6           0        6.560164   -1.663445    0.839171
     24          7           0        2.016501    1.484394   -0.125361
     25          6           0        3.324532    1.260026    0.072280
     26          6           0        4.192984    2.571362   -0.306110
     27          6           0        3.066758    3.684001   -0.035724
     28          6           0        1.831874    2.828239   -0.188418
     29          6           0        5.470529    2.784043    0.510793
     30          6           0        3.214724    4.916746   -0.945715
     31          6           0        3.152417    6.333684   -0.363272
     32          7           0       -0.822194    1.417055   -0.178264
     33          6           0       -0.732989    2.797467   -0.307806
     34          6           0       -2.009048    3.396869   -0.370864
     35          6           0       -2.898635    2.346002   -0.219620
     36          6           0       -2.131871    1.132844   -0.102867
     37          6           0       -2.335320    4.853921   -0.485017
     38          6           0       -4.226141    1.912133   -0.080458
     39          8           0       -5.241469    2.604498   -0.112385
     40          6           0       -4.260222    0.358248   -0.136456
     41          6           0       -5.102872   -0.011742    1.075302
     42          8           0       -6.097165   -0.767006    1.033687
     43          8           0       -4.481685    0.511410    2.184818
     44          6           0       -4.888404    0.142329    3.562801
     45          1           0        0.449038   -4.586515   -0.501572
     46          1           0        5.030521    0.046681   -0.090961
     47          1           0        0.554136    4.532950   -0.293562
     48          1           0       -3.810258   -2.818057    0.252317
     49          1           0       -1.944110   -4.009391   -1.735919
     50          1           0       -1.584267   -5.454757    0.606557
     51          1           0       -2.738567   -5.802463   -0.754433
     52          1           0       -3.202771   -4.919291    0.659585
     53          1           0       -5.210733   -2.310666   -1.475521
     54          1           0       -4.236519   -3.614832   -2.235108
     55          1           0       -3.054453   -1.138696   -2.891804
     56          1           0       -4.779147   -1.049018   -3.023075
     57          1           0        2.379524   -5.575009    0.332471
     58          1           0        4.145479   -5.432237    0.394649
     59          1           0        3.305273   -5.256364   -1.156237
     60          1           0        5.849994   -1.044961    1.388539
     61          1           0        6.919314   -1.149304   -0.051782
     62          1           0        7.432084   -1.935790    1.434111
     63          1           0        4.359502    2.512353   -1.382127
     64          1           0        2.963943    4.089486    0.970508
     65          1           0        5.268456    3.599891    1.205347
     66          1           0        6.335560    2.850672   -0.148400
     67          1           0        5.727309    1.928667    1.134982
     68          1           0        2.433703    4.837732   -1.702402
     69          1           0        4.126037    4.790321   -1.530395
     70          1           0        3.934406    7.043848   -0.632513
     71          1           0        3.002143    6.343516    0.717069
     72          1           0        2.164824    6.661828   -0.685861
     73          1           0       -3.239983    5.161293    0.040140
     74          1           0       -2.445598    5.099821   -1.541430
     75          1           0       -1.570028    5.501898   -0.055754
     76          1           0       -4.751634    0.164557   -1.089145
     77          1           0       -4.038042    0.034340    4.235870
     78          1           0       -5.427735   -0.803764    3.513899
     79          1           0       -5.563176    0.779398    4.133207
 ---------------------------------------------------------------------

 SCF Done:  E(RwB97XD) =  -2035.25400888     A.U. after   20 cycles

 Excitation energies and oscillator strengths:

 Excited State   1:      Singlet-A      1.5769 eV  786.24 nm  f=0.3869  <S**2>=0.000
     155 ->158         0.17496
     156 ->157         0.68654
     155 <-158         0.11858
 This state for optimization and/or second-order correction.
 Total Energy, E(TD-HF/TD-DFT) =  -2035.19605800
 Copying the excited state density for this state as the 1-particle RhoCI density.

 Excited State   2:      Singlet-A      2.0921 eV  592.64 nm  f=0.1441  <S**2>=0.000
     155 ->157         0.64991
     156 ->158        -0.25871

 Excited State   3:      Singlet-A      3.0081 eV  412.17 nm  f=0.0074  <S**2>=0.000
     153 ->157        -0.21786
     154 ->157         0.63582
     154 ->159         0.12429

 Excited State   4:      Singlet-A      3.1792 eV  389.98 nm  f=0.0006  <S**2>=0.000
     151 ->157        -0.13886
     151 ->159         0.11869
     152 ->157         0.58880
     152 ->159        -0.26619

 Excited State   5:      Singlet-A      3.3752 eV  367.34 nm  f=0.0148  <S**2>=0.000
     151 ->157        -0.35865
     152 ->157        -0.10303
     153 ->157         0.45113
     153 ->159         0.14241
     153 ->161        -0.14728
     154 ->157         0.13860
     154 ->159         0.10488
     154 ->161        -0.15374
     156 ->158        -0.15794

 The electronic state is 1-A.
 Alpha  occ. eigenvalues --  -46.96322 -19.31496 -19.25345 -19.23627 -19.22201
 Alpha  occ. eigenvalues --  -14.47194 -14.46670 -14.44626 -14.44302 -10.44415
 Alpha  occ. eigenvalues --  -10.38371 -10.37483 -10.36586 -10.36164 -10.35678
 Alpha  occ. eigenvalues --  -10.35030 -10.34940 -10.34876 -10.34713 -10.34168
 Alpha  occ. eigenvalues --  -10.33463 -10.33060 -10.32973 -10.32595 -10.32524
 Alpha  occ. eigenvalues --  -10.32382 -10.32380 -10.32011 -10.31936 -10.31890
 Alpha  occ. eigenvalues --  -10.31610 -10.31576 -10.31295 -10.30771 -10.30768
 Alpha  occ. eigenvalues --  -10.30724 -10.30708 -10.30224 -10.30083 -10.29928
 Alpha  occ. eigenvalues --  -10.29639 -10.29019 -10.28954  -3.22256  -1.95796
 Alpha  occ. eigenvalues --   -1.95411  -1.95196  -1.17907  -1.13595  -1.11674
 Alpha  occ. eigenvalues --   -1.09508  -1.07229  -1.06449  -1.04953  -1.04180
 Alpha  occ. eigenvalues --   -0.95763  -0.91737  -0.90646  -0.90332  -0.89931
 Alpha  occ. eigenvalues --   -0.89205  -0.87807  -0.86474  -0.85930  -0.85026
 Alpha  occ. eigenvalues --   -0.84117  -0.82958  -0.82572  -0.80486  -0.79771
 Alpha  occ. eigenvalues --   -0.78935  -0.78672  -0.77454  -0.75610  -0.73764
 Alpha  occ. eigenvalues --   -0.71990  -0.71402  -0.70372  -0.68584  -0.68222
 Alpha  occ. eigenvalues --   -0.67529  -0.66714  -0.66402  -0.65624  -0.62306
 Alpha  occ. eigenvalues --   -0.61476  -0.60877  -0.60071  -0.59597  -0.59233
 Alpha  occ. eigenvalues --   -0.58523  -0.57821  -0.57281  -0.57086  -0.56418
 Alpha  occ. eigenvalues --   -0.55978  -0.55303  -0.55111  -0.54447  -0.54067
 Alpha  occ. eigenvalues --   -0.53774  -0.53750  -0.53346  -0.53062  -0.52664
 Alpha  occ. eigenvalues --   -0.52567  -0.51931  -0.51647  -0.51470  -0.51142
 Alpha  occ. eigenvalues --   -0.50963  -0.50157  -0.49838  -0.49501  -0.49307
 Alpha  occ. eigenvalues --   -0.49172  -0.49058  -0.48837  -0.48394  -0.48081
 Alpha  occ. eigenvalues --   -0.47595  -0.47488  -0.47282  -0.46985  -0.46835
 Alpha  occ. eigenvalues --   -0.46142  -0.45957  -0.45323  -0.45002  -0.44680
 Alpha  occ. eigenvalues --   -0.44569  -0.44392  -0.44062  -0.43954  -0.43667
 Alpha  occ. eigenvalues --   -0.43434  -0.43222  -0.42472  -0.42198  -0.40962
 Alpha  occ. eigenvalues --   -0.40647  -0.39964  -0.39455  -0.38996  -0.38172
 Alpha  occ. eigenvalues --   -0.37557  -0.36819  -0.35871  -0.35337  -0.33818
 Alpha  occ. eigenvalues --   -0.33085  -0.32599  -0.31547  -0.30415  -0.26404
 Alpha  occ. eigenvalues --   -0.23539
 Alpha virt. eigenvalues --   -0.08057  -0.00040   0.02319   0.04059   0.04815
 Alpha virt. eigenvalues --    0.06635   0.07341   0.08483   0.09464   0.10560
 Alpha virt. eigenvalues --    0.11437   0.12008   0.12823   0.13231   0.13637

 Mulliken charges:
               1
     1  Mg   0.958367
     2  C    0.008328
     3  C   -0.083337
     4  C   -0.083895
     5  C   -0.096623
     6  N   -0.330852
     7  C   -0.005329
     8  C   -0.018937
     9  C   -0.091830
    10  C    0.035636
    11  C    0.041613
    12  C   -0.010635
    13  C   -0.168769
    14  H    0.030000
    15  N   -0.448300
    16  C    0.171518
    17  C   -0.181772
    18  C   -0.096592
    19  C    0.137181
    20  C    0.086356
    21  C    0.013450
    22  O   -0.209781
    23  C   -0.014975
    24  N   -0.361648
    25  C    0.084297
    26  C   -0.139037
    27  C   -0.084289
    28  C    0.074818
    29  C    0.050075
    30  C   -0.015336
    31  C   -0.044750
    32  N   -0.442035
    33  C    0.139406
    34  C   -0.188080
    35  C    0.058655
    36  C    0.109954
    37  C    0.078491
    38  C    0.062363
    39  O   -0.216442
    40  C   -0.121446
    41  C    0.312951
    42  O   -0.256643
    43  O   -0.379224
    44  C    0.145010
    45  H    0.008473
    46  H    0.003733
    47  H   -0.014211
    48  H    0.042130
    49  H    0.049762
    50  H    0.035487
    51  H    0.041455
    52  H    0.026932
    53  H    0.059166
    54  H    0.045105
    55  H    0.064511
    56  H    0.055835
    57  H    0.031649
    58  H    0.063185
    59  H    0.053807
    60  H    0.032369
    61  H    0.070921
    62  H    0.058000
    63  H    0.056106
    64  H    0.040613
    65  H    0.038905
    66  H    0.039575
    67  H    0.032337
    68  H    0.030261
    69  H    0.027718
    70  H    0.056416
    71  H    0.025821
    72  H    0.030882
    73  H    0.060952
    74  H    0.060883
    75  H    0.031935
    76  H    0.065567
    77  H    0.053573
    78  H    0.053922
    79  H    0.058313
 Sum of Mulliken charges =  -0.00000

 Dipole moment (field-independent basis, Debye):
    X=              2.6488    Y=              2.6091    Z=              2.0397  Tot=              4.2408
 Quadrupole moment (field-independent basis, Debye-Ang):
   XX=           -297.4828   YY=           -243.8893   ZZ=           -244.0899
   XY=             38.9959   XZ=             -7.7029   YZ=              2.2616

 Normal termination of Gaussian 16 at Sat Sep 18 22:56:48 2021.
