 Gaussian 16, Revision A.03,
 Gaussian 16:  ES64L-G16RevA.03 25-Dec-2016

 --------------------------------
 #p wB97XD/Def2SVP td=(nstates=5)
 --------------------------------

 --------------------------------
 TDDFT excited states in gaussian
 --------------------------------
 Symbolic Z-matrix:
 Charge =  0 Multiplicity = 1

                         Standard orientation:
 ---------------------------------------------------------------------
 Center     Atomic      Atomic             Coordinates (Angstroms)
 Number     Number       Type             X           Y           Z
 ---------------------------------------------------------------------
      1         12           0       -9.024933    0.301051   -0.123911
      2          6           0       -7.027911   -2.322811   -0.993914
      3          6           0      -10.514900   -1.757857    2.336741
      4          6           0      -11.161837    2.773796    0.605751
      5          6           0       -7.459724    2.225128   -2.500217
      6          7           0       -9.031979   -1.862581    0.384249
      7          6           0       -8.014932   -2.720917   -0.052711
      8          6           0       -8.112210   -4.123372    0.611827
      9          6           0       -9.283829   -3.846277    1.590971
     10          6           0       -9.702976   -2.400243    1.396985
     11          6           0      -10.562446   -4.786608    1.645157
     12          6           0       -6.807833   -4.658246    1.351462
     13          6           0       -7.039213   -6.047350    2.004406
     14          1           0       -6.321732   -7.184368    1.275532
     15          7           0      -10.621998    0.491618    1.348586
     16          6           0      -10.877598   -0.385150    2.380902
     17          6           0      -12.004611    0.182891    3.111363
     18          6           0      -12.188295    1.503869    2.589807
     19          6           0      -11.300329    1.667907    1.482165
     20          6           0      -12.650133   -0.563021    4.214782
     21          6           0      -13.312748    2.474590    3.093683
     22          8           0      -13.621454    3.535258    2.513498
     23          6           0      -14.139102    2.107025    4.298475
     24          7           0       -9.282021    2.109393   -0.822051
     25          6           0      -10.278275    3.020917   -0.372181
     26          6           0      -10.393078    4.202348   -1.308628
     27          6           0       -8.986345    4.202250   -1.903852
     28          6           0       -8.488644    2.777707   -1.704637
     29          6           0      -11.512252    4.020721   -2.388310
     30          6           0       -8.021531    5.151909   -1.159160
     31          6           0       -7.989768    6.601912   -1.561612
     32          7           0       -7.556818    0.092028   -1.556207
     33          6           0       -6.910531    0.968135   -2.342240
     34          6           0       -5.905657    0.278660   -3.096357
     35          6           0       -5.884756   -1.008645   -2.603170
     36          6           0       -6.888717   -1.070065   -1.624275
     37          6           0       -5.047746    0.963364   -4.102392
     38          6           0       -5.232155   -2.241770   -2.725903
     39          8           0       -4.297450   -2.597385   -3.417454
     40          6           0       -5.962194   -3.180971   -1.655162
     41          6           0       -6.490936   -4.369921   -2.376312
     42          8           0       -7.382426   -4.392995   -3.189634
     43          8           0       -5.950559   -5.499175   -1.908705
     44          6           0       -6.447711   -6.788180   -2.527224
     45          1           0      -10.812943   -2.397992    3.169547
     46          1           0      -11.847469    3.591444    0.837028
     47          1           0       -6.832430    2.803543   -3.181161
     48          1           0       -8.423249   -4.842652   -0.145863
     49          1           0       -8.910713   -3.861163    2.615451
     50          1           0      -10.996932   -4.954894    2.630910
     51          1           0      -10.385492   -5.684362    1.052584
     52          1           0      -11.336206   -4.206415    1.142570
     53          1           0       -6.565381   -3.853396    2.044302
     54          1           0       -6.003164   -4.720475    0.618953
     55          1           0       -8.106149   -6.216746    2.149521
     56          1           0       -6.583037   -6.002232    2.992892
     57          1           0      -13.652335   -0.841447    3.888381
     58          1           0      -12.547715    0.067782    5.097802
     59          1           0      -12.082850   -1.461414    4.458478
     60          1           0      -14.824875    2.919347    4.539218
     61          1           0      -13.416642    2.098241    5.115764
     62          1           0      -14.671313    1.156795    4.263426
     63          1           0      -10.616825    5.118615   -0.761583
     64          1           0       -8.965868    4.440499   -2.967101
     65          1           0      -11.206663    3.309351   -3.154572
     66          1           0      -11.763860    4.981743   -2.837683
     67          1           0      -12.381362    3.656123   -1.841864
     68          1           0       -6.992221    4.795522   -1.158351
     69          1           0       -8.226933    5.111164   -0.089372
     70          1           0       -8.258970    7.175724   -0.675296
     71          1           0       -8.850303    6.689782   -2.225011
     72          1           0       -7.067791    6.917251   -2.050372
     73          1           0       -4.092042    1.240585   -3.659259
     74          1           0       -5.481041    1.774914   -4.687787
     75          1           0       -4.812083    0.195645   -4.839599
     76          1           0       -5.224176   -3.492385   -0.915582
     77          1           0       -7.536766   -6.761021   -2.484708
     78          1           0       -6.138087   -7.676846   -1.976595
     79          1           0       -6.092869   -6.819710   -3.557601
     80         12           0        8.412390    1.102426    0.379204
     81          6           0       10.557060   -1.705590    0.623025
     82          6           0        5.810486   -1.213015    0.083525
     83          6           0        6.270234    3.587134    0.249091
     84          6           0       11.183078    3.141830   -0.124829
     85          7           0        8.253878   -1.176969    0.395220
     86          6           0        9.220825   -2.101212    0.651965
     87          6           0        8.765067   -3.570459    0.653304
     88          6           0        7.203635   -3.316432    0.343191
     89          6           0        7.118000   -1.821155    0.259509
     90          6           0        6.695665   -3.957934   -1.008328
     91          6           0        9.005732   -4.284455    2.023309
     92          6           0       10.007630   -5.410531    2.246774
     93          1           0        9.714078   -6.549387    3.214417
     94          7           0        6.311145    1.209959    0.268516
     95          6           0        5.414444    0.148130    0.081388
     96          6           0        4.100665    0.721460   -0.107935
     97          6           0        4.176688    2.097131    0.095471
     98          6           0        5.620302    2.347994    0.272638
     99          6           0        2.935439   -0.199517   -0.234490
    100          6           0        3.109769    3.189765    0.036137
    101          8           0        3.326853    4.393240    0.206978
    102          6           0        1.705061    2.749494   -0.095851
    103          7           0        8.643921    3.082452   -0.000536
    104          6           0        7.637032    3.985110    0.202280
    105          6           0        8.204878    5.435717    0.365680
    106          6           0        9.699651    5.244610    0.143887
    107          6           0        9.871377    3.716964   -0.083559
    108          6           0        7.504819    6.488798   -0.554171
    109          6           0       10.474327    5.776541    1.359234
    110          6           0       11.689659    6.596251    1.119095
    111          7           0       10.456261    0.829574    0.160987
    112          6           0       11.466524    1.742154   -0.008928
    113          6           0       12.749295    1.105012   -0.024351
    114          6           0       12.503366   -0.311448    0.328930
    115          6           0       11.058939   -0.392757    0.432854
    116          6           0       14.096055    1.798341   -0.292445
    117          6           0       13.086808   -1.650873    0.593049
    118          8           0       14.272351   -1.995633    0.734448
    119          6           0       11.826820   -2.589080    0.797336
    120          6           0       12.068114   -3.585828   -0.292908
    121          8           0       11.736177   -3.523670   -1.470502
    122          8           0       12.606488   -4.674184    0.185108
    123          6           0       13.080854   -5.729340   -0.742911
    124          1           0        5.095011   -2.034175    0.158300
    125          1           0        5.676628    4.499541    0.165744
    126          1           0       12.043615    3.807722   -0.213079
    127          1           0        9.244504   -4.065042   -0.192390
    128          1           0        6.473820   -3.594749    1.104092
    129          1           0        7.453943   -4.271791   -1.725170
    130          1           0        6.068215   -3.245314   -1.542512
    131          1           0        6.084501   -4.827365   -0.765424
    132          1           0        8.047256   -4.713816    2.315436
    133          1           0        9.307524   -3.559189    2.777892
    134          1           0       10.809917   -4.861213    2.739622
    135          1           0       10.198419   -5.738937    1.225034
    136          1           0        2.222483   -0.067579    0.578214
    137          1           0        3.255635   -1.241698   -0.226001
    138          1           0        2.365528   -0.049859   -1.150998
    139          1           0        1.495851    1.976154    0.643365
    140          1           0        1.524059    2.205952   -1.023270
    141          1           0        0.969037    3.534004    0.077053
    142          1           0        7.946275    5.653467    1.401799
    143          1           0       10.054000    5.848277   -0.691486
    144          1           0        6.615721    6.117745   -1.063790
    145          1           0        8.145821    6.877779   -1.344449
    146          1           0        7.315008    7.401398    0.010646
    147          1           0       10.751956    4.859347    1.877069
    148          1           0        9.896212    6.420422    2.021574
    149          1           0       12.476438    6.085676    1.673931
    150          1           0       11.503223    7.635537    1.389526
    151          1           0       12.059358    6.580516    0.093599
    152          1           0       14.307217    1.760189   -1.360479
    153          1           0       14.862172    1.292457    0.294935
    154          1           0       14.073774    2.856565   -0.031208
    155          1           0       11.938118   -3.050484    1.778402
    156          1           0       12.296942   -6.155300   -1.368164
    157          1           0       13.605082   -6.550291   -0.254097
    158          1           0       13.850881   -5.443999   -1.459015
 ---------------------------------------------------------------------

 SCF Done:  E(RwB97XD) =  -4070.62774737     A.U. after   17 cycles

 Excitation energies and oscillator strengths:

 Excited State   1:      Singlet-A      1.5941 eV  777.79 nm  f=0.4476  <S**2>=0.000
     309 -> 316       -0.16479
     311 -> 313        0.68614
     309 <- 316       -0.11197
 This state for optimization and/or second-order correction.
 Total Energy, E(TD-HF/TD-DFT) =  -4070.56916682
 Copying the excited state density for this state as the 1-particle RhoCI density.

 Excited State   2:      Singlet-A      1.7258 eV  718.44 nm  f=0.3517  <S**2>=0.000
     310 -> 315        0.18573
     312 -> 314        0.67958
     310 <- 315        0.11148

 Excited State   3:      Singlet-A      2.1691 eV  571.58 nm  f=0.0866  <S**2>=0.000
     310 -> 314        0.63264
     312 -> 315       -0.29444

 Excited State   4:      Singlet-A      2.1939 eV  565.13 nm  f=0.1138  <S**2>=0.000
     309 -> 313        0.63595
     311 -> 316        0.28853

 Excited State   5:      Singlet-A      3.3464 eV  370.50 nm  f=0.0000  <S**2>=0.000
     312 -> 313        0.70666

 The electronic state is 1-A.
 Alpha  occ. eigenvalues --  -46.94817 -46.94083 -19.30415 -19.30415 -19.24775
 Alpha  occ. eigenvalues --  -19.24636 -19.23955 -19.23826 -19.23744 -19.23054
 Alpha  occ. eigenvalues --  -14.47573 -14.47113 -14.46585 -14.46435 -14.44404
 Alpha  occ. eigenvalues --  -14.43720 -14.43665 -14.43494 -10.42639 -10.42400
 Alpha  occ. eigenvalues --  -10.39963 -10.39383 -10.39360 -10.39287 -10.36367
 Alpha  occ. eigenvalues --  -10.36318 -10.35706 -10.35632 -10.35608 -10.35411
 Alpha  occ. eigenvalues --  -10.35222 -10.34842 -10.34818 -10.34772 -10.34434
 Alpha  occ. eigenvalues --  -10.34254 -10.33781 -10.33726 -10.33599 -10.33502
 Alpha  occ. eigenvalues --  -10.33259 -10.33253 -10.33054 -10.32919 -10.32895
 Alpha  occ. eigenvalues --  -10.32745 -10.32719 -10.32655 -10.32600 -10.32508
 Alpha  occ. eigenvalues --  -10.32428 -10.32326 -10.32155 -10.32106 -10.32089
 Alpha  occ. eigenvalues --  -10.32031 -10.31973 -10.31961 -10.31755 -10.31692
 Alpha  occ. eigenvalues --  -10.31622 -10.31581 -10.31398 -10.31342 -10.31007
 Alpha  occ. eigenvalues --  -10.30958 -10.30953 -10.30872 -10.30628 -10.30597
 Alpha  occ. eigenvalues --  -10.30380 -10.30360 -10.30330 -10.30271 -10.29851
 Alpha  occ. eigenvalues --  -10.29846 -10.29762 -10.29731 -10.29701 -10.29667
 Alpha  occ. eigenvalues --  -10.29646 -10.29402 -10.29348 -10.29086 -10.29039
 Alpha  occ. eigenvalues --  -10.28619  -3.20846  -3.20270  -1.94437  -1.93970
 Alpha  occ. eigenvalues --   -1.93869  -1.93823  -1.93414  -1.93244  -1.19899
 Alpha  occ. eigenvalues --   -1.19362  -1.13024  -1.12319  -1.10648  -1.10522
 Alpha  occ. eigenvalues --   -1.09614  -1.08583  -1.07754  -1.07432  -1.06170
 Alpha  occ. eigenvalues --   -1.06058  -1.05312  -1.04727  -1.04207  -1.03276
 Alpha  occ. eigenvalues --   -0.95611  -0.93716  -0.91429  -0.91139  -0.90903
 Alpha  occ. eigenvalues --   -0.90895  -0.90787  -0.90627  -0.90112  -0.89644
 Alpha  occ. eigenvalues --   -0.89347  -0.88707  -0.88627  -0.86986  -0.86520
 Alpha  occ. eigenvalues --   -0.86154  -0.86050  -0.85311  -0.84721  -0.84638
 Alpha  occ. eigenvalues --   -0.84609  -0.83722  -0.83407  -0.82794  -0.82708
 Alpha  occ. eigenvalues --   -0.82438  -0.80706  -0.80572  -0.79691  -0.79376
 Alpha  occ. eigenvalues --   -0.79361  -0.78706  -0.78379  -0.78038  -0.77353
 Alpha  occ. eigenvalues --   -0.77064  -0.75469  -0.74132  -0.74011  -0.73744
 Alpha  occ. eigenvalues --   -0.71664  -0.71180  -0.71166  -0.70402  -0.70073
 Alpha  occ. eigenvalues --   -0.69537  -0.68913  -0.68271  -0.68007  -0.67715
 Alpha  occ. eigenvalues --   -0.67149  -0.67081  -0.66872  -0.66817  -0.66386
 Alpha  occ. eigenvalues --   -0.66137  -0.64354  -0.64312  -0.62945  -0.62423
 Alpha  occ. eigenvalues --   -0.62264  -0.61423  -0.61368  -0.61103  -0.60883
 Alpha  occ. eigenvalues --   -0.60566  -0.60407  -0.60239  -0.59721  -0.59584
 Alpha  occ. eigenvalues --   -0.58762  -0.58682  -0.58250  -0.57490  -0.57238
 Alpha  occ. eigenvalues --   -0.56934  -0.56871  -0.56449  -0.56169  -0.56066
 Alpha  occ. eigenvalues --   -0.55710  -0.55594  -0.55541  -0.55487  -0.55034
 Alpha  occ. eigenvalues --   -0.54880  -0.54834  -0.54530  -0.54450  -0.54436
 Alpha  occ. eigenvalues --   -0.54006  -0.53958  -0.53818  -0.53492  -0.53300
 Alpha  occ. eigenvalues --   -0.52520  -0.52500  -0.52392  -0.52356  -0.52139
 Alpha  occ. eigenvalues --   -0.52071  -0.51912  -0.51911  -0.51802  -0.51620
 Alpha  occ. eigenvalues --   -0.51422  -0.51312  -0.51098  -0.50973  -0.50916
 Alpha  occ. eigenvalues --   -0.50543  -0.50393  -0.50372  -0.50193  -0.50052
 Alpha  occ. eigenvalues --   -0.49943  -0.49922  -0.49680  -0.49646  -0.49307
 Alpha  occ. eigenvalues --   -0.49275  -0.49041  -0.48688  -0.48638  -0.48500
 Alpha  occ. eigenvalues --   -0.48198  -0.48176  -0.48103  -0.47962  -0.47708
 Alpha  occ. eigenvalues --   -0.47680  -0.47462  -0.47460  -0.47331  -0.47005
 Alpha  occ. eigenvalues --   -0.46914  -0.46896  -0.46497  -0.46419  -0.46241
 Alpha  occ. eigenvalues --   -0.46141  -0.45922  -0.45888  -0.45872  -0.45722
 Alpha  occ. eigenvalues --   -0.45475  -0.45112  -0.45036  -0.44947  -0.44687
 Alpha  occ. eigenvalues --   -0.44220  -0.44117  -0.43919  -0.43917  -0.43782
 Alpha  occ. eigenvalues --   -0.43760  -0.43572  -0.43301  -0.43257  -0.43095
 Alpha  occ. eigenvalues --   -0.43040  -0.42777  -0.42646  -0.42499  -0.42283
 Alpha  occ. eigenvalues --   -0.42161  -0.41953  -0.41921  -0.41687  -0.41348
 Alpha  occ. eigenvalues --   -0.40506  -0.40301  -0.40295  -0.39812  -0.39612
 Alpha  occ. eigenvalues --   -0.39267  -0.39225  -0.38911  -0.38794  -0.38653
 Alpha  occ. eigenvalues --   -0.38313  -0.37727  -0.36486  -0.36363  -0.36238
 Alpha  occ. eigenvalues --   -0.35705  -0.35464  -0.35091  -0.34063  -0.33920
 Alpha  occ. eigenvalues --   -0.33774  -0.33574  -0.33048  -0.32624  -0.32551
 Alpha  occ. eigenvalues --   -0.32434  -0.31468  -0.30769  -0.26770  -0.25806
 Alpha  occ. eigenvalues --   -0.23152  -0.22954
 Alpha virt. eigenvalues --   -0.07661  -0.06798   0.00114   0.00140   0.01910
 Alpha virt. eigenvalues --    0.02204   0.04222   0.04252   0.05822   0.06129
 Alpha virt. eigenvalues --    0.07054   0.07747   0.07756   0.08137   0.08392

 Mulliken charges:
               1
     1  Mg   0.970930
     2  C   -0.006331
     3  C   -0.072297
     4  C   -0.076085
     5  C   -0.099327
     6  N   -0.340788
     7  C   -0.009721
     8  C   -0.021967
     9  C   -0.154017
    10  C    0.065644
    11  C    0.013262
    12  C   -0.006166
    13  C   -0.111366
    14  H    0.047738
    15  N   -0.435424
    16  C    0.162938
    17  C   -0.218119
    18  C   -0.077771
    19  C    0.134728
    20  C    0.083525
    21  C    0.066725
    22  O   -0.256112
    23  C   -0.006755
    24  N   -0.468576
    25  C    0.098864
    26  C   -0.069657
    27  C   -0.080585
    28  C    0.139966
    29  C    0.040688
    30  C   -0.043633
    31  C   -0.004008
    32  N   -0.427757
    33  C    0.106126
    34  C   -0.179289
    35  C    0.017094
    36  C    0.136941
    37  C    0.064791
    38  C    0.097754
    39  O   -0.193087
    40  C   -0.123246
    41  C    0.249257
    42  O   -0.246539
    43  O   -0.363252
    44  C    0.138952
    45  H   -0.003876
    46  H    0.020380
    47  H   -0.001654
    48  H    0.044657
    49  H    0.034696
    50  H    0.042542
    51  H    0.043615
    52  H    0.037942
    53  H    0.034940
    54  H    0.054000
    55  H    0.051472
    56  H    0.052796
    57  H    0.066224
    58  H    0.049710
    59  H    0.025792
    60  H    0.051743
    61  H    0.045863
    62  H    0.060926
    63  H    0.028491
    64  H    0.023417
    65  H    0.041902
    66  H    0.042634
    67  H    0.041694
    68  H    0.021923
    69  H    0.020557
    70  H    0.035641
    71  H    0.018086
    72  H    0.051648
    73  H    0.060331
    74  H    0.045887
    75  H    0.051553
    76  H    0.072278
    77  H    0.058445
    78  H    0.059946
    79  H    0.069752
    80  Mg   0.972876
    81  C    0.039560
    82  C   -0.094297
    83  C   -0.085001
    84  C   -0.089150
    85  N   -0.280183
    86  C   -0.033801
    87  C   -0.039317
    88  C   -0.125585
    89  C    0.009622
    90  C    0.001707
    91  C   -0.006475
    92  C   -0.125335
    93  H    0.045441
    94  N   -0.445387
    95  C    0.188966
    96  C   -0.134806
    97  C   -0.078528
    98  C    0.174098
    99  C    0.050044
   100  C    0.084286
   101  O   -0.233023
   102  C   -0.007037
   103  N   -0.424863
   104  C    0.030771
   105  C   -0.065444
   106  C   -0.064731
   107  C    0.113719
   108  C    0.012709
   109  C   -0.040637
   110  C   -0.047823
   111  N   -0.454925
   112  C    0.145702
   113  C   -0.199153
   114  C   -0.045507
   115  C    0.123187
   116  C    0.077734
   117  C    0.112793
   118  O   -0.226770
   119  C   -0.112759
   120  C    0.232899
   121  O   -0.268483
   122  O   -0.310224
   123  C    0.148255
   124  H    0.002332
   125  H    0.015753
   126  H   -0.006323
   127  H    0.060720
   128  H    0.045516
   129  H    0.052730
   130  H    0.038619
   131  H    0.037789
   132  H    0.038422
   133  H    0.032525
   134  H    0.061913
   135  H    0.051942
   136  H    0.054314
   137  H    0.036344
   138  H    0.050485
   139  H    0.039647
   140  H    0.050959
   141  H    0.060194
   142  H    0.053762
   143  H    0.031614
   144  H    0.057320
   145  H    0.025243
   146  H    0.034906
   147  H    0.036519
   148  H    0.031025
   149  H    0.037217
   150  H    0.043458
   151  H    0.025512
   152  H    0.056304
   153  H    0.061251
   154  H    0.025176
   155  H    0.075420
   156  H    0.050879
   157  H    0.052305
   158  H    0.053076
 Sum of Mulliken charges =  -0.00000

 Dipole moment (field-independent basis, Debye):
    X=             -5.4819    Y=             -2.2217    Z=              4.6941  Tot=              7.5512
 Quadrupole moment (field-independent basis, Debye-Ang):
   XX=           -613.2106   YY=           -463.0732   ZZ=           -509.5612
   XY=             45.0048   XZ=            -22.2696   YZ=            -23.9367

 Normal termination of Gaussian 16 at Mon Sep 20 04:17:17 2021.
