 Gaussian 16, Revision A.03,
 Gaussian 16:  ES64L-G16RevA.03 25-Dec-2016

 --------------------------------
 #p wB97XD/Def2SVP td=(nstates=5)
 --------------------------------

 --------------------------------
 TDDFT excited states in gaussian
 --------------------------------
 Symbolic Z-matrix:
 Charge =  0 Multiplicity = 1

                         Standard orientation:
 ---------------------------------------------------------------------
 Center     Atomic      Atomic             Coordinates (Angstroms)
 Number     Number       Type             X           Y           Z
 ---------------------------------------------------------------------
      1         12           0      -27.458355   -0.761292    0.041357
      2          6           0      -28.470023    2.531375    0.519157
      3          6           0      -24.765938    0.374967   -1.748243
      4          6           0      -26.699241   -4.008392   -0.661719
      5          6           0      -30.450228   -1.707460    1.710724
      6          7           0      -26.726232    1.211890   -0.574194
      7          6           0      -27.254102    2.401061   -0.145233
      8          6           0      -26.328172    3.500724   -0.670956
      9          6           0      -25.362561    2.809614   -1.617124
     10          6           0      -25.615009    1.349786   -1.257759
     11          6           0      -25.433889    3.085681   -3.095023
     12          6           0      -25.626919    4.406874    0.449483
     13          6           0      -24.517269    5.382600   -0.058735
     14          1           0      -24.925054    6.823347   -0.463736
     15          7           0      -25.859971   -1.661510   -0.929004
     16          6           0      -24.877899   -1.035403   -1.624036
     17          6           0      -24.057692   -2.068926   -2.200368
     18          6           0      -24.630560   -3.335899   -1.884438
     19          6           0      -25.784645   -3.056089   -1.154955
     20          6           0      -22.839024   -1.714369   -2.995298
     21          6           0      -24.150354   -4.721143   -2.407088
     22          8           0      -24.872657   -5.701590   -2.383214
     23          6           0      -22.871996   -4.933056   -3.066456
     24          7           0      -28.392419   -2.475565    0.453821
     25          6           0      -27.887818   -3.730033    0.112620
     26          6           0      -28.770614   -4.880267    0.627250
     27          6           0      -29.750937   -4.120890    1.584601
     28          6           0      -29.475733   -2.662897    1.255382
     29          6           0      -29.293579   -5.815363   -0.383200
     30          6           0      -29.722771   -4.447460    3.179181
     31          6           0      -30.976162   -4.964627    3.891500
     32          7           0      -29.217752    0.213024    0.922985
     33          6           0      -30.317917   -0.326202    1.528548
     34          6           0      -31.208117    0.689784    1.979642
     35          6           0      -30.471354    1.894698    1.663694
     36          6           0      -29.303222    1.527830    0.938408
     37          6           0      -32.480321    0.429819    2.692370
     38          6           0      -30.469819    3.328595    1.841319
     39          8           0      -31.192691    4.108595    2.429677
     40          6           0      -29.109835    3.802810    1.056867
     41          6           0      -29.391161    4.895714    0.091352
     42          8           0      -30.061714    4.754647   -0.907741
     43          8           0      -28.807535    6.055336    0.441349
     44          6           0      -28.805895    7.166946   -0.585529
     45          1           0      -23.877436    0.732108   -2.273620
     46          1           0      -26.436815   -5.039460   -0.906951
     47          1           0      -31.288489   -2.196028    2.212164
     48          1           0      -27.052772    4.109779   -1.211249
     49          1           0      -24.343233    3.104311   -1.368927
     50          1           0      -25.874961    2.145276   -3.424037
     51          1           0      -24.460836    3.321692   -3.526040
     52          1           0      -26.175124    3.846417   -3.340816
     53          1           0      -25.190972    3.648142    1.099733
     54          1           0      -26.380730    4.987776    0.979609
     55          1           0      -24.025415    5.001800   -0.952938
     56          1           0      -23.753164    5.449378    0.715712
     57          1           0      -22.545990   -0.665564   -3.051978
     58          1           0      -23.074963   -1.982913   -4.024483
     59          1           0      -21.966955   -2.312829   -2.731038
     60          1           0      -22.555235   -4.268621   -3.869720
     61          1           0      -22.691939   -5.946189   -3.425721
     62          1           0      -22.175459   -4.854921   -2.231954
     63          1           0      -28.011897   -5.379886    1.230223
     64          1           0      -30.690218   -4.362848    1.087559
     65          1           0      -28.953010   -6.849449   -0.323974
     66          1           0      -29.014814   -5.426072   -1.362756
     67          1           0      -30.377166   -5.931143   -0.363809
     68          1           0      -29.439137   -3.529030    3.692773
     69          1           0      -28.974577   -5.157654    3.533261
     70          1           0      -31.499336   -4.223635    4.496480
     71          1           0      -30.845651   -5.907800    4.421300
     72          1           0      -31.722561   -5.168085    3.123527
     73          1           0      -33.012396   -0.364458    2.169340
     74          1           0      -33.086264    1.327458    2.812615
     75          1           0      -32.230582   -0.089457    3.618178
     76          1           0      -28.468116    4.228512    1.827599
     77          1           0      -28.635011    8.046041    0.035424
     78          1           0      -29.774247    7.180543   -1.085333
     79          1           0      -27.948560    6.989245   -1.234925
     80         12           0       28.358027    0.548581    0.319539
     81          6           0       25.175087    0.856127   -1.164671
     82          6           0       26.782820    0.153242    3.314467
     83          6           0       31.342800   -0.497780    1.614803
     84          6           0       29.657853    0.470441   -2.997743
     85          7           0       26.173352    0.367560    0.980027
     86          6           0       25.042102    0.669130    0.277333
     87          6           0       23.764994    0.452497    1.107361
     88          6           0       24.439542    0.614633    2.556919
     89          6           0       25.899751    0.365236    2.271992
     90          6           0       24.225344    1.986943    3.250037
     91          6           0       23.098797   -0.986462    0.937193
     92          6           0       21.616536   -1.150726    1.235566
     93          1           0       21.106797   -1.946695    2.455863
     94          7           0       29.077073   -0.080088    2.246023
     95          6           0       28.267769   -0.025094    3.343393
     96          6           0       28.999781   -0.210161    4.517457
     97          6           0       30.367037   -0.381936    4.080098
     98          6           0       30.341954   -0.361583    2.590163
     99          6           0       28.417574   -0.189897    5.925659
    100          6           0       31.512886   -0.570936    5.048280
    101          8           0       31.286124   -0.572431    6.285733
    102          6           0       33.017314   -0.658665    4.610418
    103          7           0       30.166797    0.084808   -0.598519
    104          6           0       31.293146   -0.300581    0.177772
    105          6           0       32.541585   -0.221985   -0.656206
    106          6           0       32.032431   -0.263035   -2.113374
    107          6           0       30.555427    0.195733   -1.937761
    108          6           0       33.473219    1.004898   -0.532899
    109          6           0       32.078568   -1.754936   -2.739623
    110          6           0       33.384384   -2.249013   -3.343756
    111          7           0       27.573871    0.830791   -1.665410
    112          6           0       28.216854    0.781615   -2.893162
    113          6           0       27.327066    0.919274   -3.941826
    114          6           0       26.074325    1.011818   -3.311519
    115          6           0       26.284454    0.927155   -1.924814
    116          6           0       27.698439    0.949529   -5.390846
    117          6           0       24.745732    1.248976   -3.528365
    118          8           0       24.160178    1.551782   -4.549262
    119          6           0       24.086336    0.900363   -2.177407
    120          6           0       23.383131   -0.402294   -2.416923
    121          8           0       23.925441   -1.394947   -2.791907
    122          8           0       22.010092   -0.253891   -2.213004
    123          6           0       21.280242   -1.414339   -2.589372
    124          1           0       26.342920    0.229078    4.311297
    125          1           0       32.358186   -0.628975    1.995779
    126          1           0       30.145411    0.576455   -3.968853
    127          1           0       23.065802    1.283566    1.021103
    128          1           0       23.964373   -0.126044    3.199525
    129          1           0       23.397438    1.779542    3.928599
    130          1           0       23.909539    2.759625    2.549188
    131          1           0       25.097942    2.283180    3.832433
    132          1           0       23.569613   -1.704338    1.608890
    133          1           0       23.355187   -1.326166   -0.066520
    134          1           0       21.217756   -1.609010    0.329390
    135          1           0       21.188212   -0.150103    1.291563
    136          1           0       28.998130    0.236543    6.744397
    137          1           0       28.206546   -1.255191    6.016062
    138          1           0       27.535817    0.450326    5.953316
    139          1           0       33.310878    0.276320    4.133982
    140          1           0       33.012637   -1.521594    3.944798
    141          1           0       33.726418   -0.955885    5.382917
    142          1           0       33.092193   -1.142969   -0.467345
    143          1           0       32.592562    0.406113   -2.766618
    144          1           0       33.516270    1.644609   -1.414210
    145          1           0       34.367675    0.767553    0.043425
    146          1           0       32.956899    1.648843    0.178856
    147          1           0       31.302643   -1.659505   -3.498917
    148          1           0       31.772973   -2.495184   -1.999958
    149          1           0       33.640696   -3.211155   -2.901084
    150          1           0       34.174902   -1.530112   -3.126653
    151          1           0       33.285515   -2.423697   -4.415429
    152          1           0       27.035262    0.238905   -5.883261
    153          1           0       28.710992    0.587518   -5.573368
    154          1           0       27.549127    1.928398   -5.846826
    155          1           0       23.366432    1.683728   -1.942903
    156          1           0       20.953756   -1.320778   -3.624751
    157          1           0       20.320543   -1.508383   -2.079780
    158          1           0       21.867004   -2.325700   -2.487788
 ---------------------------------------------------------------------

 SCF Done:  E(RwB97XD) =  -4070.58742748     A.U. after   19 cycles

 Excitation energies and oscillator strengths:

 Excited State   1:      Singlet-A      1.6386 eV  756.64 nm  f=0.3982  <S**2>=0.000
     310 -> 316       -0.18456
     312 -> 314        0.68316
     310 <- 316       -0.11765
 This state for optimization and/or second-order correction.
 Total Energy, E(TD-HF/TD-DFT) =  -4070.52720971
 Copying the excited state density for this state as the 1-particle RhoCI density.

 Excited State   2:      Singlet-A      1.6461 eV  753.18 nm  f=0.4004  <S**2>=0.000
     309 -> 315       -0.19112
     311 -> 313        0.68015
     309 <- 315       -0.11792

 Excited State   3:      Singlet-A      2.0912 eV  592.89 nm  f=0.1262  <S**2>=0.000
     309 -> 313        0.64853
     311 -> 315        0.26307

 Excited State   4:      Singlet-A      2.1629 eV  573.24 nm  f=0.0918  <S**2>=0.000
     310 -> 314        0.63070
     312 -> 316        0.30290

 Excited State   5:      Singlet-A      3.1710 eV  390.99 nm  f=0.0098  <S**2>=0.000
     305 -> 313       -0.25977
     307 -> 313        0.61142
     307 -> 317       -0.13820

 The electronic state is 1-A.
 Alpha  occ. eigenvalues --  -46.96683 -46.94225 -19.30662 -19.29635 -19.25874
 Alpha  occ. eigenvalues --  -19.24106 -19.23719 -19.23198 -19.23196 -19.22953
 Alpha  occ. eigenvalues --  -14.47806 -14.47337 -14.47301 -14.46616 -14.44436
 Alpha  occ. eigenvalues --  -14.43846 -14.43688 -14.43024 -10.43590 -10.41796
 Alpha  occ. eigenvalues --  -10.39551 -10.39049 -10.38676 -10.37383 -10.36500
 Alpha  occ. eigenvalues --  -10.36395 -10.35858 -10.35717 -10.35664 -10.35138
 Alpha  occ. eigenvalues --  -10.35122 -10.35021 -10.34775 -10.34756 -10.34448
 Alpha  occ. eigenvalues --  -10.34315 -10.34007 -10.33863 -10.33746 -10.33598
 Alpha  occ. eigenvalues --  -10.33351 -10.33113 -10.32987 -10.32503 -10.32456
 Alpha  occ. eigenvalues --  -10.32401 -10.32397 -10.32206 -10.32178 -10.32137
 Alpha  occ. eigenvalues --  -10.32121 -10.32108 -10.32064 -10.31929 -10.31893
 Alpha  occ. eigenvalues --  -10.31739 -10.31677 -10.31631 -10.31578 -10.31558
 Alpha  occ. eigenvalues --  -10.31526 -10.31488 -10.31334 -10.31317 -10.31235
 Alpha  occ. eigenvalues --  -10.31197 -10.31134 -10.31005 -10.30968 -10.30954
 Alpha  occ. eigenvalues --  -10.30914 -10.30895 -10.30501 -10.30457 -10.30374
 Alpha  occ. eigenvalues --  -10.30258 -10.30128 -10.30016 -10.29991 -10.29821
 Alpha  occ. eigenvalues --  -10.29593 -10.29489 -10.29400 -10.29328 -10.29309
 Alpha  occ. eigenvalues --  -10.28223  -3.22453  -3.20302  -1.96033  -1.95563
 Alpha  occ. eigenvalues --   -1.95411  -1.93913  -1.93427  -1.93279  -1.19830
 Alpha  occ. eigenvalues --   -1.18014  -1.13198  -1.12293  -1.11772  -1.11737
 Alpha  occ. eigenvalues --   -1.09557  -1.08922  -1.07808  -1.07237  -1.06743
 Alpha  occ. eigenvalues --   -1.06131  -1.06008  -1.05339  -1.04416  -1.03934
 Alpha  occ. eigenvalues --   -0.96403  -0.94400  -0.91071  -0.90896  -0.90663
 Alpha  occ. eigenvalues --   -0.90588  -0.90579  -0.90279  -0.89554  -0.89498
 Alpha  occ. eigenvalues --   -0.89058  -0.88919  -0.88651  -0.87895  -0.86537
 Alpha  occ. eigenvalues --   -0.86331  -0.85604  -0.85561  -0.84865  -0.84563
 Alpha  occ. eigenvalues --   -0.84375  -0.83846  -0.83345  -0.82711  -0.82681
 Alpha  occ. eigenvalues --   -0.82331  -0.80765  -0.80049  -0.79718  -0.79337
 Alpha  occ. eigenvalues --   -0.79199  -0.78926  -0.77936  -0.77836  -0.77677
 Alpha  occ. eigenvalues --   -0.77099  -0.75638  -0.74773  -0.74271  -0.73799
 Alpha  occ. eigenvalues --   -0.71507  -0.71304  -0.70840  -0.70446  -0.70422
 Alpha  occ. eigenvalues --   -0.70232  -0.69194  -0.68936  -0.68284  -0.67542
 Alpha  occ. eigenvalues --   -0.67372  -0.67354  -0.66741  -0.66617  -0.66268
 Alpha  occ. eigenvalues --   -0.66208  -0.64837  -0.63424  -0.62535  -0.62533
 Alpha  occ. eigenvalues --   -0.62189  -0.61706  -0.61616  -0.61220  -0.61062
 Alpha  occ. eigenvalues --   -0.60965  -0.60819  -0.60116  -0.59968  -0.59233
 Alpha  occ. eigenvalues --   -0.58525  -0.58335  -0.57753  -0.57724  -0.57314
 Alpha  occ. eigenvalues --   -0.57292  -0.57107  -0.56719  -0.56490  -0.55839
 Alpha  occ. eigenvalues --   -0.55766  -0.55539  -0.55151  -0.55105  -0.54908
 Alpha  occ. eigenvalues --   -0.54766  -0.54556  -0.54543  -0.54247  -0.54232
 Alpha  occ. eigenvalues --   -0.54031  -0.53814  -0.53386  -0.53251  -0.53181
 Alpha  occ. eigenvalues --   -0.52917  -0.52820  -0.52770  -0.52576  -0.52455
 Alpha  occ. eigenvalues --   -0.52265  -0.52097  -0.51844  -0.51811  -0.51694
 Alpha  occ. eigenvalues --   -0.51384  -0.51366  -0.51259  -0.51049  -0.50963
 Alpha  occ. eigenvalues --   -0.50909  -0.50770  -0.50552  -0.50446  -0.50179
 Alpha  occ. eigenvalues --   -0.49901  -0.49649  -0.49376  -0.49307  -0.49186
 Alpha  occ. eigenvalues --   -0.49049  -0.48994  -0.48780  -0.48573  -0.48510
 Alpha  occ. eigenvalues --   -0.48504  -0.48374  -0.48286  -0.48176  -0.48021
 Alpha  occ. eigenvalues --   -0.48001  -0.47752  -0.47266  -0.47076  -0.47033
 Alpha  occ. eigenvalues --   -0.47027  -0.46740  -0.46695  -0.46543  -0.46328
 Alpha  occ. eigenvalues --   -0.46189  -0.45926  -0.45848  -0.45746  -0.45652
 Alpha  occ. eigenvalues --   -0.45315  -0.45283  -0.45201  -0.44926  -0.44794
 Alpha  occ. eigenvalues --   -0.44651  -0.44584  -0.44469  -0.44185  -0.43982
 Alpha  occ. eigenvalues --   -0.43730  -0.43480  -0.43466  -0.43322  -0.43220
 Alpha  occ. eigenvalues --   -0.43204  -0.42945  -0.42827  -0.42422  -0.42291
 Alpha  occ. eigenvalues --   -0.42231  -0.42106  -0.41444  -0.41390  -0.41189
 Alpha  occ. eigenvalues --   -0.40702  -0.40469  -0.39852  -0.39757  -0.39609
 Alpha  occ. eigenvalues --   -0.39213  -0.39163  -0.38930  -0.38895  -0.38662
 Alpha  occ. eigenvalues --   -0.38286  -0.38068  -0.37522  -0.37090  -0.36221
 Alpha  occ. eigenvalues --   -0.36043  -0.35701  -0.34973  -0.33685  -0.33260
 Alpha  occ. eigenvalues --   -0.33181  -0.32491  -0.32226  -0.32187  -0.32009
 Alpha  occ. eigenvalues --   -0.31905  -0.31667  -0.31219  -0.26265  -0.26126
 Alpha  occ. eigenvalues --   -0.23867  -0.22931
 Alpha virt. eigenvalues --   -0.07984  -0.07161  -0.00611   0.00035   0.01976
 Alpha virt. eigenvalues --    0.02676   0.04535   0.04668   0.04828   0.06476
 Alpha virt. eigenvalues --    0.06722   0.07338   0.07410   0.07927   0.07960

 Mulliken charges:
               1
     1  Mg   0.970065
     2  C    0.027069
     3  C   -0.088572
     4  C   -0.071919
     5  C   -0.105542
     6  N   -0.331720
     7  C   -0.006709
     8  C   -0.044253
     9  C   -0.151657
    10  C    0.059795
    11  C    0.050721
    12  C    0.000292
    13  C   -0.115535
    14  H    0.029163
    15  N   -0.488211
    16  C    0.172372
    17  C   -0.166706
    18  C   -0.057460
    19  C    0.126000
    20  C    0.053313
    21  C    0.071587
    22  O   -0.233727
    23  C   -0.004437
    24  N   -0.423008
    25  C    0.060800
    26  C   -0.086708
    27  C   -0.053579
    28  C    0.048600
    29  C    0.042970
    30  C   -0.002774
    31  C   -0.069047
    32  N   -0.373856
    33  C    0.159917
    34  C   -0.166762
    35  C   -0.076210
    36  C    0.113067
    37  C    0.102546
    38  C    0.145425
    39  O   -0.193124
    40  C   -0.138507
    41  C    0.241240
    42  O   -0.254358
    43  O   -0.372492
    44  C    0.133530
    45  H   -0.016234
    46  H    0.028699
    47  H    0.001714
    48  H    0.035362
    49  H    0.021845
    50  H    0.039179
    51  H    0.043593
    52  H    0.038594
    53  H    0.034488
    54  H    0.060891
    55  H    0.043699
    56  H    0.059106
    57  H    0.039661
    58  H    0.049895
    59  H    0.047164
    60  H    0.056561
    61  H    0.050138
    62  H    0.049733
    63  H    0.038398
    64  H    0.031807
    65  H    0.040574
    66  H    0.046741
    67  H    0.027944
    68  H    0.036104
    69  H    0.035528
    70  H    0.039396
    71  H    0.045772
    72  H    0.018536
    73  H    0.034822
    74  H    0.072758
    75  H    0.044358
    76  H    0.067398
    77  H    0.062664
    78  H    0.082015
    79  H    0.059497
    80  Mg   0.948253
    81  C    0.000540
    82  C   -0.064845
    83  C   -0.087446
    84  C   -0.085742
    85  N   -0.297862
    86  C   -0.038005
    87  C   -0.036714
    88  C   -0.151820
    89  C    0.082440
    90  C    0.029910
    91  C   -0.001010
    92  C   -0.097763
    93  H    0.043750
    94  N   -0.425972
    95  C    0.122636
    96  C   -0.157859
    97  C   -0.085137
    98  C    0.169063
    99  C    0.086350
   100  C    0.032031
   101  O   -0.271676
   102  C   -0.011385
   103  N   -0.428160
   104  C    0.087189
   105  C   -0.092077
   106  C   -0.113390
   107  C    0.082493
   108  C    0.055284
   109  C   -0.033199
   110  C   -0.022717
   111  N   -0.388451
   112  C    0.120715
   113  C   -0.174830
   114  C    0.038980
   115  C    0.121450
   116  C    0.098376
   117  C    0.025939
   118  O   -0.206364
   119  C   -0.074544
   120  C    0.254118
   121  O   -0.209740
   122  O   -0.358102
   123  C    0.118641
   124  H   -0.004347
   125  H   -0.015909
   126  H    0.009987
   127  H    0.028195
   128  H    0.041446
   129  H    0.039123
   130  H    0.042954
   131  H    0.043402
   132  H    0.044053
   133  H    0.047727
   134  H    0.049676
   135  H    0.043075
   136  H    0.069626
   137  H    0.065474
   138  H    0.029140
   139  H    0.067714
   140  H    0.050341
   141  H    0.051457
   142  H    0.031782
   143  H    0.027935
   144  H    0.049158
   145  H    0.044410
   146  H    0.015816
   147  H    0.024905
   148  H    0.036998
   149  H    0.036037
   150  H    0.032865
   151  H    0.043099
   152  H    0.055727
   153  H    0.023771
   154  H    0.063711
   155  H    0.047892
   156  H    0.048925
   157  H    0.048415
   158  H    0.062073
 Sum of Mulliken charges =  -0.00000

 Dipole moment (field-independent basis, Debye):
    X=              6.6576    Y=             -1.2473    Z=             -0.2378  Tot=              6.7776
 Quadrupole moment (field-independent basis, Debye-Ang):
   XX=           -665.5060   YY=           -508.0805   ZZ=           -542.5200
   XY=            105.0150   XZ=            -29.8484   YZ=            -10.8676

 Normal termination of Gaussian 16 at Mon Sep 20 02:56:15 2021.
