 Gaussian 16, Revision A.03,
 Gaussian 16:  ES64L-G16RevA.03 25-Dec-2016

 --------------------------------
 #p wB97XD/Def2SVP td=(nstates=5)
 --------------------------------

 --------------------------------
 TDDFT excited states in gaussian
 --------------------------------
 Symbolic Z-matrix:
 Charge =  0 Multiplicity = 1

                         Standard orientation:
 ---------------------------------------------------------------------
 Center     Atomic      Atomic             Coordinates (Angstroms)
 Number     Number       Type             X           Y           Z
 ---------------------------------------------------------------------
      1         12           0       -8.766412    0.336003    0.717744
      2          6           0       -8.381061   -2.042914   -1.854288
      3          6           0       -6.539232   -1.438683    2.488281
      4          6           0       -8.823561    2.853814    2.800525
      5          6           0      -10.521346    2.316798   -1.683739
      6          7           0       -7.569789   -1.509071    0.313950
      7          6           0       -7.604028   -2.368125   -0.732279
      8          6           0       -6.720034   -3.585161   -0.549591
      9          6           0       -6.379683   -3.449393    0.988803
     10          6           0       -6.829263   -2.044411    1.332509
     11          6           0       -7.063299   -4.532254    1.921766
     12          6           0       -5.412569   -3.811801   -1.427121
     13          6           0       -4.781911   -2.661335   -2.255862
     14          1           0       -3.216494   -2.645015   -2.423114
     15          7           0       -7.869759    0.560576    2.509674
     16          6           0       -6.915835   -0.200574    3.028997
     17          6           0       -6.409650    0.442030    4.272381
     18          6           0       -7.239143    1.668315    4.443610
     19          6           0       -8.016455    1.734322    3.205726
     20          6           0       -5.424121   -0.199347    5.211669
     21          6           0       -7.139907    2.646139    5.585124
     22          8           0       -6.368710    2.397558    6.508581
     23          6           0       -7.902217    4.019117    5.679718
     24          7           0       -9.492932    2.430562    0.544247
     25          6           0       -9.491641    3.101620    1.643702
     26          6           0      -10.311800    4.442927    1.384145
     27          6           0      -10.603166    4.313767   -0.112384
     28          6           0      -10.158760    2.910356   -0.476892
     29          6           0      -11.560134    4.734041    2.233665
     30          6           0       -9.708428    5.294031   -1.033924
     31          6           0      -10.460956    6.412229   -1.778230
     32          7           0       -9.303882    0.263659   -1.336564
     33          6           0      -10.099014    1.051168   -2.126575
     34          6           0      -10.459844    0.340099   -3.380464
     35          6           0       -9.694821   -0.860471   -3.389076
     36          6           0       -9.108262   -0.871494   -2.050138
     37          6           0      -11.301150    0.887793   -4.554923
     38          6           0       -9.310229   -2.035942   -4.096593
     39          8           0       -9.459968   -2.434006   -5.264515
     40          6           0       -8.496243   -2.903194   -3.102850
     41          6           0       -9.237267   -4.236749   -2.969319
     42          8           0       -9.009297   -5.341905   -3.384393
     43          8           0      -10.258096   -4.061950   -2.028643
     44          6           0      -11.055468   -5.266019   -1.638427
     45          1           0       -5.805918   -2.032041    3.038746
     46          1           0       -8.842684    3.651501    3.547073
     47          1           0      -11.271022    2.820357   -2.297048
     48          1           0       -7.395956   -4.432679   -0.661920
     49          1           0       -5.305944   -3.572879    1.130749
     50          1           0       -7.720775   -5.182860    1.346081
     51          1           0       -7.734514   -3.911667    2.514426
     52          1           0       -6.298298   -5.065511    2.486432
     53          1           0       -5.629548   -4.640287   -2.101509
     54          1           0       -4.622367   -4.201655   -0.784592
     55          1           0       -5.081235   -1.741611   -1.753206
     56          1           0       -5.036908   -2.690484   -3.314768
     57          1           0       -5.377725    0.287896    6.185374
     58          1           0       -4.483346   -0.270875    4.664557
     59          1           0       -5.762080   -1.234590    5.268628
     60          1           0       -8.984110    4.072974    5.552716
     61          1           0       -7.542536    4.658377    4.873438
     62          1           0       -7.738651    4.513033    6.637093
     63          1           0       -9.709445    5.325113    1.598336
     64          1           0      -11.617179    4.497177   -0.469389
     65          1           0      -11.736933    3.955136    2.975558
     66          1           0      -12.442017    4.894826    1.612654
     67          1           0      -11.472565    5.636179    2.839129
     68          1           0       -9.189384    4.746440   -1.819396
     69          1           0       -8.963817    5.722301   -0.362576
     70          1           0      -10.049462    6.690108   -2.748885
     71          1           0      -10.358409    7.293239   -1.144725
     72          1           0      -11.467542    6.007235   -1.883174
     73          1           0      -11.481911    1.961957   -4.531951
     74          1           0      -12.254515    0.368870   -4.458418
     75          1           0      -10.849537    0.542980   -5.484783
     76          1           0       -7.500616   -3.078313   -3.509139
     77          1           0      -11.198179   -6.057545   -2.373777
     78          1           0      -12.050011   -4.856187   -1.463309
     79          1           0      -10.808370   -5.773929   -0.705965
     80         12           0        8.842767    0.686210   -0.357465
     81          6           0        7.858280   -2.524858    0.649806
     82          6           0        5.515222    1.468660   -0.769071
     83          6           0        9.795684    3.691852   -1.332013
     84          6           0       12.185985   -0.343155   -0.031895
     85          7           0        6.956575   -0.416887    0.007071
     86          6           0        6.749353   -1.738640    0.402093
     87          6           0        5.255026   -2.040150    0.814088
     88          6           0        4.596125   -0.818385    0.203475
     89          6           0        5.760788    0.169945   -0.217843
     90          6           0        3.808795   -1.208001   -1.130529
     91          6           0        5.265179   -1.937327    2.403850
     92          6           0        4.422323   -3.023809    3.205879
     93          1           0        3.203009   -3.409987    2.408255
     94          7           0        7.823971    2.247703   -1.085299
     95          6           0        6.507044    2.400838   -1.191877
     96          6           0        6.138361    3.702924   -1.681083
     97          6           0        7.337386    4.442849   -1.686685
     98          6           0        8.426090    3.431580   -1.410262
     99          6           0        4.763582    4.158511   -2.008388
    100          6           0        7.572741    5.932533   -1.828516
    101          8           0        8.653707    6.469852   -1.561674
    102          6           0        6.480244    6.824579   -2.424584
    103          7           0       10.763306    1.526459   -0.685585
    104          6           0       10.821777    2.856244   -1.030124
    105          6           0       12.280602    3.304904   -0.976238
    106          6           0       13.076343    2.020759   -0.431190
    107          6           0       11.971492    1.004760   -0.307130
    108          6           0       12.708686    3.892581   -2.367283
    109          6           0       13.904356    2.208198    0.830425
    110          6           0       15.384112    1.732721    0.687541
    111          7           0        9.823323   -1.071651    0.170085
    112          6           0       11.223077   -1.356795    0.240909
    113          6           0       11.433157   -2.710498    0.612176
    114          6           0       10.123688   -3.190847    0.781841
    115          6           0        9.210147   -2.168675    0.450708
    116          6           0       12.696908   -3.475863    0.839303
    117          6           0        9.339477   -4.326433    1.148476
    118          8           0        9.628020   -5.458916    1.456648
    119          6           0        7.849325   -3.883209    1.176287
    120          6           0        7.034973   -4.886005    0.442674
    121          8           0        7.011026   -5.091987   -0.767463
    122          8           0        6.271646   -5.502322    1.350351
    123          6           0        5.321196   -6.476153    0.855722
    124          1           0        4.509034    1.890619   -0.810686
    125          1           0       10.045019    4.699818   -1.672984
    126          1           0       13.207732   -0.687118    0.142200
    127          1           0        5.077394   -3.065098    0.489934
    128          1           0        3.954649   -0.330686    0.936714
    129          1           0        3.905995   -2.265473   -1.377097
    130          1           0        4.211562   -0.613787   -1.950540
    131          1           0        2.777715   -0.924304   -0.919312
    132          1           0        4.886871   -0.985849    2.776405
    133          1           0        6.313711   -1.969568    2.701046
    134          1           0        3.956766   -2.575575    4.083706
    135          1           0        5.066359   -3.787336    3.642933
    136          1           0        4.499757    4.907624   -1.260602
    137          1           0        4.044498    3.344417   -1.928831
    138          1           0        4.678523    4.599022   -3.001329
    139          1           0        7.086464    7.682525   -2.714408
    140          1           0        5.678090    7.069137   -1.727277
    141          1           0        6.028519    6.502867   -3.362767
    142          1           0       12.497974    4.122674   -0.289202
    143          1           0       13.745782    1.674580   -1.218769
    144          1           0       13.242557    4.816153   -2.143175
    145          1           0       11.879345    4.046383   -3.057746
    146          1           0       13.534559    3.325572   -2.798477
    147          1           0       13.485205    1.732543    1.716529
    148          1           0       14.008330    3.290800    0.915652
    149          1           0       15.601159    1.452264   -0.343284
    150          1           0       15.553701    0.785610    1.199313
    151          1           0       16.082171    2.510182    0.998661
    152          1           0       13.015723   -3.075068    1.801897
    153          1           0       13.336658   -3.280050   -0.020926
    154          1           0       12.520107   -4.541138    0.980917
    155          1           0        7.578747   -3.997119    2.226855
    156          1           0        5.833205   -7.216838    0.240811
    157          1           0        4.539949   -6.106622    0.190636
    158          1           0        4.892414   -6.953309    1.737138
 ---------------------------------------------------------------------

 SCF Done:  E(RwB97XD) =  -4070.61750593     A.U. after   19 cycles

 Excitation energies and oscillator strengths:

 Excited State   1:      Singlet-A      1.6813 eV  737.41 nm  f=0.3809  <S**2>=0.000
     310 -> 316       -0.16563
     312 -> 314        0.68552
     310 <- 316       -0.10519
 This state for optimization and/or second-order correction.
 Total Energy, E(TD-HF/TD-DFT) =  -4070.55571798
 Copying the excited state density for this state as the 1-particle RhoCI density.

 Excited State   2:      Singlet-A      1.7170 eV  722.09 nm  f=0.3995  <S**2>=0.000
     309 -> 315        0.19055
     311 -> 313        0.68123
     309 <- 315        0.11524

 Excited State   3:      Singlet-A      2.2304 eV  555.88 nm  f=0.0772  <S**2>=0.000
     309 -> 313        0.57734
     310 -> 314        0.26525
     311 -> 315       -0.27168
     312 -> 316        0.11701

 Excited State   4:      Singlet-A      2.2351 eV  554.72 nm  f=0.1382  <S**2>=0.000
     309 -> 313       -0.26336
     310 -> 314        0.57717
     311 -> 315        0.12646
     312 -> 316        0.25903

 Excited State   5:      Singlet-A      3.3780 eV  367.03 nm  f=0.0000  <S**2>=0.000
     312 -> 313        0.70675

 The electronic state is 1-A.
 Alpha  occ. eigenvalues --  -46.96610 -46.94053 -19.30402 -19.30022 -19.25546
 Alpha  occ. eigenvalues --  -19.24956 -19.24786 -19.23780 -19.23674 -19.22322
 Alpha  occ. eigenvalues --  -14.47111 -14.46792 -14.46570 -14.46165 -14.45264
 Alpha  occ. eigenvalues --  -14.44914 -14.44795 -14.42966 -10.43938 -10.42089
 Alpha  occ. eigenvalues --  -10.40217 -10.39956 -10.39752 -10.37040 -10.35941
 Alpha  occ. eigenvalues --  -10.35782 -10.35779 -10.35343 -10.35325 -10.35089
 Alpha  occ. eigenvalues --  -10.35054 -10.34953 -10.34882 -10.34688 -10.34683
 Alpha  occ. eigenvalues --  -10.34619 -10.34398 -10.34373 -10.34266 -10.34016
 Alpha  occ. eigenvalues --  -10.33994 -10.33624 -10.33245 -10.33231 -10.33078
 Alpha  occ. eigenvalues --  -10.33057 -10.32927 -10.32803 -10.32447 -10.32330
 Alpha  occ. eigenvalues --  -10.32265 -10.32155 -10.32128 -10.32106 -10.31873
 Alpha  occ. eigenvalues --  -10.31750 -10.31743 -10.31619 -10.31570 -10.31552
 Alpha  occ. eigenvalues --  -10.31516 -10.31365 -10.31317 -10.31294 -10.31164
 Alpha  occ. eigenvalues --  -10.31063 -10.31047 -10.31042 -10.30630 -10.30626
 Alpha  occ. eigenvalues --  -10.30613 -10.30541 -10.30536 -10.30522 -10.30496
 Alpha  occ. eigenvalues --  -10.30186 -10.30106 -10.30083 -10.29893 -10.29841
 Alpha  occ. eigenvalues --  -10.29793 -10.29560 -10.29536 -10.29475 -10.29187
 Alpha  occ. eigenvalues --  -10.27482  -3.22538  -3.20171  -1.96115  -1.95659
 Alpha  occ. eigenvalues --   -1.95507  -1.93778  -1.93281  -1.93176  -1.19219
 Alpha  occ. eigenvalues --   -1.18408  -1.12572  -1.11942  -1.11812  -1.11478
 Alpha  occ. eigenvalues --   -1.09680  -1.09197  -1.08934  -1.07041  -1.07021
 Alpha  occ. eigenvalues --   -1.06257  -1.05838  -1.05526  -1.04855  -1.04296
 Alpha  occ. eigenvalues --   -0.95807  -0.94536  -0.91923  -0.91553  -0.90923
 Alpha  occ. eigenvalues --   -0.90684  -0.90397  -0.90355  -0.90230  -0.89837
 Alpha  occ. eigenvalues --   -0.89094  -0.88879  -0.88523  -0.87525  -0.87028
 Alpha  occ. eigenvalues --   -0.86022  -0.85820  -0.85366  -0.84984  -0.84202
 Alpha  occ. eigenvalues --   -0.83906  -0.83716  -0.83156  -0.82954  -0.82670
 Alpha  occ. eigenvalues --   -0.82258  -0.80849  -0.80666  -0.79816  -0.79279
 Alpha  occ. eigenvalues --   -0.79148  -0.78799  -0.78618  -0.77504  -0.77449
 Alpha  occ. eigenvalues --   -0.76854  -0.75531  -0.75024  -0.74572  -0.73329
 Alpha  occ. eigenvalues --   -0.71794  -0.71414  -0.71113  -0.70788  -0.70735
 Alpha  occ. eigenvalues --   -0.69708  -0.69552  -0.69275  -0.68976  -0.67846
 Alpha  occ. eigenvalues --   -0.67699  -0.67310  -0.67109  -0.67071  -0.66938
 Alpha  occ. eigenvalues --   -0.66428  -0.65354  -0.64377  -0.62784  -0.62768
 Alpha  occ. eigenvalues --   -0.62408  -0.61643  -0.61479  -0.61089  -0.60732
 Alpha  occ. eigenvalues --   -0.60543  -0.60289  -0.59650  -0.59430  -0.59220
 Alpha  occ. eigenvalues --   -0.58604  -0.58546  -0.58053  -0.57843  -0.57522
 Alpha  occ. eigenvalues --   -0.57244  -0.57233  -0.56683  -0.56309  -0.56098
 Alpha  occ. eigenvalues --   -0.55775  -0.55695  -0.55436  -0.55090  -0.55084
 Alpha  occ. eigenvalues --   -0.54902  -0.54493  -0.54421  -0.54159  -0.54002
 Alpha  occ. eigenvalues --   -0.53871  -0.53715  -0.53619  -0.53406  -0.53227
 Alpha  occ. eigenvalues --   -0.53159  -0.52962  -0.52717  -0.52630  -0.52283
 Alpha  occ. eigenvalues --   -0.52162  -0.52155  -0.51941  -0.51892  -0.51651
 Alpha  occ. eigenvalues --   -0.51488  -0.51184  -0.51143  -0.50986  -0.50664
 Alpha  occ. eigenvalues --   -0.50633  -0.50550  -0.50429  -0.50415  -0.50379
 Alpha  occ. eigenvalues --   -0.49990  -0.49749  -0.49719  -0.49566  -0.49502
 Alpha  occ. eigenvalues --   -0.49402  -0.49400  -0.49066  -0.49042  -0.48769
 Alpha  occ. eigenvalues --   -0.48590  -0.48440  -0.48401  -0.48253  -0.48229
 Alpha  occ. eigenvalues --   -0.48008  -0.47946  -0.47673  -0.47486  -0.47151
 Alpha  occ. eigenvalues --   -0.46986  -0.46875  -0.46567  -0.46421  -0.46328
 Alpha  occ. eigenvalues --   -0.46315  -0.46175  -0.46110  -0.45708  -0.45604
 Alpha  occ. eigenvalues --   -0.45543  -0.45449  -0.45273  -0.44928  -0.44840
 Alpha  occ. eigenvalues --   -0.44783  -0.44487  -0.44413  -0.44245  -0.44217
 Alpha  occ. eigenvalues --   -0.44193  -0.43805  -0.43562  -0.43489  -0.43301
 Alpha  occ. eigenvalues --   -0.43055  -0.42963  -0.42791  -0.42641  -0.42246
 Alpha  occ. eigenvalues --   -0.42070  -0.41921  -0.41565  -0.41346  -0.40965
 Alpha  occ. eigenvalues --   -0.40668  -0.40331  -0.40135  -0.39922  -0.39561
 Alpha  occ. eigenvalues --   -0.39306  -0.39103  -0.38872  -0.38830  -0.38503
 Alpha  occ. eigenvalues --   -0.38396  -0.38270  -0.37236  -0.36451  -0.36163
 Alpha  occ. eigenvalues --   -0.36056  -0.35819  -0.34905  -0.34286  -0.34251
 Alpha  occ. eigenvalues --   -0.33670  -0.33515  -0.33462  -0.33071  -0.33057
 Alpha  occ. eigenvalues --   -0.31626  -0.31617  -0.31245  -0.26619  -0.25990
 Alpha  occ. eigenvalues --   -0.23545  -0.22815
 Alpha virt. eigenvalues --   -0.07459  -0.06863  -0.00326   0.00293   0.01223
 Alpha virt. eigenvalues --    0.02598   0.03654   0.04338   0.05024   0.06520
 Alpha virt. eigenvalues --    0.06605   0.06980   0.07762   0.08175   0.08482

 Mulliken charges:
               1
     1  Mg   0.957643
     2  C   -0.036370
     3  C   -0.091865
     4  C   -0.036532
     5  C   -0.103676
     6  N   -0.340952
     7  C   -0.038192
     8  C    0.005313
     9  C   -0.158235
    10  C    0.057768
    11  C    0.033679
    12  C    0.002298
    13  C   -0.149554
    14  H    0.025448
    15  N   -0.475914
    16  C    0.164402
    17  C   -0.173929
    18  C   -0.081267
    19  C    0.167303
    20  C    0.085925
    21  C    0.055395
    22  O   -0.240464
    23  C   -0.027060
    24  N   -0.274001
    25  C    0.045686
    26  C   -0.055805
    27  C   -0.125936
    28  C    0.077381
    29  C    0.014221
    30  C   -0.041881
    31  C   -0.039865
    32  N   -0.402260
    33  C    0.126758
    34  C   -0.185872
    35  C   -0.008745
    36  C    0.160935
    37  C    0.075204
    38  C    0.093750
    39  O   -0.217565
    40  C   -0.083423
    41  C    0.279690
    42  O   -0.209143
    43  O   -0.398148
    44  C    0.134634
    45  H   -0.011270
    46  H   -0.053703
    47  H    0.002971
    48  H    0.041391
    49  H    0.036370
    50  H    0.035832
    51  H    0.038314
    52  H    0.054886
    53  H    0.045997
    54  H    0.044392
    55  H    0.072487
    56  H    0.074861
    57  H    0.077817
    58  H    0.039841
    59  H    0.037344
    60  H    0.056896
    61  H    0.056780
    62  H    0.052600
    63  H    0.035369
    64  H    0.023500
    65  H    0.033432
    66  H    0.036265
    67  H    0.027239
    68  H    0.043029
    69  H    0.024866
    70  H    0.043702
    71  H    0.037895
    72  H    0.028467
    73  H    0.042906
    74  H    0.055351
    75  H    0.069914
    76  H    0.068840
    77  H    0.066267
    78  H    0.045022
    79  H    0.047350
    80  Mg   0.983742
    81  C    0.006690
    82  C   -0.113373
    83  C   -0.076041
    84  C   -0.074247
    85  N   -0.350879
    86  C   -0.049186
    87  C   -0.050272
    88  C   -0.097979
    89  C    0.098154
    90  C    0.023221
    91  C    0.001652
    92  C   -0.114717
    93  H    0.031000
    94  N   -0.466411
    95  C    0.154105
    96  C   -0.174122
    97  C   -0.070282
    98  C    0.138052
    99  C    0.077771
   100  C    0.062805
   101  O   -0.243585
   102  C   -0.045549
   103  N   -0.389991
   104  C    0.116360
   105  C   -0.106933
   106  C   -0.048744
   107  C    0.073238
   108  C    0.009963
   109  C    0.001478
   110  C   -0.071370
   111  N   -0.414113
   112  C    0.082178
   113  C   -0.193401
   114  C   -0.037984
   115  C    0.139103
   116  C    0.088159
   117  C    0.083155
   118  O   -0.205496
   119  C   -0.074127
   120  C    0.226174
   121  O   -0.256744
   122  O   -0.333964
   123  C    0.142587
   124  H    0.000252
   125  H    0.028347
   126  H   -0.008139
   127  H    0.049599
   128  H    0.040299
   129  H    0.051869
   130  H    0.043764
   131  H    0.040343
   132  H    0.031351
   133  H    0.043417
   134  H    0.043040
   135  H    0.062618
   136  H    0.053302
   137  H    0.041308
   138  H    0.058464
   139  H    0.058463
   140  H    0.065525
   141  H    0.052906
   142  H    0.043202
   143  H    0.032340
   144  H    0.027576
   145  H    0.060879
   146  H    0.025897
   147  H    0.049365
   148  H    0.028113
   149  H    0.020835
   150  H    0.037389
   151  H    0.045693
   152  H    0.054187
   153  H    0.052838
   154  H    0.061421
   155  H    0.066983
   156  H    0.054756
   157  H    0.045030
   158  H    0.056693
 Sum of Mulliken charges =  -0.00000

 Dipole moment (field-independent basis, Debye):
    X=             -6.6990    Y=              6.8717    Z=              2.2731  Tot=              9.8623
 Quadrupole moment (field-independent basis, Debye-Ang):
   XX=           -459.0880   YY=           -519.3996   ZZ=           -559.8986
   XY=             10.5084   XZ=            -20.2316   YZ=            -36.3329

 Normal termination of Gaussian 16 at Sun Sep 19 17:15:29 2021.
