 Gaussian 16, Revision A.03,
 Gaussian 16:  ES64L-G16RevA.03 25-Dec-2016

 --------------------------------
 #p wB97XD/Def2SVP td=(nstates=5)
 --------------------------------

 --------------------------------
 TDDFT excited states in gaussian
 --------------------------------
 Symbolic Z-matrix:
 Charge =  0 Multiplicity = 1

                         Standard orientation:
 ---------------------------------------------------------------------
 Center     Atomic      Atomic             Coordinates (Angstroms)
 Number     Number       Type             X           Y           Z
 ---------------------------------------------------------------------
      1         12           0       32.276169   -0.038102   -0.436415
      2          6           0       29.470015   -0.688367    1.912238
      3          6           0       32.954140    2.562541    1.613200
      4          6           0       34.451122    0.590823   -2.654896
      5          6           0       30.656468   -2.329736   -2.627055
      6          7           0       31.275439    0.829879    1.484426
      7          6           0       30.303160    0.294286    2.312065
      8          6           0       30.192916    0.966253    3.685501
      9          6           0       30.991375    2.269592    3.373869
     10          6           0       31.806628    1.907976    2.072482
     11          6           0       30.157834    3.496756    3.178460
     12          6           0       30.681668    0.144978    4.925475
     13          6           0       30.015489    0.390968    6.237884
     14          1           0       30.932382    0.334004    7.455618
     15          7           0       33.609296    1.390579   -0.509404
     16          6           0       33.804604    2.382251    0.474598
     17          6           0       35.005901    3.093075    0.143719
     18          6           0       35.515646    2.389049   -1.032365
     19          6           0       34.529846    1.441159   -1.408571
     20          6           0       35.656277    4.227424    1.018996
     21          6           0       36.832595    2.654940   -1.695137
     22          8           0       37.184673    2.057216   -2.741163
     23          6           0       37.842288    3.597770   -1.149988
     24          7           0       32.473556   -0.608546   -2.417743
     25          6           0       33.508946   -0.220545   -3.164985
     26          6           0       33.541295   -0.866200   -4.587360
     27          6           0       32.587435   -2.088497   -4.315136
     28          6           0       31.805321   -1.641399   -3.049857
     29          6           0       32.961000    0.085783   -5.682251
     30          6           0       33.389426   -3.423977   -4.015113
     31          6           0       34.460318   -3.906424   -5.016028
     32          7           0       30.477095   -1.299508   -0.385318
     33          6           0       30.024889   -2.206273   -1.337168
     34          6           0       28.796992   -2.815154   -0.881918
     35          6           0       28.567625   -2.281064    0.392500
     36          6           0       29.562761   -1.294210    0.632921
     37          6           0       28.031048   -3.901250   -1.559456
     38          6           0       27.667571   -2.331130    1.537182
     39          8           0       26.684585   -3.004678    1.816513
     40          6           0       28.344784   -1.316121    2.596681
     41          6           0       27.278349   -0.424797    3.019727
     42          8           0       26.645069    0.370241    2.307581
     43          8           0       26.784326   -0.900409    4.200511
     44          6           0       25.674573   -0.241786    4.811352
     45          1           0       33.202858    3.287434    2.391326
     46          1           0       35.183118    0.772396   -3.444386
     47          1           0       30.215394   -3.034266   -3.335796
     48          1           0       29.143478    1.222541    3.832308
     49          1           0       31.769244    2.429053    4.120004
     50          1           0       30.164569    3.717972    2.111145
     51          1           0       30.630227    4.344107    3.675183
     52          1           0       29.116915    3.450553    3.497939
     53          1           0       31.728096    0.405590    5.081551
     54          1           0       30.650636   -0.908251    4.647758
     55          1           0       29.284354   -0.414383    6.305328
     56          1           0       29.346634    1.251400    6.213837
     57          1           0       36.553486    3.941894    1.567370
     58          1           0       34.926158    4.679526    1.689752
     59          1           0       35.889595    4.972885    0.257750
     60          1           0       37.504765    4.614275   -1.353830
     61          1           0       38.764162    3.384547   -1.691770
     62          1           0       37.965444    3.343374   -0.097794
     63          1           0       34.587467   -1.106375   -4.779912
     64          1           0       31.856153   -2.299729   -5.094745
     65          1           0       33.797638    0.359078   -6.325733
     66          1           0       32.426456    0.962106   -5.317051
     67          1           0       32.289236   -0.586146   -6.218311
     68          1           0       32.679828   -4.250334   -3.981371
     69          1           0       33.776735   -3.319907   -3.001729
     70          1           0       35.379917   -3.952529   -4.432858
     71          1           0       34.527630   -3.095770   -5.742135
     72          1           0       34.234377   -4.888307   -5.431637
     73          1           0       28.711293   -4.269902   -2.327565
     74          1           0       27.161977   -3.420211   -2.008162
     75          1           0       27.662634   -4.674048   -0.884827
     76          1           0       28.737783   -1.880941    3.441844
     77          1           0       25.358948    0.632330    4.241363
     78          1           0       26.049025    0.105952    5.774223
     79          1           0       24.874899   -0.944440    5.041292
     80         12           0      -32.037234    0.597249    0.400780
     81          6           0      -29.562989   -1.899788   -0.206353
     82          6           0      -30.027783    2.688647   -1.211718
     83          6           0      -34.645938    2.710987    0.015718
     84          6           0      -34.218819   -2.116384    1.160439
     85          7           0      -30.051834    0.448404   -0.452261
     86          6           0      -29.157110   -0.641019   -0.527352
     87          6           0      -27.803755   -0.277250   -1.215432
     88          6           0      -27.994595    1.244793   -1.470319
     89          6           0      -29.415311    1.522169   -0.934978
     90          6           0      -26.832974    1.977459   -0.778544
     91          6           0      -27.414795   -1.064582   -2.540446
     92          6           0      -26.193627   -1.973700   -2.464453
     93          1           0      -25.060431   -1.727190   -3.481296
     94          7           0      -32.305173    2.442750   -0.366376
     95          6           0      -31.305138    3.161116   -1.021467
     96          6           0      -31.748717    4.461873   -1.322990
     97          6           0      -33.043945    4.591664   -0.856786
     98          6           0      -33.414573    3.270325   -0.391957
     99          6           0      -30.964156    5.634683   -2.020029
    100          6           0      -33.818197    5.887061   -0.925870
    101          8           0      -33.352267    6.930905   -1.274372
    102          6           0      -35.319372    5.825599   -0.354571
    103          7           0      -34.144328    0.335954    0.490231
    104          6           0      -34.997284    1.393419    0.328071
    105          6           0      -36.468583    0.809630    0.370148
    106          6           0      -36.371147   -0.649085    0.847095
    107          6           0      -34.808181   -0.851784    0.821674
    108          6           0      -37.470809    1.670707    1.085044
    109          6           0      -37.015037   -1.565351   -0.186013
    110          6           0      -37.492701   -2.912374    0.287639
    111          7           0      -31.883165   -1.556807    0.714631
    112          6           0      -32.839368   -2.488913    1.040313
    113          6           0      -32.247948   -3.769694    1.181478
    114          6           0      -30.899300   -3.639167    0.773643
    115          6           0      -30.789004   -2.273431    0.387668
    116          6           0      -32.921583   -5.040482    1.513243
    117          6           0      -29.596617   -4.267085    0.514523
    118          8           0      -29.245705   -5.434726    0.731306
    119          6           0      -28.650796   -3.171149   -0.110776
    120          6           0      -27.614112   -2.848654    0.833125
    121          8           0      -27.852863   -2.144204    1.842442
    122          8           0      -26.490654   -3.469365    0.422762
    123          6           0      -25.209150   -3.150456    1.109831
    124          1           0      -29.376589    3.414358   -1.704100
    125          1           0      -35.453144    3.442824   -0.058572
    126          1           0      -34.811077   -2.965754    1.506274
    127          1           0      -26.983795   -0.421627   -0.511993
    128          1           0      -28.004032    1.511497   -2.526709
    129          1           0      -27.063302    3.041590   -0.821445
    130          1           0      -25.846619    1.828719   -1.217749
    131          1           0      -26.729068    1.694454    0.269538
    132          1           0      -27.098569   -0.277862   -3.225442
    133          1           0      -28.285591   -1.589680   -2.933134
    134          1           0      -26.549360   -3.000471   -2.556484
    135          1           0      -25.720635   -1.855534   -1.488921
    136          1           0      -31.594595    5.955514   -2.849567
    137          1           0      -29.998606    5.307434   -2.405359
    138          1           0      -30.663368    6.457467   -1.371502
    139          1           0      -35.680800    6.853349   -0.372053
    140          1           0      -35.182777    5.404609    0.641810
    141          1           0      -35.798672    5.146465   -1.059595
    142          1           0      -36.767423    0.820433   -0.678624
    143          1           0      -36.805571   -0.879182    1.819893
    144          1           0      -38.237504    1.022452    1.508484
    145          1           0      -37.877558    2.343155    0.329487
    146          1           0      -37.039757    2.348912    1.820553
    147          1           0      -36.381272   -1.742081   -1.055525
    148          1           0      -37.865345   -1.094787   -0.679578
    149          1           0      -37.497335   -3.003542    1.373657
    150          1           0      -36.821246   -3.665932   -0.124447
    151          1           0      -38.440365   -3.173223   -0.183420
    152          1           0      -33.806796   -4.878767    2.129160
    153          1           0      -32.181353   -5.628060    2.056842
    154          1           0      -33.231462   -5.460970    0.556274
    155          1           0      -28.282547   -3.401901   -1.110411
    156          1           0      -24.713570   -4.120113    1.043548
    157          1           0      -25.331002   -2.780637    2.127486
    158          1           0      -24.564480   -2.530799    0.485601
 ---------------------------------------------------------------------

 SCF Done:  E(RwB97XD) =  -4070.60749320     A.U. after   19 cycles

 Excitation energies and oscillator strengths:

 Excited State   1:      Singlet-A      1.6008 eV  774.49 nm  f=0.3876  <S**2>=0.000
     310 -> 316       -0.16172
     311 -> 313        0.68932
     310 <- 316       -0.11300
 This state for optimization and/or second-order correction.
 Total Energy, E(TD-HF/TD-DFT) =  -4070.54866307
 Copying the excited state density for this state as the 1-particle RhoCI density.

 Excited State   2:      Singlet-A      1.6723 eV  741.40 nm  f=0.3877  <S**2>=0.000
     309 -> 315        0.17577
     312 -> 314        0.68537
     309 <- 315        0.11222

 Excited State   3:      Singlet-A      2.1247 eV  583.55 nm  f=0.2115  <S**2>=0.000
     310 -> 313        0.66538
     311 -> 316        0.22068

 Excited State   4:      Singlet-A      2.2042 eV  562.48 nm  f=0.1140  <S**2>=0.000
     309 -> 314        0.63536
     312 -> 315       -0.29116

 Excited State   5:      Singlet-A      3.1834 eV  389.47 nm  f=0.0051  <S**2>=0.000
     305 -> 313       -0.18197
     306 -> 313        0.66085

 The electronic state is 1-A.
 Alpha  occ. eigenvalues --  -46.95247 -46.94869 -19.31700 -19.30062 -19.25004
 Alpha  occ. eigenvalues --  -19.24700 -19.24585 -19.24410 -19.23770 -19.22452
 Alpha  occ. eigenvalues --  -14.47181 -14.46945 -14.46778 -14.46008 -14.44285
 Alpha  occ. eigenvalues --  -14.44205 -14.44171 -14.43040 -10.43326 -10.43026
 Alpha  occ. eigenvalues --  -10.40062 -10.39481 -10.39402 -10.37932 -10.36576
 Alpha  occ. eigenvalues --  -10.35708 -10.35510 -10.35465 -10.35101 -10.34862
 Alpha  occ. eigenvalues --  -10.34802 -10.34783 -10.34700 -10.34606 -10.34517
 Alpha  occ. eigenvalues --  -10.34490 -10.34454 -10.33851 -10.33698 -10.33216
 Alpha  occ. eigenvalues --  -10.33126 -10.33005 -10.32922 -10.32636 -10.32413
 Alpha  occ. eigenvalues --  -10.32413 -10.32402 -10.32278 -10.32198 -10.32190
 Alpha  occ. eigenvalues --  -10.32172 -10.32068 -10.32051 -10.32007 -10.31970
 Alpha  occ. eigenvalues --  -10.31968 -10.31802 -10.31714 -10.31644 -10.31549
 Alpha  occ. eigenvalues --  -10.31422 -10.31334 -10.31281 -10.31133 -10.31060
 Alpha  occ. eigenvalues --  -10.31001 -10.30988 -10.30965 -10.30778 -10.30332
 Alpha  occ. eigenvalues --  -10.30324 -10.30273 -10.30244 -10.30097 -10.30054
 Alpha  occ. eigenvalues --  -10.29791 -10.29693 -10.29654 -10.29650 -10.29628
 Alpha  occ. eigenvalues --  -10.29567 -10.29443 -10.29384 -10.29263 -10.28972
 Alpha  occ. eigenvalues --  -10.28853  -3.21349  -3.20908  -1.94907  -1.94474
 Alpha  occ. eigenvalues --   -1.94471  -1.94335  -1.94012  -1.93901  -1.18802
 Alpha  occ. eigenvalues --   -1.18747  -1.14229  -1.12523  -1.10873  -1.09644
 Alpha  occ. eigenvalues --   -1.09552  -1.09238  -1.06936  -1.06151  -1.06065
 Alpha  occ. eigenvalues --   -1.05673  -1.05238  -1.04844  -1.04604  -1.03758
 Alpha  occ. eigenvalues --   -0.95720  -0.94160  -0.91513  -0.91425  -0.91209
 Alpha  occ. eigenvalues --   -0.90688  -0.90680  -0.89965  -0.89400  -0.89285
 Alpha  occ. eigenvalues --   -0.88797  -0.88630  -0.88419  -0.88189  -0.86716
 Alpha  occ. eigenvalues --   -0.86641  -0.86123  -0.85987  -0.85184  -0.85033
 Alpha  occ. eigenvalues --   -0.84028  -0.83832  -0.83103  -0.83042  -0.82789
 Alpha  occ. eigenvalues --   -0.82259  -0.80518  -0.79647  -0.79428  -0.79332
 Alpha  occ. eigenvalues --   -0.79225  -0.78610  -0.78180  -0.78163  -0.77392
 Alpha  occ. eigenvalues --   -0.77096  -0.75371  -0.74726  -0.73706  -0.72908
 Alpha  occ. eigenvalues --   -0.71242  -0.71223  -0.70602  -0.70515  -0.70186
 Alpha  occ. eigenvalues --   -0.69712  -0.69236  -0.68923  -0.67664  -0.67651
 Alpha  occ. eigenvalues --   -0.67493  -0.67094  -0.67002  -0.66907  -0.66559
 Alpha  occ. eigenvalues --   -0.66469  -0.64211  -0.64061  -0.62744  -0.62183
 Alpha  occ. eigenvalues --   -0.61793  -0.61608  -0.61508  -0.61384  -0.60850
 Alpha  occ. eigenvalues --   -0.60456  -0.60398  -0.60191  -0.59708  -0.59142
 Alpha  occ. eigenvalues --   -0.58376  -0.57988  -0.57866  -0.57614  -0.56962
 Alpha  occ. eigenvalues --   -0.56870  -0.56624  -0.56618  -0.56198  -0.56107
 Alpha  occ. eigenvalues --   -0.55767  -0.55673  -0.55193  -0.55097  -0.54820
 Alpha  occ. eigenvalues --   -0.54782  -0.54477  -0.54425  -0.54361  -0.54355
 Alpha  occ. eigenvalues --   -0.53707  -0.53626  -0.53389  -0.53357  -0.53194
 Alpha  occ. eigenvalues --   -0.53140  -0.52944  -0.52449  -0.52267  -0.52228
 Alpha  occ. eigenvalues --   -0.52076  -0.51929  -0.51852  -0.51828  -0.51747
 Alpha  occ. eigenvalues --   -0.51647  -0.51459  -0.51167  -0.51165  -0.50880
 Alpha  occ. eigenvalues --   -0.50660  -0.50382  -0.50263  -0.50160  -0.50081
 Alpha  occ. eigenvalues --   -0.49967  -0.49794  -0.49525  -0.49456  -0.49412
 Alpha  occ. eigenvalues --   -0.49178  -0.48889  -0.48461  -0.48363  -0.48362
 Alpha  occ. eigenvalues --   -0.48235  -0.48152  -0.48026  -0.47904  -0.47572
 Alpha  occ. eigenvalues --   -0.47387  -0.47239  -0.47049  -0.47044  -0.46929
 Alpha  occ. eigenvalues --   -0.46879  -0.46750  -0.46678  -0.46303  -0.46238
 Alpha  occ. eigenvalues --   -0.46065  -0.45928  -0.45740  -0.45677  -0.45434
 Alpha  occ. eigenvalues --   -0.45245  -0.45189  -0.45068  -0.44986  -0.44771
 Alpha  occ. eigenvalues --   -0.44711  -0.44604  -0.44511  -0.44223  -0.44044
 Alpha  occ. eigenvalues --   -0.43922  -0.43829  -0.43611  -0.43575  -0.43548
 Alpha  occ. eigenvalues --   -0.43247  -0.42663  -0.42595  -0.42504  -0.42103
 Alpha  occ. eigenvalues --   -0.41995  -0.41752  -0.41381  -0.41241  -0.41087
 Alpha  occ. eigenvalues --   -0.40484  -0.40385  -0.40173  -0.40120  -0.39697
 Alpha  occ. eigenvalues --   -0.39572  -0.39243  -0.39240  -0.38767  -0.38413
 Alpha  occ. eigenvalues --   -0.37930  -0.37869  -0.36633  -0.36282  -0.36229
 Alpha  occ. eigenvalues --   -0.36139  -0.35406  -0.35192  -0.34018  -0.33791
 Alpha  occ. eigenvalues --   -0.33452  -0.32981  -0.32731  -0.32659  -0.32254
 Alpha  occ. eigenvalues --   -0.32082  -0.31777  -0.31058  -0.26206  -0.26184
 Alpha  occ. eigenvalues --   -0.23558  -0.23062
 Alpha virt. eigenvalues --   -0.08034  -0.07089   0.00230   0.01131   0.02348
 Alpha virt. eigenvalues --    0.02659   0.04271   0.04792   0.04933   0.05450
 Alpha virt. eigenvalues --    0.06093   0.06764   0.07230   0.07637   0.08104

 Mulliken charges:
               1
     1  Mg   0.983406
     2  C   -0.013857
     3  C   -0.066083
     4  C   -0.042898
     5  C   -0.083027
     6  N   -0.296741
     7  C   -0.036466
     8  C   -0.084000
     9  C   -0.102282
    10  C   -0.016759
    11  C    0.047884
    12  C    0.043046
    13  C   -0.116509
    14  H    0.053892
    15  N   -0.496891
    16  C    0.190425
    17  C   -0.170689
    18  C   -0.082111
    19  C    0.148205
    20  C    0.071581
    21  C    0.008531
    22  O   -0.274930
    23  C    0.010150
    24  N   -0.391697
    25  C    0.045101
    26  C   -0.110520
    27  C   -0.102285
    28  C    0.088817
    29  C    0.051771
    30  C   -0.033957
    31  C   -0.032732
    32  N   -0.400040
    33  C    0.123262
    34  C   -0.202618
    35  C   -0.040067
    36  C    0.129486
    37  C    0.087855
    38  C    0.156509
    39  O   -0.192265
    40  C   -0.060157
    41  C    0.245685
    42  O   -0.268778
    43  O   -0.350398
    44  C    0.133675
    45  H   -0.007689
    46  H    0.013683
    47  H    0.005014
    48  H    0.033309
    49  H    0.025421
    50  H    0.044484
    51  H    0.034254
    52  H    0.048404
    53  H    0.032043
    54  H    0.031267
    55  H    0.048004
    56  H    0.042912
    57  H    0.068055
    58  H    0.040300
    59  H    0.043110
    60  H    0.063918
    61  H    0.055069
    62  H    0.045449
    63  H    0.047075
    64  H    0.025413
    65  H    0.046376
    66  H    0.060246
    67  H    0.027962
    68  H    0.024666
    69  H    0.033430
    70  H    0.042568
    71  H    0.036211
    72  H    0.048613
    73  H    0.031192
    74  H    0.060010
    75  H    0.065024
    76  H    0.071931
    77  H    0.066060
    78  H    0.033739
    79  H    0.061952
    80  Mg   0.984373
    81  C   -0.043571
    82  C   -0.132098
    83  C   -0.102502
    84  C   -0.063494
    85  N   -0.377830
    86  C    0.011582
    87  C   -0.047309
    88  C   -0.123617
    89  C    0.121236
    90  C    0.014130
    91  C    0.012104
    92  C   -0.135537
    93  H    0.033933
    94  N   -0.504902
    95  C    0.212659
    96  C   -0.172229
    97  C   -0.054806
    98  C    0.150086
    99  C    0.105918
   100  C    0.008172
   101  O   -0.195261
   102  C   -0.027817
   103  N   -0.393302
   104  C    0.110560
   105  C   -0.081204
   106  C   -0.082638
   107  C    0.108130
   108  C    0.029358
   109  C   -0.045200
   110  C   -0.025661
   111  N   -0.385584
   112  C    0.093615
   113  C   -0.223082
   114  C    0.000617
   115  C    0.116329
   116  C    0.079618
   117  C    0.128989
   118  O   -0.222370
   119  C   -0.072431
   120  C    0.292521
   121  O   -0.279987
   122  O   -0.349467
   123  C    0.124663
   124  H   -0.016754
   125  H   -0.040314
   126  H   -0.012814
   127  H    0.028344
   128  H    0.045439
   129  H    0.027678
   130  H    0.042807
   131  H    0.043027
   132  H    0.041058
   133  H    0.048502
   134  H    0.069455
   135  H    0.032941
   136  H    0.061794
   137  H    0.011494
   138  H    0.062645
   139  H    0.058148
   140  H    0.066196
   141  H    0.068508
   142  H    0.046804
   143  H    0.038421
   144  H    0.041328
   145  H    0.031645
   146  H    0.038547
   147  H    0.030398
   148  H    0.021508
   149  H    0.036091
   150  H    0.030076
   151  H    0.032965
   152  H    0.030631
   153  H    0.066814
   154  H    0.060805
   155  H    0.055775
   156  H    0.061767
   157  H    0.085141
   158  H    0.056441
 Sum of Mulliken charges =  -0.00000

 Dipole moment (field-independent basis, Debye):
    X=              1.8560    Y=              2.1987    Z=              1.2225  Tot=              3.1263
 Quadrupole moment (field-independent basis, Debye-Ang):
   XX=           -308.1575   YY=           -541.9254   ZZ=           -488.5924
   XY=            -14.1105   XZ=            106.7624   YZ=             30.6423

 Normal termination of Gaussian 16 at Sat Sep 18 18:07:36 2021.
