 Gaussian 16, Revision A.03,
 Gaussian 16:  ES64L-G16RevA.03 25-Dec-2016

 --------------------------------
 #p wB97XD/Def2SVP td=(nstates=5)
 --------------------------------

 --------------------------------
 TDDFT excited states in gaussian
 --------------------------------
 Symbolic Z-matrix:
 Charge =  0 Multiplicity = 1

                         Standard orientation:
 ---------------------------------------------------------------------
 Center     Atomic      Atomic             Coordinates (Angstroms)
 Number     Number       Type             X           Y           Z
 ---------------------------------------------------------------------
      1         12           0       19.557818    0.053110   -0.584779
      2          6           0       17.073901    1.253381    1.611508
      3          6           0       20.533557   -2.159294    1.857478
      4          6           0       21.999322   -1.092224   -2.586726
      5          6           0       18.910753    2.687520   -2.794841
      6          7           0       18.745899   -0.415651    1.390654
      7          6           0       17.776852    0.113039    2.132425
      8          6           0       17.540189   -0.527286    3.516095
      9          6           0       18.893925   -1.388292    3.563823
     10          6           0       19.465394   -1.278406    2.171343
     11          6           0       19.874432   -0.920824    4.611876
     12          6           0       16.202404   -1.450034    3.607931
     13          6           0       15.634838   -1.545640    5.027148
     14          1           0       14.195032   -0.989312    5.173191
     15          7           0       20.991189   -1.555594   -0.477781
     16          6           0       21.247739   -2.322066    0.685960
     17          6           0       22.113812   -3.407946    0.285321
     18          6           0       22.541627   -3.141141   -1.012133
     19          6           0       21.835082   -1.895717   -1.447459
     20          6           0       22.624064   -4.476590    1.233520
     21          6           0       23.459976   -3.900708   -1.941892
     22          8           0       23.622386   -3.514516   -3.062519
     23          6           0       24.125992   -5.176874   -1.534014
     24          7           0       20.486187    0.796936   -2.319695
     25          6           0       21.434848    0.102624   -3.012295
     26          6           0       21.681775    0.893488   -4.326950
     27          6           0       20.399023    1.655297   -4.608231
     28          6           0       19.865309    1.772633   -3.161112
     29          6           0       22.822809    1.886928   -4.112568
     30          6           0       19.472704    0.984647   -5.553838
     31          6           0       19.170393   -0.481823   -5.369019
     32          7           0       18.254724    1.646641   -0.657841
     33          6           0       18.091046    2.650026   -1.594275
     34          6           0       16.997160    3.531520   -1.157817
     35          6           0       16.571202    2.994554    0.069499
     36          6           0       17.339324    1.889914    0.317975
     37          6           0       16.518123    4.734300   -1.849040
     38          6           0       15.564901    3.052703    1.095595
     39          8           0       14.573436    3.826598    1.240688
     40          6           0       15.869053    1.865296    2.126423
     41          6           0       16.136666    2.517343    3.458167
     42          8           0       16.875958    3.447423    3.588936
     43          8           0       15.496129    1.915550    4.575075
     44          6           0       16.009382    2.348319    5.910405
     45          1           0       20.891944   -2.833027    2.637821
     46          1           0       22.846077   -1.368540   -3.219051
     47          1           0       18.540548    3.422875   -3.512606
     48          1           0       17.417960    0.250249    4.271182
     49          1           0       18.551057   -2.397640    3.794660
     50          1           0       19.728135   -1.571772    5.473679
     51          1           0       19.793688    0.145873    4.822083
     52          1           0       20.842789   -1.225720    4.215243
     53          1           0       16.429688   -2.464402    3.278595
     54          1           0       15.440106   -1.090390    2.916507
     55          1           0       16.387426   -1.000172    5.596886
     56          1           0       15.685538   -2.560031    5.422340
     57          1           0       21.926608   -4.445722    2.069743
     58          1           0       23.571739   -4.061004    1.574826
     59          1           0       22.626496   -5.468540    0.781254
     60          1           0       23.257495   -5.835731   -1.530060
     61          1           0       24.562583   -5.162882   -0.535734
     62          1           0       24.871318   -5.469173   -2.274505
     63          1           0       21.990955    0.291501   -5.180719
     64          1           0       20.529561    2.636763   -5.062856
     65          1           0       22.599195    2.941425   -3.950582
     66          1           0       23.479898    1.816402   -4.979317
     67          1           0       23.410717    1.542502   -3.261020
     68          1           0       19.772662    1.133369   -6.591416
     69          1           0       18.536208    1.527797   -5.428470
     70          1           0       18.124423   -0.529374   -5.064697
     71          1           0       19.704493   -1.126329   -4.670213
     72          1           0       19.221902   -0.961925   -6.346106
     73          1           0       17.286937    5.502179   -1.763748
     74          1           0       15.580797    4.965862   -1.343300
     75          1           0       16.390535    4.556907   -2.917760
     76          1           0       14.987711    1.226010    2.071717
     77          1           0       15.610831    3.329365    6.168682
     78          1           0       17.098514    2.386711    5.960368
     79          1           0       15.686042    1.750923    6.762374
     80         12           0      -19.426715    0.396033    0.153450
     81          6           0      -18.218173   -2.798210    0.075361
     82          6           0      -16.089847    1.479693    0.748108
     83          6           0      -20.506916    3.577790   -0.155590
     84          6           0      -22.380370   -0.717619   -1.320604
     85          7           0      -17.251319   -0.593363    0.013542
     86          6           0      -17.097776   -1.932222    0.215037
     87          6           0      -15.636929   -2.263836    0.345054
     88          6           0      -14.926870   -0.853441    0.535178
     89          6           0      -16.135727    0.131132    0.448743
     90          6           0      -13.845602   -0.788483    1.551133
     91          6           0      -14.940063   -3.229228   -0.726291
     92          6           0      -15.451081   -3.209151   -2.136407
     93          1           0      -14.415438   -3.091397   -3.245852
     94          7           0      -18.480898    2.238437    0.514606
     95          6           0      -17.164944    2.478301    0.762568
     96          6           0      -16.888991    3.877348    0.904481
     97          6           0      -18.226823    4.515504    0.755257
     98          6           0      -19.152067    3.431048    0.360137
     99          6           0      -15.619392    4.529936    1.180570
    100          6           0      -18.615093    5.974308    0.948878
    101          8           0      -17.787005    6.799479    1.107199
    102          6           0      -20.001925    6.549085    0.864332
    103          7           0      -21.106669    1.284834   -0.732941
    104          6           0      -21.378261    2.586333   -0.552145
    105          6           0      -22.720052    3.006736   -1.352050
    106          6           0      -23.445681    1.573964   -1.361250
    107          6           0      -22.238675    0.684218   -1.182167
    108          6           0      -23.560875    4.113332   -0.709284
    109          6           0      -24.329249    1.360158   -2.603518
    110          6           0      -25.759208    0.824245   -2.466220
    111          7           0      -20.131135   -1.379137   -0.602113
    112          6           0      -21.362854   -1.729282   -1.141131
    113          6           0      -21.479226   -3.125896   -1.306998
    114          6           0      -20.297080   -3.639585   -0.799834
    115          6           0      -19.483150   -2.531778   -0.371356
    116          6           0      -22.652937   -3.894523   -1.830542
    117          6           0      -19.527874   -4.764131   -0.462789
    118          8           0      -19.819814   -5.944866   -0.641438
    119          6           0      -18.101898   -4.298486   -0.052149
    120          6           0      -17.865161   -5.030529    1.260626
    121          8           0      -16.858085   -5.729311    1.502024
    122          8           0      -18.865191   -4.656989    2.127226
    123          6           0      -18.817153   -4.983736    3.573396
    124          1           0      -15.034037    1.752828    0.802814
    125          1           0      -20.777734    4.595533   -0.443810
    126          1           0      -23.336612   -1.064634   -1.716733
    127          1           0      -15.502435   -2.876338    1.237351
    128          1           0      -14.425560   -0.643913   -0.409308
    129          1           0      -13.940743    0.056798    2.232608
    130          1           0      -12.854398   -0.866616    1.104442
    131          1           0      -13.925902   -1.648660    2.215841
    132          1           0      -14.997724   -4.289708   -0.480744
    133          1           0      -13.904992   -2.918718   -0.872202
    134          1           0      -16.310962   -2.560824   -2.301537
    135          1           0      -15.806078   -4.216734   -2.355361
    136          1           0      -15.005815    3.859931    1.782020
    137          1           0      -15.712252    5.483760    1.698527
    138          1           0      -15.139673    4.698955    0.215840
    139          1           0      -20.498221    5.655801    1.244338
    140          1           0      -20.311387    6.763560   -0.158097
    141          1           0      -20.211270    7.435855    1.462818
    142          1           0      -22.397245    3.229560   -2.369482
    143          1           0      -24.079558    1.303977   -0.516977
    144          1           0      -24.439218    3.631934   -0.278454
    145          1           0      -23.697277    4.939503   -1.406486
    146          1           0      -23.059463    4.602333    0.125390
    147          1           0      -23.784024    0.678461   -3.256842
    148          1           0      -24.328902    2.288500   -3.174925
    149          1           0      -26.565305    1.349784   -2.978418
    150          1           0      -26.044199    0.632297   -1.430965
    151          1           0      -25.645056   -0.201568   -2.815158
    152          1           0      -22.800395   -4.871706   -1.370051
    153          1           0      -22.522737   -4.031847   -2.904240
    154          1           0      -23.607096   -3.395048   -1.657575
    155          1           0      -17.486462   -4.660965   -0.874624
    156          1           0      -19.190992   -4.173154    4.198695
    157          1           0      -17.780254   -5.190587    3.838757
    158          1           0      -19.347689   -5.850337    3.965915
 ---------------------------------------------------------------------

 SCF Done:  E(RwB97XD) =  -4070.55456330     A.U. after   20 cycles

 Excitation energies and oscillator strengths:

 Excited State   1:      Singlet-A      1.5769 eV  786.27 nm  f=0.3835  <S**2>=0.000
     309 -> 315        0.17492
     311 -> 313        0.68651
     309 <- 315        0.11857
 This state for optimization and/or second-order correction.
 Total Energy, E(TD-HF/TD-DFT) =  -4070.49661438
 Copying the excited state density for this state as the 1-particle RhoCI density.

 Excited State   2:      Singlet-A      1.6527 eV  750.18 nm  f=0.3735  <S**2>=0.000
     310 -> 316        0.17780
     312 -> 314        0.68541
     310 <- 316        0.11379

 Excited State   3:      Singlet-A      2.0921 eV  592.62 nm  f=0.1443  <S**2>=0.000
     309 -> 313        0.64988
     311 -> 315       -0.25887

 Excited State   4:      Singlet-A      2.1347 eV  580.81 nm  f=0.1154  <S**2>=0.000
     310 -> 314        0.64480
     312 -> 316       -0.27145

 Excited State   5:      Singlet-A      3.0074 eV  412.26 nm  f=0.0074  <S**2>=0.000
     306 -> 313       -0.21894
     308 -> 313        0.63543
     308 -> 317        0.12407

 The electronic state is 1-A.
 Alpha  occ. eigenvalues --  -46.96289 -46.94942 -19.31466 -19.29699 -19.25315
 Alpha  occ. eigenvalues --  -19.24921 -19.24134 -19.23594 -19.23259 -19.22163
 Alpha  occ. eigenvalues --  -14.48017 -14.47161 -14.46632 -14.45914 -14.44595
 Alpha  occ. eigenvalues --  -14.44327 -14.44267 -14.43611 -10.44384 -10.43222
 Alpha  occ. eigenvalues --  -10.39169 -10.38738 -10.38338 -10.37446 -10.36558
 Alpha  occ. eigenvalues --  -10.36127 -10.35930 -10.35643 -10.35435 -10.35350
 Alpha  occ. eigenvalues --  -10.35084 -10.35048 -10.34995 -10.34908 -10.34841
 Alpha  occ. eigenvalues --  -10.34738 -10.34680 -10.34501 -10.34135 -10.33646
 Alpha  occ. eigenvalues --  -10.33428 -10.33329 -10.33026 -10.32942 -10.32940
 Alpha  occ. eigenvalues --  -10.32765 -10.32562 -10.32504 -10.32488 -10.32349
 Alpha  occ. eigenvalues --  -10.32348 -10.32305 -10.32305 -10.32297 -10.32234
 Alpha  occ. eigenvalues --  -10.32172 -10.31973 -10.31900 -10.31856 -10.31688
 Alpha  occ. eigenvalues --  -10.31576 -10.31541 -10.31263 -10.31160 -10.31134
 Alpha  occ. eigenvalues --  -10.31126 -10.30740 -10.30734 -10.30694 -10.30688
 Alpha  occ. eigenvalues --  -10.30672 -10.30602 -10.30484 -10.30287 -10.30193
 Alpha  occ. eigenvalues --  -10.30055 -10.29888 -10.29650 -10.29605 -10.29277
 Alpha  occ. eigenvalues --  -10.28982 -10.28945 -10.28913 -10.28904 -10.28375
 Alpha  occ. eigenvalues --  -10.28256  -3.22223  -3.20875  -1.95763  -1.95379
 Alpha  occ. eigenvalues --   -1.95164  -1.94488  -1.93975  -1.93862  -1.17877
 Alpha  occ. eigenvalues --   -1.17717  -1.14366  -1.13557  -1.11642  -1.09553
 Alpha  occ. eigenvalues --   -1.09478  -1.08830  -1.07305  -1.07195  -1.06415
 Alpha  occ. eigenvalues --   -1.05619  -1.04918  -1.04906  -1.04146  -1.03745
 Alpha  occ. eigenvalues --   -0.95730  -0.94903  -0.91979  -0.91705  -0.91306
 Alpha  occ. eigenvalues --   -0.90756  -0.90610  -0.90298  -0.89898  -0.89796
 Alpha  occ. eigenvalues --   -0.89170  -0.88835  -0.88093  -0.87771  -0.86599
 Alpha  occ. eigenvalues --   -0.86439  -0.85899  -0.85407  -0.84992  -0.84572
 Alpha  occ. eigenvalues --   -0.84412  -0.84083  -0.83030  -0.82925  -0.82537
 Alpha  occ. eigenvalues --   -0.81854  -0.80914  -0.80454  -0.79737  -0.79242
 Alpha  occ. eigenvalues --   -0.78989  -0.78898  -0.78640  -0.78197  -0.77419
 Alpha  occ. eigenvalues --   -0.76925  -0.75575  -0.74415  -0.73730  -0.73295
 Alpha  occ. eigenvalues --   -0.71959  -0.71593  -0.71368  -0.70833  -0.70337
 Alpha  occ. eigenvalues --   -0.69805  -0.69082  -0.68549  -0.68191  -0.67768
 Alpha  occ. eigenvalues --   -0.67496  -0.66948  -0.66679  -0.66367  -0.66190
 Alpha  occ. eigenvalues --   -0.65591  -0.65321  -0.63741  -0.62404  -0.62272
 Alpha  occ. eigenvalues --   -0.61895  -0.61442  -0.61138  -0.60943  -0.60843
 Alpha  occ. eigenvalues --   -0.60525  -0.60038  -0.59581  -0.59565  -0.59197
 Alpha  occ. eigenvalues --   -0.58488  -0.58408  -0.57788  -0.57744  -0.57247
 Alpha  occ. eigenvalues --   -0.57050  -0.56691  -0.56430  -0.56386  -0.55992
 Alpha  occ. eigenvalues --   -0.55946  -0.55928  -0.55663  -0.55586  -0.55270
 Alpha  occ. eigenvalues --   -0.55080  -0.54974  -0.54413  -0.54344  -0.54035
 Alpha  occ. eigenvalues --   -0.53798  -0.53737  -0.53716  -0.53612  -0.53435
 Alpha  occ. eigenvalues --   -0.53312  -0.53029  -0.52733  -0.52631  -0.52610
 Alpha  occ. eigenvalues --   -0.52534  -0.52185  -0.51899  -0.51896  -0.51612
 Alpha  occ. eigenvalues --   -0.51612  -0.51530  -0.51435  -0.51109  -0.51069
 Alpha  occ. eigenvalues --   -0.51016  -0.50927  -0.50257  -0.50141  -0.50124
 Alpha  occ. eigenvalues --   -0.49804  -0.49669  -0.49574  -0.49465  -0.49273
 Alpha  occ. eigenvalues --   -0.49137  -0.49076  -0.49024  -0.48800  -0.48656
 Alpha  occ. eigenvalues --   -0.48360  -0.48259  -0.48047  -0.47785  -0.47563
 Alpha  occ. eigenvalues --   -0.47455  -0.47447  -0.47318  -0.47248  -0.47099
 Alpha  occ. eigenvalues --   -0.46949  -0.46903  -0.46802  -0.46223  -0.46108
 Alpha  occ. eigenvalues --   -0.46074  -0.45925  -0.45634  -0.45427  -0.45288
 Alpha  occ. eigenvalues --   -0.45120  -0.45025  -0.44967  -0.44762  -0.44647
 Alpha  occ. eigenvalues --   -0.44537  -0.44451  -0.44387  -0.44358  -0.44030
 Alpha  occ. eigenvalues --   -0.43918  -0.43733  -0.43633  -0.43479  -0.43402
 Alpha  occ. eigenvalues --   -0.43189  -0.42941  -0.42882  -0.42439  -0.42273
 Alpha  occ. eigenvalues --   -0.42161  -0.42146  -0.41639  -0.41409  -0.40927
 Alpha  occ. eigenvalues --   -0.40613  -0.40296  -0.39930  -0.39670  -0.39422
 Alpha  occ. eigenvalues --   -0.39272  -0.39076  -0.38964  -0.38367  -0.38212
 Alpha  occ. eigenvalues --   -0.38137  -0.37522  -0.36787  -0.36612  -0.36492
 Alpha  occ. eigenvalues --   -0.35838  -0.35395  -0.35303  -0.33897  -0.33784
 Alpha  occ. eigenvalues --   -0.33363  -0.33051  -0.32566  -0.32324  -0.32134
 Alpha  occ. eigenvalues --   -0.31510  -0.31439  -0.30379  -0.26369  -0.26066
 Alpha  occ. eigenvalues --   -0.23505  -0.23196
 Alpha virt. eigenvalues --   -0.08023  -0.07286  -0.00006   0.00196   0.02353
 Alpha virt. eigenvalues --    0.02490   0.04092   0.04307   0.04850   0.06273
 Alpha virt. eigenvalues --    0.06665   0.07157   0.07376   0.07726   0.08103

 Mulliken charges:
               1
     1  Mg   0.954097
     2  C   -0.043020
     3  C   -0.110336
     4  C   -0.074476
     5  C   -0.071326
     6  N   -0.321280
     7  C   -0.004049
     8  C   -0.076349
     9  C   -0.141268
    10  C    0.116620
    11  C    0.056661
    12  C    0.009152
    13  C   -0.101878
    14  H    0.060757
    15  N   -0.444581
    16  C    0.147220
    17  C   -0.177083
    18  C   -0.058241
    19  C    0.148137
    20  C    0.068258
    21  C    0.023106
    22  O   -0.209953
    23  C   -0.009724
    24  N   -0.406436
    25  C    0.080513
    26  C   -0.094141
    27  C   -0.044042
    28  C    0.108108
    29  C    0.034258
    30  C    0.007497
    31  C   -0.069525
    32  N   -0.442864
    33  C    0.083867
    34  C   -0.209124
    35  C    0.007048
    36  C    0.127395
    37  C    0.079131
    38  C    0.099166
    39  O   -0.251489
    40  C   -0.045582
    41  C    0.263144
    42  O   -0.210392
    43  O   -0.401460
    44  C    0.135702
    45  H    0.006467
    46  H    0.021247
    47  H   -0.000363
    48  H    0.038117
    49  H    0.035954
    50  H    0.032101
    51  H    0.057745
    52  H    0.022846
    53  H    0.027418
    54  H    0.042853
    55  H    0.027482
    56  H    0.044614
    57  H    0.032565
    58  H    0.076072
    59  H    0.059611
    60  H    0.059843
    61  H    0.052648
    62  H    0.061954
    63  H    0.025004
    64  H    0.018243
    65  H    0.044992
    66  H    0.032938
    67  H    0.031269
    68  H    0.032134
    69  H    0.016200
    70  H    0.030689
    71  H    0.056749
    72  H    0.029940
    73  H    0.053926
    74  H    0.066204
    75  H    0.035080
    76  H    0.077666
    77  H    0.056928
    78  H    0.049863
    79  H    0.051782
    80  Mg   0.958600
    81  C    0.008206
    82  C   -0.083325
    83  C   -0.083936
    84  C   -0.096651
    85  N   -0.330739
    86  C   -0.005404
    87  C   -0.018815
    88  C   -0.091851
    89  C    0.035634
    90  C    0.041617
    91  C   -0.010967
    92  C   -0.168674
    93  H    0.030046
    94  N   -0.448622
    95  C    0.171618
    96  C   -0.181735
    97  C   -0.096603
    98  C    0.137339
    99  C    0.086342
   100  C    0.013458
   101  O   -0.209703
   102  C   -0.014947
   103  N   -0.361639
   104  C    0.084178
   105  C   -0.139071
   106  C   -0.084257
   107  C    0.074869
   108  C    0.050074
   109  C   -0.015299
   110  C   -0.044731
   111  N   -0.442070
   112  C    0.139206
   113  C   -0.188161
   114  C    0.058670
   115  C    0.110031
   116  C    0.078500
   117  C    0.062303
   118  O   -0.216530
   119  C   -0.121202
   120  C    0.312839
   121  O   -0.256633
   122  O   -0.379226
   123  C    0.145028
   124  H    0.008552
   125  H    0.003794
   126  H   -0.014263
   127  H    0.042119
   128  H    0.049813
   129  H    0.035513
   130  H    0.041538
   131  H    0.026902
   132  H    0.059210
   133  H    0.045181
   134  H    0.064491
   135  H    0.055807
   136  H    0.031703
   137  H    0.063259
   138  H    0.053896
   139  H    0.032345
   140  H    0.070922
   141  H    0.058005
   142  H    0.056120
   143  H    0.040581
   144  H    0.038871
   145  H    0.039576
   146  H    0.032350
   147  H    0.030251
   148  H    0.027702
   149  H    0.056379
   150  H    0.025798
   151  H    0.030863
   152  H    0.060897
   153  H    0.060848
   154  H    0.031898
   155  H    0.065561
   156  H    0.053573
   157  H    0.053920
   158  H    0.058257
 Sum of Mulliken charges =  -0.00000

 Dipole moment (field-independent basis, Debye):
    X=             -0.0445    Y=             -4.4299    Z=              2.4823  Tot=              5.0782
 Quadrupole moment (field-independent basis, Debye-Ang):
   XX=           -212.6943   YY=           -574.3123   ZZ=           -471.0191
   XY=           -143.9724   XZ=             24.4005   YZ=            -41.8276

 Normal termination of Gaussian 16 at Fri Sep 17 20:08:08 2021.
