 Gaussian 16, Revision A.03,
 Gaussian 16:  ES64L-G16RevA.03 25-Dec-2016

 --------------------------------
 #p wB97XD/Def2SVP td=(nstates=5)
 --------------------------------

 --------------------------------
 TDDFT excited states in gaussian
 --------------------------------
 Symbolic Z-matrix:
 Charge =  0 Multiplicity = 1

                         Standard orientation:
 ---------------------------------------------------------------------
 Center     Atomic      Atomic             Coordinates (Angstroms)
 Number     Number       Type             X           Y           Z
 ---------------------------------------------------------------------
      1         12           0      -30.064519   -0.451914    0.510745
      2          6           0      -29.428087    2.337511   -1.460030
      3          6           0      -28.938042   -2.347733   -2.166304
      4          6           0      -31.148225   -3.194231    2.205301
      5          6           0      -31.306530    1.618104    2.986291
      6          7           0      -29.325634   -0.042695   -1.595391
      7          6           0      -29.105247    1.189736   -2.191341
      8          6           0      -28.622556    1.095163   -3.691987
      9          6           0      -28.804690   -0.453194   -3.935079
     10          6           0      -29.079361   -1.006252   -2.488176
     11          6           0      -29.883294   -0.982662   -4.884703
     12          6           0      -27.193602    1.647641   -3.845243
     13          6           0      -27.042314    2.977128   -4.536427
     14          1           0      -25.811984    3.150635   -5.444584
     15          7           0      -29.892432   -2.496023    0.209691
     16          6           0      -29.330301   -3.019841   -0.912495
     17          6           0      -29.424930   -4.483997   -0.752228
     18          6           0      -30.134372   -4.764545    0.425980
     19          6           0      -30.418520   -3.515124    1.017630
     20          6           0      -28.729192   -5.395125   -1.680225
     21          6           0      -30.576150   -6.078993    0.999563
     22          8           0      -31.117246   -6.196418    2.134039
     23          6           0      -30.462786   -7.327205    0.312845
     24          7           0      -30.983685   -0.746725    2.322670
     25          6           0      -31.309498   -1.966161    2.831951
     26          6           0      -31.984391   -1.898429    4.145185
     27          6           0      -31.992811   -0.357080    4.448498
     28          6           0      -31.462246    0.187850    3.175954
     29          6           0      -33.380584   -2.530116    4.421135
     30          6           0      -31.236163    0.085454    5.796862
     31          6           0      -29.700533    0.336577    5.866976
     32          7           0      -30.378484    1.542023    0.767510
     33          6           0      -30.853768    2.247778    1.835102
     34          6           0      -30.658979    3.616839    1.632765
     35          6           0      -30.168016    3.676441    0.271817
     36          6           0      -29.993750    2.384981   -0.184202
     37          6           0      -30.900950    4.757432    2.619644
     38          6           0      -29.660423    4.609484   -0.692688
     39          8           0      -29.442955    5.804076   -0.691277
     40          6           0      -29.369732    3.752636   -1.974459
     41          6           0      -30.390759    4.028259   -3.004603
     42          8           0      -31.258985    3.231007   -3.422723
     43          8           0      -30.362904    5.285389   -3.498478
     44          6           0      -31.182088    5.626164   -4.711370
     45          1           0      -28.643130   -2.939547   -3.034616
     46          1           0      -31.550947   -4.030686    2.780616
     47          1           0      -31.517970    2.335288    3.782780
     48          1           0      -29.374109    1.466935   -4.389233
     49          1           0      -27.828724   -0.811369   -4.262500
     50          1           0      -30.667282   -1.486985   -4.319295
     51          1           0      -29.424513   -1.804647   -5.432233
     52          1           0      -30.328004   -0.242827   -5.551164
     53          1           0      -26.678560    0.923833   -4.477942
     54          1           0      -26.713329    1.620779   -2.867125
     55          1           0      -26.987310    3.742206   -3.761557
     56          1           0      -27.892602    3.292801   -5.141124
     57          1           0      -28.006387   -5.923519   -1.059910
     58          1           0      -28.212838   -4.988583   -2.550783
     59          1           0      -29.437714   -6.123134   -2.075236
     60          1           0      -30.798981   -7.124693   -0.703704
     61          1           0      -30.922338   -8.129441    0.888749
     62          1           0      -29.418047   -7.597355    0.158883
     63          1           0      -31.238645   -2.416783    4.747199
     64          1           0      -33.023146   -0.008919    4.511023
     65          1           0      -33.323826   -3.353942    5.132660
     66          1           0      -33.806506   -2.956833    3.512426
     67          1           0      -34.124877   -1.807255    4.755005
     68          1           0      -31.422869   -0.768094    6.448897
     69          1           0      -31.845913    0.939160    6.093037
     70          1           0      -29.184419    0.348075    4.907327
     71          1           0      -29.152662   -0.248297    6.606347
     72          1           0      -29.628610    1.331476    6.304449
     73          1           0      -31.589549    5.502658    2.220061
     74          1           0      -29.951974    5.274714    2.760005
     75          1           0      -31.208098    4.437865    3.615803
     76          1           0      -28.459006    4.146134   -2.426270
     77          1           0      -30.682902    6.566977   -4.943711
     78          1           0      -32.250625    5.738710   -4.530861
     79          1           0      -31.043372    4.860466   -5.475259
     80         12           0       30.615994    0.538735   -0.071694
     81          6           0       28.220538   -1.993264   -0.089992
     82          6           0       28.514789    2.456169    1.875859
     83          6           0       33.047196    2.742545   -0.099497
     84          6           0       33.065844   -1.929577   -1.161746
     85          7           0       28.489807    0.220171    0.749571
     86          6           0       27.712486   -0.899107    0.646549
     87          6           0       26.390346   -0.690134    1.295406
     88          6           0       26.509865    0.735989    1.966698
     89          6           0       27.942899    1.223458    1.518806
     90          6           0       25.317368    1.685365    1.688342
     91          6           0       26.043986   -1.786005    2.332486
     92          6           0       24.661646   -2.375046    2.056761
     93          1           0       23.642707   -2.400981    3.235785
     94          7           0       30.745234    2.374921    0.753021
     95          6           0       29.768597    3.040679    1.492258
     96          6           0       30.317796    4.364212    1.756977
     97          6           0       31.652587    4.493265    1.150512
     98          6           0       31.866151    3.172146    0.479463
     99          6           0       29.683220    5.309715    2.648706
    100          6           0       32.520004    5.657745    1.395094
    101          8           0       32.193558    6.627397    2.047120
    102          6           0       33.939627    5.742568    0.954255
    103          7           0       32.678136    0.389367   -0.506686
    104          6           0       33.396278    1.540662   -0.708800
    105          6           0       34.806691    1.205200   -1.145632
    106          6           0       34.896015   -0.266829   -0.989515
    107          6           0       33.512062   -0.652665   -0.812360
    108          6           0       35.230653    1.789128   -2.555279
    109          6           0       35.653559   -0.705049    0.310676
    110          6           0       36.363331   -1.978311    0.257526
    111          7           0       30.681945   -1.548522   -0.575256
    112          6           0       31.699195   -2.384035   -1.054859
    113          6           0       31.118374   -3.602699   -1.524304
    114          6           0       29.784278   -3.530399   -1.141304
    115          6           0       29.561397   -2.251538   -0.516810
    116          6           0       31.883627   -4.677922   -2.203332
    117          6           0       28.571403   -4.245624   -1.096773
    118          8           0       28.307870   -5.359074   -1.492767
    119          6           0       27.520806   -3.292132   -0.485131
    120          6           0       26.404304   -3.137450   -1.431152
    121          8           0       26.353609   -2.317696   -2.363586
    122          8           0       25.488348   -4.144503   -1.230294
    123          6           0       24.239208   -4.159053   -1.974073
    124          1           0       27.774784    3.029903    2.436729
    125          1           0       33.954103    3.351677   -0.128473
    126          1           0       33.829062   -2.627804   -1.511712
    127          1           0       25.715037   -0.487937    0.463560
    128          1           0       26.517066    0.705348    3.055810
    129          1           0       24.538624    0.990953    1.370668
    130          1           0       25.501603    2.514510    1.005123
    131          1           0       24.991621    2.152035    2.617650
    132          1           0       25.942161   -1.416061    3.352552
    133          1           0       26.836554   -2.530784    2.262398
    134          1           0       24.944497   -3.416530    1.904481
    135          1           0       24.292234   -1.916100    1.140885
    136          1           0       28.743004    4.873782    2.987104
    137          1           0       29.376779    6.256308    2.202550
    138          1           0       30.316935    5.461620    3.523159
    139          1           0       33.818077    5.414904   -0.078216
    140          1           0       34.526295    5.026368    1.530169
    141          1           0       34.311579    6.765781    1.011320
    142          1           0       35.419200    1.735637   -0.417474
    143          1           0       35.216338   -0.852735   -1.851091
    144          1           0       34.488605    2.504015   -2.911299
    145          1           0       35.518516    1.041547   -3.295264
    146          1           0       36.082059    2.466876   -2.499635
    147          1           0       34.953993   -0.711484    1.146628
    148          1           0       36.407629    0.033302    0.582835
    149          1           0       37.363554   -1.802466   -0.139857
    150          1           0       35.822976   -2.729994   -0.318827
    151          1           0       36.622253   -2.295554    1.268198
    152          1           0       32.633594   -4.262873   -2.876535
    153          1           0       31.260045   -5.399694   -2.731110
    154          1           0       32.459106   -5.129320   -1.395091
    155          1           0       27.001006   -3.725949    0.369204
    156          1           0       24.255849   -4.414436   -3.033653
    157          1           0       23.723187   -3.209152   -1.835870
    158          1           0       23.679480   -4.980386   -1.528157
 ---------------------------------------------------------------------

 SCF Done:  E(RwB97XD) =  -4070.58433324     A.U. after   20 cycles

 Excitation energies and oscillator strengths:

 Excited State   1:      Singlet-A      1.6144 eV  767.99 nm  f=0.3621  <S**2>=0.000
     309 -> 315       -0.19430
     311 -> 313        0.68133
     309 <- 315       -0.12117
 This state for optimization and/or second-order correction.
 Total Energy, E(TD-HF/TD-DFT) =  -4070.52500515
 Copying the excited state density for this state as the 1-particle RhoCI density.

 Excited State   2:      Singlet-A      1.6445 eV  753.94 nm  f=0.3893  <S**2>=0.000
     310 -> 316       -0.18305
     312 -> 314        0.68258
     310 <- 316       -0.11719

 Excited State   3:      Singlet-A      2.1299 eV  582.12 nm  f=0.0995  <S**2>=0.000
     309 -> 313        0.63359
     311 -> 315        0.30005

 Excited State   4:      Singlet-A      2.1515 eV  576.26 nm  f=0.1377  <S**2>=0.000
     310 -> 314        0.64864
     312 -> 316        0.26454

 Excited State   5:      Singlet-A      3.2693 eV  379.23 nm  f=0.0024  <S**2>=0.000
     304 -> 313        0.24621
     306 -> 313        0.52213
     307 -> 313       -0.35478

 The electronic state is 1-A.
 Alpha  occ. eigenvalues --  -46.95296 -46.93879 -19.30108 -19.29261 -19.24327
 Alpha  occ. eigenvalues --  -19.23408 -19.23272 -19.23192 -19.22997 -19.22414
 Alpha  occ. eigenvalues --  -14.46931 -14.46612 -14.46559 -14.46447 -14.44920
 Alpha  occ. eigenvalues --  -14.44152 -14.43772 -14.42952 -10.42952 -10.42356
 Alpha  occ. eigenvalues --  -10.38468 -10.38210 -10.38184 -10.37658 -10.35749
 Alpha  occ. eigenvalues --  -10.35688 -10.35661 -10.35596 -10.35418 -10.35158
 Alpha  occ. eigenvalues --  -10.35094 -10.35002 -10.34795 -10.34669 -10.34487
 Alpha  occ. eigenvalues --  -10.34466 -10.34133 -10.34083 -10.33899 -10.33105
 Alpha  occ. eigenvalues --  -10.32975 -10.32876 -10.32718 -10.32713 -10.32538
 Alpha  occ. eigenvalues --  -10.32511 -10.32438 -10.32385 -10.32279 -10.32270
 Alpha  occ. eigenvalues --  -10.32220 -10.32213 -10.32078 -10.31883 -10.31867
 Alpha  occ. eigenvalues --  -10.31864 -10.31709 -10.31419 -10.31419 -10.31353
 Alpha  occ. eigenvalues --  -10.31351 -10.31330 -10.31327 -10.31214 -10.31135
 Alpha  occ. eigenvalues --  -10.31122 -10.31089 -10.30835 -10.30815 -10.30797
 Alpha  occ. eigenvalues --  -10.30775 -10.30680 -10.30366 -10.30342 -10.30194
 Alpha  occ. eigenvalues --  -10.30101 -10.29958 -10.29850 -10.29781 -10.29534
 Alpha  occ. eigenvalues --  -10.29513 -10.29369 -10.29069 -10.28793 -10.28762
 Alpha  occ. eigenvalues --  -10.28655  -3.21234  -3.20007  -1.94825  -1.94366
 Alpha  occ. eigenvalues --   -1.94190  -1.93612  -1.93140  -1.92986  -1.17639
 Alpha  occ. eigenvalues --   -1.17285  -1.12297  -1.12068  -1.11759  -1.10147
 Alpha  occ. eigenvalues --   -1.08909  -1.07256  -1.06996  -1.06881  -1.06116
 Alpha  occ. eigenvalues --   -1.05826  -1.05250  -1.05016  -1.04282  -1.03639
 Alpha  occ. eigenvalues --   -0.95068  -0.94644  -0.92658  -0.91467  -0.91001
 Alpha  occ. eigenvalues --   -0.90885  -0.90332  -0.90203  -0.89655  -0.89536
 Alpha  occ. eigenvalues --   -0.89197  -0.88929  -0.88280  -0.88045  -0.87175
 Alpha  occ. eigenvalues --   -0.86461  -0.86279  -0.85562  -0.85385  -0.84730
 Alpha  occ. eigenvalues --   -0.84509  -0.84341  -0.83387  -0.82924  -0.82799
 Alpha  occ. eigenvalues --   -0.82494  -0.80599  -0.80522  -0.79924  -0.79421
 Alpha  occ. eigenvalues --   -0.79076  -0.78774  -0.78253  -0.78130  -0.77350
 Alpha  occ. eigenvalues --   -0.77231  -0.75410  -0.75088  -0.74035  -0.73314
 Alpha  occ. eigenvalues --   -0.72022  -0.71327  -0.71038  -0.70722  -0.69965
 Alpha  occ. eigenvalues --   -0.69954  -0.69483  -0.69103  -0.68417  -0.67902
 Alpha  occ. eigenvalues --   -0.67300  -0.67133  -0.67018  -0.66704  -0.66622
 Alpha  occ. eigenvalues --   -0.66367  -0.64030  -0.63473  -0.62726  -0.61956
 Alpha  occ. eigenvalues --   -0.61606  -0.61484  -0.61463  -0.61142  -0.60984
 Alpha  occ. eigenvalues --   -0.60587  -0.59940  -0.59722  -0.59391  -0.59289
 Alpha  occ. eigenvalues --   -0.58409  -0.58150  -0.57832  -0.57555  -0.57425
 Alpha  occ. eigenvalues --   -0.57145  -0.56871  -0.56378  -0.56343  -0.56183
 Alpha  occ. eigenvalues --   -0.55769  -0.55187  -0.55153  -0.54838  -0.54755
 Alpha  occ. eigenvalues --   -0.54503  -0.54450  -0.54376  -0.54242  -0.54040
 Alpha  occ. eigenvalues --   -0.53961  -0.53807  -0.53690  -0.53597  -0.53225
 Alpha  occ. eigenvalues --   -0.53198  -0.53003  -0.52792  -0.52368  -0.52291
 Alpha  occ. eigenvalues --   -0.52089  -0.51973  -0.51714  -0.51627  -0.51567
 Alpha  occ. eigenvalues --   -0.51365  -0.51359  -0.51070  -0.50908  -0.50785
 Alpha  occ. eigenvalues --   -0.50715  -0.50492  -0.50422  -0.50356  -0.50091
 Alpha  occ. eigenvalues --   -0.49831  -0.49704  -0.49523  -0.49171  -0.49088
 Alpha  occ. eigenvalues --   -0.48953  -0.48731  -0.48693  -0.48578  -0.48458
 Alpha  occ. eigenvalues --   -0.48254  -0.48177  -0.48160  -0.47919  -0.47681
 Alpha  occ. eigenvalues --   -0.47608  -0.47304  -0.47251  -0.47181  -0.47087
 Alpha  occ. eigenvalues --   -0.46895  -0.46700  -0.46531  -0.46472  -0.46173
 Alpha  occ. eigenvalues --   -0.45984  -0.45896  -0.45818  -0.45697  -0.45600
 Alpha  occ. eigenvalues --   -0.45427  -0.45349  -0.45175  -0.44993  -0.44869
 Alpha  occ. eigenvalues --   -0.44836  -0.44689  -0.44476  -0.44394  -0.43997
 Alpha  occ. eigenvalues --   -0.43659  -0.43550  -0.43518  -0.43409  -0.43377
 Alpha  occ. eigenvalues --   -0.43095  -0.43032  -0.42688  -0.42598  -0.42234
 Alpha  occ. eigenvalues --   -0.42176  -0.42008  -0.41591  -0.41119  -0.40826
 Alpha  occ. eigenvalues --   -0.40461  -0.40133  -0.39807  -0.39660  -0.39311
 Alpha  occ. eigenvalues --   -0.39079  -0.38847  -0.38539  -0.38387  -0.38382
 Alpha  occ. eigenvalues --   -0.38310  -0.37605  -0.36357  -0.36304  -0.35747
 Alpha  occ. eigenvalues --   -0.35448  -0.35210  -0.34755  -0.33610  -0.33213
 Alpha  occ. eigenvalues --   -0.32673  -0.32545  -0.32157  -0.32052  -0.31927
 Alpha  occ. eigenvalues --   -0.31700  -0.31548  -0.31487  -0.26239  -0.25553
 Alpha  occ. eigenvalues --   -0.23386  -0.22915
 Alpha virt. eigenvalues --   -0.07529  -0.07045  -0.00607   0.00611   0.02304
 Alpha virt. eigenvalues --    0.02752   0.04452   0.04461   0.05825   0.06481
 Alpha virt. eigenvalues --    0.06632   0.07442   0.07492   0.07925   0.08088

 Mulliken charges:
               1
     1  Mg   0.984010
     2  C   -0.026132
     3  C   -0.064984
     4  C   -0.072184
     5  C   -0.099189
     6  N   -0.335775
     7  C   -0.019363
     8  C   -0.046013
     9  C   -0.130692
    10  C    0.025607
    11  C    0.037446
    12  C    0.055285
    13  C   -0.144129
    14  H    0.038407
    15  N   -0.481611
    16  C    0.183441
    17  C   -0.191502
    18  C   -0.022568
    19  C    0.131452
    20  C    0.056667
    21  C    0.038434
    22  O   -0.281144
    23  C    0.024704
    24  N   -0.375313
    25  C    0.076295
    26  C   -0.094224
    27  C   -0.055044
    28  C    0.063728
    29  C    0.027626
    30  C   -0.032317
    31  C   -0.043691
    32  N   -0.452975
    33  C    0.130496
    34  C   -0.169525
    35  C   -0.056364
    36  C    0.216076
    37  C    0.092265
    38  C    0.091588
    39  O   -0.190086
    40  C   -0.123957
    41  C    0.263320
    42  O   -0.290828
    43  O   -0.356966
    44  C    0.146656
    45  H   -0.009028
    46  H    0.021590
    47  H   -0.013528
    48  H    0.038408
    49  H    0.026767
    50  H    0.047597
    51  H    0.032124
    52  H    0.052290
    53  H    0.035804
    54  H    0.047016
    55  H    0.065135
    56  H    0.052657
    57  H    0.057327
    58  H    0.043317
    59  H    0.035731
    60  H    0.042621
    61  H    0.066623
    62  H    0.043684
    63  H    0.047298
    64  H    0.036189
    65  H    0.044661
    66  H    0.039211
    67  H    0.036230
    68  H    0.035243
    69  H    0.040157
    70  H    0.056355
    71  H    0.040415
    72  H    0.028974
    73  H    0.060712
    74  H    0.053776
    75  H    0.024482
    76  H    0.056508
    77  H    0.066037
    78  H    0.067026
    79  H    0.053670
    80  Mg   0.953540
    81  C    0.048479
    82  C   -0.057344
    83  C   -0.121924
    84  C   -0.096209
    85  N   -0.342681
    86  C   -0.024097
    87  C   -0.029648
    88  C   -0.145834
    89  C    0.045617
    90  C    0.012163
    91  C    0.023768
    92  C   -0.137388
    93  H    0.039217
    94  N   -0.537591
    95  C    0.202073
    96  C   -0.171625
    97  C   -0.063986
    98  C    0.269864
    99  C    0.097689
   100  C   -0.011581
   101  O   -0.239000
   102  C    0.006885
   103  N   -0.368940
   104  C    0.069532
   105  C   -0.083420
   106  C   -0.081547
   107  C    0.063025
   108  C    0.032027
   109  C    0.003040
   110  C   -0.018633
   111  N   -0.407271
   112  C    0.111736
   113  C   -0.185388
   114  C   -0.015209
   115  C    0.112891
   116  C    0.089642
   117  C    0.108555
   118  O   -0.187626
   119  C   -0.127815
   120  C    0.253737
   121  O   -0.269061
   122  O   -0.361204
   123  C    0.149005
   124  H    0.001509
   125  H   -0.005715
   126  H   -0.002760
   127  H    0.049525
   128  H    0.042578
   129  H    0.038428
   130  H    0.051708
   131  H    0.032390
   132  H    0.051887
   133  H    0.051996
   134  H    0.064253
   135  H    0.053299
   136  H    0.001021
   137  H    0.057460
   138  H    0.064805
   139  H    0.039534
   140  H    0.062472
   141  H    0.058206
   142  H    0.032799
   143  H    0.027073
   144  H    0.034031
   145  H    0.045467
   146  H    0.027832
   147  H    0.039415
   148  H    0.019998
   149  H    0.027128
   150  H    0.029214
   151  H    0.034565
   152  H    0.036181
   153  H    0.067939
   154  H    0.051126
   155  H    0.050918
   156  H    0.058136
   157  H    0.047284
   158  H    0.050834
 Sum of Mulliken charges =  -0.00000

 Dipole moment (field-independent basis, Debye):
    X=              2.9229    Y=             -2.5936    Z=             -0.4414  Tot=              3.9326
 Quadrupole moment (field-independent basis, Debye-Ang):
   XX=           -412.0264   YY=           -568.8169   ZZ=           -477.9556
   XY=             48.3302   XZ=             29.3873   YZ=              0.0997

 Normal termination of Gaussian 16 at Sat Sep 18 20:31:12 2021.
