 Gaussian 16, Revision A.03,
 Gaussian 16:  ES64L-G16RevA.03 25-Dec-2016

 --------------------------------
 #p wB97XD/Def2SVP td=(nstates=5)
 --------------------------------

 --------------------------------
 TDDFT excited states in gaussian
 --------------------------------
 Symbolic Z-matrix:
 Charge =  0 Multiplicity = 1

                         Standard orientation:
 ---------------------------------------------------------------------
 Center     Atomic      Atomic             Coordinates (Angstroms)
 Number     Number       Type             X           Y           Z
 ---------------------------------------------------------------------
      1         12           0      -27.224288    0.758182    0.370781
      2          6           0      -28.012096   -1.941380   -1.782294
      3          6           0      -24.922949   -1.413149    1.856634
      4          6           0      -26.291491    3.184348    2.376558
      5          6           0      -30.084870    2.416522   -0.704815
      6          7           0      -26.560078   -1.399113    0.015920
      7          6           0      -26.904167   -2.246436   -0.993426
      8          6           0      -26.217846   -3.623100   -0.980812
      9          6           0      -25.305907   -3.401967    0.330004
     10          6           0      -25.645756   -2.000058    0.741517
     11          6           0      -25.618121   -4.398251    1.515797
     12          6           0      -25.375966   -3.898865   -2.269150
     13          6           0      -25.719405   -4.950024   -3.317435
     14          1           0      -24.629760   -5.727022   -4.044377
     15          7           0      -25.750941    0.925652    1.867527
     16          6           0      -24.948880   -0.099626    2.389132
     17          6           0      -24.221525    0.450401    3.511180
     18          6           0      -24.474991    1.817869    3.584742
     19          6           0      -25.500580    2.042551    2.547425
     20          6           0      -23.214519   -0.409848    4.195194
     21          6           0      -23.972924    2.889983    4.551275
     22          8           0      -24.311424    4.077060    4.520731
     23          6           0      -22.903675    2.496881    5.492891
     24          7           0      -28.099183    2.516886    0.880514
     25          6           0      -27.433907    3.484794    1.580738
     26          6           0      -28.096832    4.888373    1.371202
     27          6           0      -29.305221    4.569083    0.500623
     28          6           0      -29.215826    3.038043    0.249919
     29          6           0      -28.395269    5.644863    2.706810
     30          6           0      -29.251051    5.407288   -0.785697
     31          6           0      -30.500083    6.057682   -1.258489
     32          7           0      -28.820871    0.336386   -0.883206
     33          6           0      -29.895001    1.106084   -1.252144
     34          6           0      -30.711779    0.434732   -2.218503
     35          6           0      -29.975142   -0.794897   -2.588677
     36          6           0      -28.813691   -0.772979   -1.720155
     37          6           0      -32.046558    0.950191   -2.783311
     38          6           0      -29.930906   -2.017160   -3.430306
     39          8           0      -30.646196   -2.358129   -4.387628
     40          6           0      -28.643033   -2.789109   -2.925318
     41          6           0      -29.267910   -4.079534   -2.495557
     42          8           0      -29.768550   -4.361616   -1.413632
     43          8           0      -29.115826   -4.995891   -3.412085
     44          6           0      -29.799779   -6.303697   -3.265623
     45          1           0      -24.149510   -2.138501    2.116357
     46          1           0      -26.115112    4.055418    3.010538
     47          1           0      -30.938415    2.983191   -1.081738
     48          1           0      -26.986105   -4.372629   -0.786761
     49          1           0      -24.221947   -3.402045    0.211302
     50          1           0      -26.556622   -4.949807    1.467276
     51          1           0      -25.650394   -3.852366    2.458051
     52          1           0      -24.806404   -5.123500    1.575488
     53          1           0      -24.377955   -4.174022   -1.927642
     54          1           0      -25.301534   -2.994055   -2.871032
     55          1           0      -26.140050   -4.315495   -4.097656
     56          1           0      -26.421078   -5.581172   -2.771990
     57          1           0      -22.207329   -0.004527    4.108677
     58          1           0      -23.203048   -1.414286    3.771269
     59          1           0      -23.395537   -0.518359    5.264137
     60          1           0      -22.105213    1.994613    4.946587
     61          1           0      -23.218630    1.706997    6.174941
     62          1           0      -22.431326    3.330550    6.011510
     63          1           0      -27.309590    5.421738    0.838657
     64          1           0      -30.231973    4.873898    0.986466
     65          1           0      -27.962227    5.179006    3.591874
     66          1           0      -29.457297    5.745541    2.927471
     67          1           0      -28.116364    6.693563    2.605192
     68          1           0      -28.919882    4.678155   -1.524052
     69          1           0      -28.558514    6.247995   -0.752595
     70          1           0      -30.621315    5.702886   -2.281706
     71          1           0      -30.436890    7.137601   -1.125125
     72          1           0      -31.411089    5.714602   -0.767641
     73          1           0      -32.860522    0.580329   -2.160890
     74          1           0      -32.133205    0.610692   -3.815349
     75          1           0      -32.116012    2.037643   -2.748629
     76          1           0      -28.006352   -2.936231   -3.797535
     77          1           0      -29.504338   -6.861794   -2.377848
     78          1           0      -29.693292   -6.961595   -4.127914
     79          1           0      -30.887480   -6.285248   -3.204554
     80         12           0       28.180702   -0.256650   -0.499882
     81          6           0       25.018440   -0.657990    1.147308
     82          6           0       26.593093    2.393582   -2.293103
     83          6           0       31.154860    1.003943   -1.424086
     84          6           0       29.583298   -2.311049    1.847133
     85          7           0       26.084724    0.725866   -0.503400
     86          6           0       24.976040    0.385042    0.215029
     87          6           0       23.746884    1.291808   -0.142020
     88          6           0       24.241001    1.946411   -1.519749
     89          6           0       25.741684    1.740582   -1.388645
     90          6           0       23.720674    1.266607   -2.765456
     91          6           0       23.324919    2.212420    0.991138
     92          6           0       21.807391    2.337105    1.285390
     93          1           0       20.969333    3.594471    0.761416
     94          7           0       28.828528    1.448720   -1.810602
     95          6           0       27.981300    2.336045   -2.506594
     96          6           0       28.807738    3.224775   -3.332588
     97          6           0       30.169978    2.779214   -3.110029
     98          6           0       30.117898    1.794025   -2.051343
     99          6           0       28.343536    4.356298   -4.170200
    100          6           0       31.377149    3.272552   -3.867543
    101          8           0       31.195330    3.980048   -4.832748
    102          6           0       32.806211    2.932999   -3.511821
    103          7           0       30.007465   -0.544340    0.222939
    104          6           0       31.098175   -0.010821   -0.457867
    105          6           0       32.363532   -0.534476    0.225471
    106          6           0       31.853313   -1.734487    1.104442
    107          6           0       30.376088   -1.547247    1.019471
    108          6           0       33.614694   -0.856619   -0.671531
    109          6           0       32.409669   -1.871443    2.554951
    110          6           0       33.042421   -3.167906    2.943253
    111          7           0       27.498365   -1.377870    1.074262
    112          6           0       28.172148   -2.245221    1.916351
    113          6           0       27.221790   -3.040157    2.717944
    114          6           0       25.965432   -2.365550    2.461788
    115          6           0       26.221854   -1.391663    1.491816
    116          6           0       27.465205   -4.194378    3.654252
    117          6           0       24.514944   -2.391169    2.813125
    118          8           0       23.921836   -3.038544    3.628221
    119          6           0       23.914947   -1.213202    2.052349
    120          6           0       22.768595   -1.731725    1.236422
    121          8           0       22.998049   -2.502674    0.329435
    122          8           0       21.485536   -1.185664    1.540755
    123          6           0       20.373300   -1.534465    0.605579
    124          1           0       26.132946    3.176788   -2.899425
    125          1           0       32.190487    1.278207   -1.631802
    126          1           0       30.050148   -3.098556    2.441898
    127          1           0       22.887901    0.702246   -0.461149
    128          1           0       24.073756    3.023376   -1.531391
    129          1           0       24.329667    0.382699   -2.953615
    130          1           0       23.751053    2.003584   -3.567858
    131          1           0       22.703909    0.872434   -2.764263
    132          1           0       23.653379    3.210637    0.703342
    133          1           0       23.942109    1.976752    1.858067
    134          1           0       21.768471    2.315240    2.374741
    135          1           0       21.227819    1.482242    0.936741
    136          1           0       28.284114    3.974420   -5.188937
    137          1           0       29.124864    5.115379   -4.209154
    138          1           0       27.413477    4.873282   -3.930916
    139          1           0       33.567760    3.459451   -4.086805
    140          1           0       32.910359    1.867695   -3.718054
    141          1           0       33.133293    3.017299   -2.476138
    142          1           0       32.686365    0.345580    0.782448
    143          1           0       31.983743   -2.651569    0.530719
    144          1           0       33.316371   -0.998978   -1.710550
    145          1           0       34.159103   -1.712690   -0.273371
    146          1           0       34.335913   -0.041513   -0.616161
    147          1           0       31.604972   -1.660887    3.259311
    148          1           0       33.088804   -1.034146    2.715056
    149          1           0       32.371098   -3.705021    3.612950
    150          1           0       33.967709   -2.974323    3.485732
    151          1           0       33.291732   -3.867006    2.145296
    152          1           0       26.558105   -4.781585    3.795807
    153          1           0       27.809962   -3.760664    4.593359
    154          1           0       28.315873   -4.758551    3.271492
    155          1           0       23.678091   -0.440437    2.783829
    156          1           0       20.015917   -2.538388    0.835376
    157          1           0       20.727677   -1.569262   -0.424400
    158          1           0       19.569697   -0.801061    0.669385
 ---------------------------------------------------------------------

 SCF Done:  E(RwB97XD) =  -4070.60322882     A.U. after   17 cycles

 Excitation energies and oscillator strengths:

 Excited State   1:      Singlet-A      1.6114 eV  769.44 nm  f=0.3985  <S**2>=0.000
     309 -> 316       -0.17521
     312 -> 313        0.68623
     309 <- 316       -0.11591
 This state for optimization and/or second-order correction.
 Total Energy, E(TD-HF/TD-DFT) =  -4070.54401261
 Copying the excited state density for this state as the 1-particle RhoCI density.

 Excited State   2:      Singlet-A      1.7236 eV  719.31 nm  f=0.3812  <S**2>=0.000
     310 -> 315       -0.18634
     311 -> 314        0.68177
     310 <- 315       -0.11196

 Excited State   3:      Singlet-A      2.1685 eV  571.75 nm  f=0.1029  <S**2>=0.000
     310 -> 314        0.63396
     311 -> 315        0.29505

 Excited State   4:      Singlet-A      2.1826 eV  568.05 nm  f=0.1248  <S**2>=0.000
     309 -> 313        0.63924
     312 -> 316        0.28432

 Excited State   5:      Singlet-A      3.1514 eV  393.42 nm  f=0.0019  <S**2>=0.000
     306 -> 313       -0.12184
     307 -> 313        0.66861
     312 -> 316       -0.10231

 The electronic state is 1-A.
 Alpha  occ. eigenvalues --  -46.95690 -46.94874 -19.30539 -19.30466 -19.25704
 Alpha  occ. eigenvalues --  -19.24816 -19.24686 -19.23881 -19.23107 -19.22992
 Alpha  occ. eigenvalues --  -14.47423 -14.47176 -14.46492 -14.46286 -14.44469
 Alpha  occ. eigenvalues --  -14.43970 -14.43769 -14.43552 -10.44140 -10.42453
 Alpha  occ. eigenvalues --  -10.40013 -10.39467 -10.39438 -10.38470 -10.36064
 Alpha  occ. eigenvalues --  -10.35756 -10.35679 -10.35473 -10.35443 -10.35356
 Alpha  occ. eigenvalues --  -10.35288 -10.34899 -10.34874 -10.34726 -10.34503
 Alpha  occ. eigenvalues --  -10.34498 -10.34326 -10.34308 -10.33669 -10.33529
 Alpha  occ. eigenvalues --  -10.33253 -10.33140 -10.33119 -10.32927 -10.32875
 Alpha  occ. eigenvalues --  -10.32819 -10.32811 -10.32781 -10.32720 -10.32717
 Alpha  occ. eigenvalues --  -10.32654 -10.32368 -10.32224 -10.32148 -10.32113
 Alpha  occ. eigenvalues --  -10.32086 -10.32027 -10.32013 -10.31853 -10.31755
 Alpha  occ. eigenvalues --  -10.31650 -10.31535 -10.31318 -10.31067 -10.31065
 Alpha  occ. eigenvalues --  -10.31001 -10.30879 -10.30625 -10.30513 -10.30431
 Alpha  occ. eigenvalues --  -10.30429 -10.30413 -10.30384 -10.30322 -10.30314
 Alpha  occ. eigenvalues --  -10.29930 -10.29905 -10.29762 -10.29734 -10.29706
 Alpha  occ. eigenvalues --  -10.29649 -10.29559 -10.29453 -10.29299 -10.29121
 Alpha  occ. eigenvalues --  -10.28649  -3.21723  -3.20903  -1.95254  -1.94846
 Alpha  occ. eigenvalues --   -1.94695  -1.94495  -1.94028  -1.93879  -1.19951
 Alpha  occ. eigenvalues --   -1.17555  -1.14018  -1.12421  -1.12366  -1.10576
 Alpha  occ. eigenvalues --   -1.10126  -1.08636  -1.07495  -1.06602  -1.06120
 Alpha  occ. eigenvalues --   -1.05615  -1.04825  -1.04782  -1.03560  -1.03335
 Alpha  occ. eigenvalues --   -0.94779  -0.93774  -0.91489  -0.91286  -0.90962
 Alpha  occ. eigenvalues --   -0.90785  -0.90694  -0.90369  -0.89708  -0.89555
 Alpha  occ. eigenvalues --   -0.88683  -0.88196  -0.87610  -0.87045  -0.86424
 Alpha  occ. eigenvalues --   -0.86210  -0.85874  -0.85359  -0.84773  -0.84671
 Alpha  occ. eigenvalues --   -0.84430  -0.83760  -0.82763  -0.82519  -0.82499
 Alpha  occ. eigenvalues --   -0.82198  -0.80795  -0.80108  -0.79459  -0.79411
 Alpha  occ. eigenvalues --   -0.78775  -0.78768  -0.78281  -0.78088  -0.77188
 Alpha  occ. eigenvalues --   -0.77128  -0.74668  -0.74193  -0.73806  -0.73775
 Alpha  occ. eigenvalues --   -0.71464  -0.71228  -0.70921  -0.70115  -0.69941
 Alpha  occ. eigenvalues --   -0.69594  -0.68970  -0.68708  -0.67877  -0.67772
 Alpha  occ. eigenvalues --   -0.67195  -0.67086  -0.66876  -0.66576  -0.66344
 Alpha  occ. eigenvalues --   -0.66195  -0.64369  -0.64366  -0.63017  -0.61826
 Alpha  occ. eigenvalues --   -0.61528  -0.61487  -0.61215  -0.61067  -0.60940
 Alpha  occ. eigenvalues --   -0.60464  -0.60350  -0.59776  -0.59654  -0.59643
 Alpha  occ. eigenvalues --   -0.58748  -0.58518  -0.57625  -0.57543  -0.57445
 Alpha  occ. eigenvalues --   -0.56931  -0.56256  -0.56215  -0.56123  -0.55856
 Alpha  occ. eigenvalues --   -0.55766  -0.55552  -0.55334  -0.55080  -0.54907
 Alpha  occ. eigenvalues --   -0.54864  -0.54587  -0.54492  -0.54190  -0.54053
 Alpha  occ. eigenvalues --   -0.53790  -0.53693  -0.53352  -0.53261  -0.53050
 Alpha  occ. eigenvalues --   -0.52860  -0.52556  -0.52412  -0.52362  -0.51974
 Alpha  occ. eigenvalues --   -0.51889  -0.51863  -0.51832  -0.51698  -0.51671
 Alpha  occ. eigenvalues --   -0.51391  -0.51262  -0.51045  -0.51035  -0.50667
 Alpha  occ. eigenvalues --   -0.50597  -0.50549  -0.50459  -0.50123  -0.50115
 Alpha  occ. eigenvalues --   -0.50014  -0.49732  -0.49623  -0.49332  -0.49030
 Alpha  occ. eigenvalues --   -0.48954  -0.48566  -0.48392  -0.48363  -0.48263
 Alpha  occ. eigenvalues --   -0.48152  -0.48009  -0.48005  -0.47924  -0.47772
 Alpha  occ. eigenvalues --   -0.47768  -0.47528  -0.47395  -0.47222  -0.47064
 Alpha  occ. eigenvalues --   -0.46971  -0.46925  -0.46619  -0.46553  -0.46302
 Alpha  occ. eigenvalues --   -0.46203  -0.45933  -0.45741  -0.45588  -0.45423
 Alpha  occ. eigenvalues --   -0.45265  -0.45172  -0.45005  -0.44836  -0.44749
 Alpha  occ. eigenvalues --   -0.44573  -0.44507  -0.44416  -0.44281  -0.43972
 Alpha  occ. eigenvalues --   -0.43855  -0.43628  -0.43572  -0.43302  -0.43150
 Alpha  occ. eigenvalues --   -0.43040  -0.42751  -0.42700  -0.42491  -0.42322
 Alpha  occ. eigenvalues --   -0.42174  -0.41973  -0.41731  -0.41408  -0.41204
 Alpha  occ. eigenvalues --   -0.40439  -0.40352  -0.39875  -0.39674  -0.39374
 Alpha  occ. eigenvalues --   -0.39279  -0.39181  -0.38705  -0.38632  -0.38366
 Alpha  occ. eigenvalues --   -0.37786  -0.37776  -0.37020  -0.36418  -0.36411
 Alpha  occ. eigenvalues --   -0.35525  -0.35478  -0.35147  -0.34131  -0.33824
 Alpha  occ. eigenvalues --   -0.33655  -0.33341  -0.32609  -0.32490  -0.32418
 Alpha  occ. eigenvalues --   -0.31883  -0.30934  -0.30827  -0.26246  -0.25864
 Alpha  occ. eigenvalues --   -0.23013  -0.22940
 Alpha virt. eigenvalues --   -0.07362  -0.06863   0.00055   0.00414   0.01852
 Alpha virt. eigenvalues --    0.02699   0.04165   0.04214   0.04801   0.05776
 Alpha virt. eigenvalues --    0.06490   0.06895   0.07698   0.07957   0.08337

 Mulliken charges:
               1
     1  Mg   0.972825
     2  C    0.039421
     3  C   -0.094787
     4  C   -0.084698
     5  C   -0.089090
     6  N   -0.280153
     7  C   -0.033536
     8  C   -0.039544
     9  C   -0.125368
    10  C    0.009589
    11  C    0.001845
    12  C   -0.006408
    13  C   -0.125603
    14  H    0.045855
    15  N   -0.445337
    16  C    0.189043
    17  C   -0.135221
    18  C   -0.078098
    19  C    0.174014
    20  C    0.050387
    21  C    0.084198
    22  O   -0.232494
    23  C   -0.006678
    24  N   -0.424731
    25  C    0.030674
    26  C   -0.065397
    27  C   -0.064840
    28  C    0.113755
    29  C    0.012652
    30  C   -0.040719
    31  C   -0.047848
    32  N   -0.454770
    33  C    0.145723
    34  C   -0.198985
    35  C   -0.045504
    36  C    0.123182
    37  C    0.077724
    38  C    0.112849
    39  O   -0.226542
    40  C   -0.112890
    41  C    0.233183
    42  O   -0.268709
    43  O   -0.310185
    44  C    0.148260
    45  H    0.001877
    46  H    0.016026
    47  H   -0.006119
    48  H    0.060625
    49  H    0.045622
    50  H    0.052699
    51  H    0.037784
    52  H    0.037502
    53  H    0.038503
    54  H    0.032722
    55  H    0.062059
    56  H    0.051830
    57  H    0.054700
    58  H    0.035482
    59  H    0.048425
    60  H    0.039589
    61  H    0.049797
    62  H    0.061278
    63  H    0.053967
    64  H    0.031678
    65  H    0.057299
    66  H    0.025270
    67  H    0.035166
    68  H    0.036538
    69  H    0.031248
    70  H    0.037266
    71  H    0.043611
    72  H    0.025480
    73  H    0.056355
    74  H    0.061399
    75  H    0.025321
    76  H    0.075640
    77  H    0.050761
    78  H    0.052458
    79  H    0.053101
    80  Mg   0.981207
    81  C   -0.076514
    82  C   -0.054033
    83  C   -0.079907
    84  C   -0.124284
    85  N   -0.312893
    86  C   -0.015936
    87  C   -0.065936
    88  C   -0.119810
    89  C    0.049031
    90  C    0.041517
    91  C    0.037298
    92  C   -0.107596
    93  H    0.023511
    94  N   -0.419589
    95  C    0.112369
    96  C   -0.143737
    97  C   -0.073673
    98  C    0.168571
    99  C    0.081098
   100  C    0.035473
   101  O   -0.234903
   102  C   -0.012072
   103  N   -0.451534
   104  C    0.092132
   105  C   -0.128624
   106  C   -0.033733
   107  C    0.088920
   108  C    0.013819
   109  C    0.000967
   110  C   -0.047257
   111  N   -0.442225
   112  C    0.135476
   113  C   -0.189495
   114  C   -0.106266
   115  C    0.178184
   116  C    0.090761
   117  C    0.132644
   118  O   -0.174093
   119  C   -0.015131
   120  C    0.278259
   121  O   -0.234414
   122  O   -0.404953
   123  C    0.133355
   124  H   -0.006115
   125  H   -0.037483
   126  H   -0.011862
   127  H    0.025592
   128  H    0.028721
   129  H    0.043280
   130  H    0.042631
   131  H    0.036693
   132  H    0.037375
   133  H    0.040628
   134  H    0.055478
   135  H    0.048110
   136  H    0.055535
   137  H    0.053891
   138  H    0.036866
   139  H    0.051258
   140  H    0.050102
   141  H    0.057948
   142  H    0.051517
   143  H    0.033594
   144  H    0.044836
   145  H    0.038355
   146  H    0.031066
   147  H    0.038642
   148  H    0.025393
   149  H    0.036247
   150  H    0.036920
   151  H    0.035859
   152  H    0.071567
   153  H    0.053869
   154  H    0.034445
   155  H    0.072699
   156  H    0.063776
   157  H    0.051511
   158  H    0.065077
 Sum of Mulliken charges =  -0.00000

 Dipole moment (field-independent basis, Debye):
    X=              6.3557    Y=             -0.9144    Z=              2.6555  Tot=              6.9486
 Quadrupole moment (field-independent basis, Debye-Ang):
   XX=           -629.3750   YY=           -502.3077   ZZ=           -539.2137
   XY=            -53.1520   XZ=            -31.8439   YZ=              2.2517

 Normal termination of Gaussian 16 at Mon Sep 20 13:56:36 2021.
