 Gaussian 16, Revision A.03,
 Gaussian 16:  ES64L-G16RevA.03 25-Dec-2016

 --------------------------------
 #p wB97XD/Def2SVP td=(nstates=5)
 --------------------------------

 --------------------------------
 TDDFT excited states in gaussian
 --------------------------------
 Symbolic Z-matrix:
 Charge =  0 Multiplicity = 1

                         Standard orientation:
 ---------------------------------------------------------------------
 Center     Atomic      Atomic             Coordinates (Angstroms)
 Number     Number       Type             X           Y           Z
 ---------------------------------------------------------------------
      1         12           0      -22.882177    0.605838    0.230663
      2          6           0      -21.687905   -2.398051   -1.210483
      3          6           0      -21.328591    2.297114   -2.242234
      4          6           0      -23.898245    3.357595    1.684536
      5          6           0      -23.790713   -1.330566    3.110376
      6          7           0      -21.530897    0.035100   -1.516391
      7          6           0      -21.433322   -1.258225   -2.001739
      8          6           0      -20.876258   -1.160938   -3.380879
      9          6           0      -20.262788    0.237579   -3.455858
     10          6           0      -21.087311    0.956298   -2.358723
     11          6           0      -18.736462    0.203937   -3.069976
     12          6           0      -21.906644   -1.427556   -4.605545
     13          6           0      -21.470011   -2.282564   -5.834434
     14          1           0      -20.110529   -1.914816   -6.496273
     15          7           0      -22.610645    2.578788   -0.249742
     16          6           0      -21.974722    3.039408   -1.286327
     17          6           0      -22.002463    4.511189   -1.228180
     18          6           0      -22.931722    4.876635   -0.207557
     19          6           0      -23.174553    3.581962    0.489942
     20          6           0      -21.226856    5.544806   -2.123433
     21          6           0      -23.552404    6.221672    0.168599
     22          8           0      -24.267424    6.407955    1.171696
     23          6           0      -23.128155    7.406238   -0.561657
     24          7           0      -23.590490    0.952310    2.263858
     25          6           0      -24.062095    2.226667    2.567804
     26          6           0      -24.865376    2.163408    3.923896
     27          6           0      -24.911052    0.647557    4.239626
     28          6           0      -24.078592    0.025937    3.116017
     29          6           0      -24.295092    3.087734    4.999987
     30          6           0      -26.318468    0.034963    4.451120
     31          6           0      -26.483577   -1.022783    5.567215
     32          7           0      -22.772269   -1.420819    0.877897
     33          6           0      -23.124604   -2.047725    2.068924
     34          6           0      -22.974803   -3.470670    1.899375
     35          6           0      -22.363577   -3.643219    0.656566
     36          6           0      -22.257578   -2.369270    0.033313
     37          6           0      -23.379091   -4.476786    2.790753
     38          6           0      -21.866946   -4.625876   -0.317979
     39          8           0      -21.818880   -5.845736   -0.314694
     40          6           0      -21.427869   -3.835152   -1.593655
     41          6           0      -19.974439   -4.182892   -1.861721
     42          8           0      -18.924903   -3.762573   -1.429966
     43          8           0      -20.088751   -5.094456   -2.871248
     44          6           0      -18.867702   -5.424157   -3.644438
     45          1           0      -20.906595    2.852547   -3.082849
     46          1           0      -24.393511    4.269421    2.024553
     47          1           0      -24.260495   -1.955230    3.872369
     48          1           0      -20.083677   -1.867847   -3.627489
     49          1           0      -20.509717    0.756515   -4.381729
     50          1           0      -18.132246    0.944643   -3.592699
     51          1           0      -18.238650   -0.720408   -3.364039
     52          1           0      -18.712512    0.441507   -2.007001
     53          1           0      -22.335515   -0.479075   -4.927211
     54          1           0      -22.801180   -1.923079   -4.226408
     55          1           0      -22.228538   -2.022378   -6.573594
     56          1           0      -21.510170   -3.291397   -5.423579
     57          1           0      -21.844874    6.127659   -2.806020
     58          1           0      -20.494956    4.977136   -2.698726
     59          1           0      -20.745238    6.359046   -1.581928
     60          1           0      -23.264378    7.271934   -1.635064
     61          1           0      -22.083432    7.636677   -0.352577
     62          1           0      -23.843545    8.193402   -0.325574
     63          1           0      -25.894381    2.420945    3.672602
     64          1           0      -24.272004    0.414500    5.091112
     65          1           0      -23.541005    2.545679    5.571579
     66          1           0      -25.014401    3.402059    5.755553
     67          1           0      -23.687048    3.854772    4.521503
     68          1           0      -26.776011   -0.351526    3.540548
     69          1           0      -27.050278    0.811134    4.678981
     70          1           0      -26.424711   -1.974880    5.039618
     71          1           0      -27.507857   -0.894924    5.918836
     72          1           0      -25.700607   -0.905194    6.315868
     73          1           0      -22.911292   -5.460282    2.752116
     74          1           0      -24.462424   -4.558891    2.697274
     75          1           0      -23.122356   -4.101579    3.780753
     76          1           0      -22.061295   -4.107393   -2.437703
     77          1           0      -19.196438   -5.434626   -4.683235
     78          1           0      -18.412836   -6.392482   -3.437311
     79          1           0      -18.125712   -4.635578   -3.521940
     80         12           0       22.703598    0.550759   -0.291653
     81          6           0       21.334097   -2.595546    0.513531
     82          6           0       19.604410    1.517666   -1.131157
     83          6           0       23.991870    3.545831   -0.516400
     84          6           0       25.677863   -0.577747    1.336441
     85          7           0       20.698997   -0.438914   -0.254578
     86          6           0       20.355315   -1.719498    0.020612
     87          6           0       18.887496   -2.018228   -0.208004
     88          6           0       18.462271   -0.717339   -1.000344
     89          6           0       19.632471    0.223102   -0.799268
     90          6           0       18.145484   -0.944794   -2.536004
     91          6           0       17.896496   -2.327215    0.997540
     92          6           0       18.278969   -2.002734    2.466056
     93          1           0       17.128751   -1.566709    3.448731
     94          7           0       21.870562    2.280675   -0.907179
     95          6           0       20.581727    2.523287   -1.104819
     96          6           0       20.398492    3.978194   -1.359448
     97          6           0       21.772691    4.554583   -1.336876
     98          6           0       22.607351    3.438507   -0.891179
     99          6           0       19.092225    4.604684   -1.766967
    100          6           0       22.126259    5.997928   -1.583419
    101          8           0       21.232788    6.776415   -1.907422
    102          6           0       23.554500    6.631838   -1.400611
    103          7           0       24.603433    1.442736    0.443273
    104          6           0       24.844904    2.635966    0.022538
    105          6           0       26.355214    2.977295    0.398826
    106          6           0       26.740558    1.727422    1.192868
    107          6           0       25.578689    0.771254    1.003846
    108          6           0       27.346571    3.325939   -0.723862
    109          6           0       26.830597    1.974469    2.787098
    110          6           0       28.228541    1.857574    3.421719
    111          7           0       23.403060   -1.149294    0.773646
    112          6           0       24.632433   -1.514119    1.255382
    113          6           0       24.663938   -2.967355    1.563874
    114          6           0       23.328181   -3.434362    1.407810
    115          6           0       22.656343   -2.279211    0.815198
    116          6           0       25.840318   -3.768487    2.165070
    117          6           0       22.411653   -4.518504    1.529625
    118          8           0       22.466117   -5.647003    2.047738
    119          6           0       21.084277   -4.049760    0.881103
    120          6           0       20.784280   -5.020747   -0.264541
    121          8           0       19.982922   -5.907779   -0.393489
    122          8           0       21.514725   -4.598102   -1.380490
    123          6           0       21.296961   -5.326732   -2.668716
    124          1           0       18.583624    1.807319   -1.389869
    125          1           0       24.386561    4.556350   -0.647073
    126          1           0       26.664788   -0.972456    1.585273
    127          1           0       18.884755   -2.847773   -0.914843
    128          1           0       17.546317   -0.316363   -0.566110
    129          1           0       18.328895   -1.979884   -2.822232
    130          1           0       18.948679   -0.378956   -3.006756
    131          1           0       17.136197   -0.597520   -2.757764
    132          1           0       17.649722   -3.387110    0.934352
    133          1           0       16.945678   -1.828580    0.806333
    134          1           0       19.003239   -1.190326    2.406229
    135          1           0       18.627913   -2.866419    3.031249
    136          1           0       19.204266    5.612334   -2.166654
    137          1           0       18.423017    4.498114   -0.912385
    138          1           0       18.686920    3.900237   -2.494064
    139          1           0       24.430308    6.196508   -1.883282
    140          1           0       23.816757    6.568122   -0.344546
    141          1           0       23.584509    7.672701   -1.721510
    142          1           0       26.418913    3.875035    1.012802
    143          1           0       27.684251    1.229811    0.966724
    144          1           0       26.868093    3.322748   -1.703354
    145          1           0       28.219068    2.671914   -0.708895
    146          1           0       27.749280    4.336073   -0.649271
    147          1           0       26.220531    1.261956    3.340609
    148          1           0       26.425242    2.973599    2.948330
    149          1           0       28.250710    1.475394    4.442582
    150          1           0       28.601966    2.880175    3.475237
    151          1           0       28.754405    1.186205    2.742764
    152          1           0       26.650675   -3.164135    2.571406
    153          1           0       26.220930   -4.346306    1.323192
    154          1           0       25.432916   -4.484863    2.878036
    155          1           0       20.285046   -4.099295    1.619875
    156          1           0       21.027126   -6.381928   -2.631683
    157          1           0       22.281233   -5.299872   -3.135869
    158          1           0       20.636303   -4.881668   -3.413004
 ---------------------------------------------------------------------

 SCF Done:  E(RwB97XD) =  -4070.58637787     A.U. after   19 cycles

 Excitation energies and oscillator strengths:

 Excited State   1:      Singlet-A      1.6742 eV  740.54 nm  f=0.3739  <S**2>=0.000
     310 -> 315       -0.19699
     312 -> 314        0.67923
     310 <- 315       -0.11759
 This state for optimization and/or second-order correction.
 Total Energy, E(TD-HF/TD-DFT) =  -4070.52485068
 Copying the excited state density for this state as the 1-particle RhoCI density.

 Excited State   2:      Singlet-A      1.7164 eV  722.37 nm  f=0.4127  <S**2>=0.000
     309 -> 316        0.19061
     311 -> 313        0.68127
     309 <- 316        0.11530

 Excited State   3:      Singlet-A      2.2066 eV  561.87 nm  f=0.0675  <S**2>=0.000
     310 -> 314        0.62033
     312 -> 315        0.32390

 Excited State   4:      Singlet-A      2.2310 eV  555.74 nm  f=0.0955  <S**2>=0.000
     309 -> 313        0.63455
     311 -> 316       -0.29971

 Excited State   5:      Singlet-A      3.4059 eV  364.03 nm  f=0.1382  <S**2>=0.000
     308 -> 314        0.57096
     310 -> 314        0.13923
     312 -> 315       -0.36127

 The electronic state is 1-A.
 Alpha  occ. eigenvalues --  -46.96412 -46.95695 -19.29872 -19.29592 -19.25393
 Alpha  occ. eigenvalues --  -19.24961 -19.24607 -19.24292 -19.23716 -19.23580
 Alpha  occ. eigenvalues --  -14.46915 -14.46382 -14.46352 -14.45990 -14.45063
 Alpha  occ. eigenvalues --  -14.44720 -14.44420 -14.43547 -10.43781 -10.43074
 Alpha  occ. eigenvalues --  -10.39777 -10.39555 -10.39484 -10.38820 -10.35764
 Alpha  occ. eigenvalues --  -10.35648 -10.35577 -10.35187 -10.35147 -10.35126
 Alpha  occ. eigenvalues --  -10.34819 -10.34809 -10.34762 -10.34694 -10.34426
 Alpha  occ. eigenvalues --  -10.34315 -10.34176 -10.34070 -10.34032 -10.33979
 Alpha  occ. eigenvalues --  -10.33824 -10.33822 -10.33639 -10.33550 -10.33373
 Alpha  occ. eigenvalues --  -10.33065 -10.32876 -10.32864 -10.32188 -10.32065
 Alpha  occ. eigenvalues --  -10.31962 -10.31951 -10.31944 -10.31917 -10.31820
 Alpha  occ. eigenvalues --  -10.31686 -10.31629 -10.31605 -10.31570 -10.31568
 Alpha  occ. eigenvalues --  -10.31524 -10.31426 -10.31337 -10.31318 -10.31287
 Alpha  occ. eigenvalues --  -10.31240 -10.31125 -10.31122 -10.30973 -10.30755
 Alpha  occ. eigenvalues --  -10.30557 -10.30450 -10.30423 -10.30342 -10.30325
 Alpha  occ. eigenvalues --  -10.30292 -10.30216 -10.30020 -10.29910 -10.29620
 Alpha  occ. eigenvalues --  -10.29608 -10.29549 -10.29458 -10.29258 -10.29080
 Alpha  occ. eigenvalues --  -10.28826  -3.22341  -3.21540  -1.95918  -1.95461
 Alpha  occ. eigenvalues --   -1.95310  -1.95123  -1.94661  -1.94498  -1.18276
 Alpha  occ. eigenvalues --   -1.18255  -1.11813  -1.11743  -1.11635  -1.11571
 Alpha  occ. eigenvalues --   -1.09953  -1.09528  -1.08742  -1.07175  -1.06844
 Alpha  occ. eigenvalues --   -1.06061  -1.05933  -1.05330  -1.05037  -1.04079
 Alpha  occ. eigenvalues --   -0.95618  -0.94733  -0.91731  -0.90752  -0.90730
 Alpha  occ. eigenvalues --   -0.90479  -0.90353  -0.90208  -0.89865  -0.89475
 Alpha  occ. eigenvalues --   -0.89061  -0.88904  -0.88794  -0.87323  -0.86836
 Alpha  occ. eigenvalues --   -0.86125  -0.85836  -0.85470  -0.84785  -0.84599
 Alpha  occ. eigenvalues --   -0.84394  -0.83712  -0.83432  -0.82778  -0.82554
 Alpha  occ. eigenvalues --   -0.82477  -0.80477  -0.80334  -0.79644  -0.79359
 Alpha  occ. eigenvalues --   -0.78948  -0.78938  -0.78622  -0.77773  -0.77312
 Alpha  occ. eigenvalues --   -0.77035  -0.75338  -0.74482  -0.74383  -0.73776
 Alpha  occ. eigenvalues --   -0.71605  -0.71200  -0.70848  -0.70655  -0.70602
 Alpha  occ. eigenvalues --   -0.69682  -0.69507  -0.69313  -0.68784  -0.67646
 Alpha  occ. eigenvalues --   -0.67510  -0.67415  -0.67272  -0.66954  -0.66881
 Alpha  occ. eigenvalues --   -0.66312  -0.65188  -0.63924  -0.62595  -0.62474
 Alpha  occ. eigenvalues --   -0.62213  -0.61545  -0.61452  -0.61217  -0.60537
 Alpha  occ. eigenvalues --   -0.60277  -0.60094  -0.59882  -0.59483  -0.59259
 Alpha  occ. eigenvalues --   -0.58352  -0.58147  -0.57867  -0.57845  -0.57655
 Alpha  occ. eigenvalues --   -0.57122  -0.57034  -0.56513  -0.56390  -0.55917
 Alpha  occ. eigenvalues --   -0.55626  -0.55594  -0.55495  -0.55171  -0.55123
 Alpha  occ. eigenvalues --   -0.54902  -0.54864  -0.54720  -0.54320  -0.54022
 Alpha  occ. eigenvalues --   -0.53969  -0.53668  -0.53591  -0.53534  -0.53491
 Alpha  occ. eigenvalues --   -0.53221  -0.53138  -0.53029  -0.52706  -0.52531
 Alpha  occ. eigenvalues --   -0.52334  -0.51958  -0.51884  -0.51752  -0.51581
 Alpha  occ. eigenvalues --   -0.51463  -0.51316  -0.50995  -0.50919  -0.50802
 Alpha  occ. eigenvalues --   -0.50719  -0.50478  -0.50455  -0.50239  -0.50087
 Alpha  occ. eigenvalues --   -0.49801  -0.49558  -0.49533  -0.49377  -0.49298
 Alpha  occ. eigenvalues --   -0.49210  -0.49016  -0.48878  -0.48842  -0.48581
 Alpha  occ. eigenvalues --   -0.48561  -0.48237  -0.48178  -0.48050  -0.47845
 Alpha  occ. eigenvalues --   -0.47799  -0.47493  -0.47452  -0.47299  -0.46954
 Alpha  occ. eigenvalues --   -0.46803  -0.46788  -0.46593  -0.46290  -0.46125
 Alpha  occ. eigenvalues --   -0.45988  -0.45912  -0.45754  -0.45605  -0.45522
 Alpha  occ. eigenvalues --   -0.45259  -0.45089  -0.44933  -0.44878  -0.44674
 Alpha  occ. eigenvalues --   -0.44583  -0.44257  -0.44215  -0.44076  -0.44048
 Alpha  occ. eigenvalues --   -0.44002  -0.43909  -0.43488  -0.43366  -0.43189
 Alpha  occ. eigenvalues --   -0.43116  -0.42854  -0.42786  -0.42599  -0.42425
 Alpha  occ. eigenvalues --   -0.42111  -0.41884  -0.41750  -0.41469  -0.41148
 Alpha  occ. eigenvalues --   -0.40765  -0.40657  -0.40135  -0.39725  -0.39678
 Alpha  occ. eigenvalues --   -0.39316  -0.38894  -0.38720  -0.38562  -0.38459
 Alpha  occ. eigenvalues --   -0.38277  -0.37823  -0.37066  -0.36636  -0.36263
 Alpha  occ. eigenvalues --   -0.35901  -0.35866  -0.35300  -0.34096  -0.33673
 Alpha  occ. eigenvalues --   -0.33490  -0.33351  -0.33273  -0.32872  -0.32718
 Alpha  occ. eigenvalues --   -0.32422  -0.31426  -0.31409  -0.26424  -0.25877
 Alpha  occ. eigenvalues --   -0.23348  -0.22762
 Alpha virt. eigenvalues --   -0.07266  -0.06609  -0.00132  -0.00131   0.01412
 Alpha virt. eigenvalues --    0.01939   0.03848   0.04298   0.04516   0.05032
 Alpha virt. eigenvalues --    0.06812   0.07190   0.07866   0.07967   0.08057

 Mulliken charges:
               1
     1  Mg   0.942151
     2  C   -0.051943
     3  C   -0.101196
     4  C   -0.067678
     5  C   -0.090822
     6  N   -0.320405
     7  C    0.052378
     8  C   -0.094532
     9  C   -0.080716
    10  C   -0.005996
    11  C    0.041924
    12  C   -0.020886
    13  C   -0.113962
    14  H    0.029604
    15  N   -0.428121
    16  C    0.195047
    17  C   -0.167322
    18  C   -0.071037
    19  C    0.113698
    20  C    0.058720
    21  C    0.067044
    22  O   -0.250770
    23  C   -0.004358
    24  N   -0.356203
    25  C    0.033331
    26  C   -0.062168
    27  C   -0.056348
    28  C    0.068426
    29  C    0.048399
    30  C   -0.039073
    31  C   -0.040876
    32  N   -0.439520
    33  C    0.135422
    34  C   -0.196831
    35  C   -0.015708
    36  C    0.167509
    37  C    0.061217
    38  C    0.109513
    39  O   -0.199661
    40  C   -0.077080
    41  C    0.279474
    42  O   -0.226437
    43  O   -0.373848
    44  C    0.131587
    45  H   -0.012442
    46  H    0.026191
    47  H   -0.012865
    48  H    0.024514
    49  H    0.020069
    50  H    0.029356
    51  H    0.045932
    52  H    0.057443
    53  H    0.021566
    54  H    0.024522
    55  H    0.065199
    56  H    0.071870
    57  H    0.043677
    58  H    0.041012
    59  H    0.041512
    60  H    0.037743
    61  H    0.075232
    62  H    0.054607
    63  H    0.039191
    64  H    0.033363
    65  H    0.015976
    66  H    0.046695
    67  H    0.047940
    68  H    0.025299
    69  H    0.022963
    70  H    0.043240
    71  H    0.039842
    72  H    0.045440
    73  H    0.060020
    74  H    0.054163
    75  H    0.037956
    76  H    0.081370
    77  H    0.047532
    78  H    0.063827
    79  H    0.058099
    80  Mg   0.957847
    81  C   -0.036435
    82  C   -0.091800
    83  C   -0.036421
    84  C   -0.103742
    85  N   -0.341126
    86  C   -0.037699
    87  C    0.005159
    88  C   -0.158182
    89  C    0.057875
    90  C    0.033606
    91  C    0.002372
    92  C   -0.150085
    93  H    0.026923
    94  N   -0.476250
    95  C    0.164728
    96  C   -0.173382
    97  C   -0.081334
    98  C    0.167357
    99  C    0.085943
   100  C    0.055544
   101  O   -0.240359
   102  C   -0.027167
   103  N   -0.274008
   104  C    0.045591
   105  C   -0.055752
   106  C   -0.126004
   107  C    0.077620
   108  C    0.014305
   109  C   -0.041888
   110  C   -0.039891
   111  N   -0.401966
   112  C    0.126885
   113  C   -0.186227
   114  C   -0.008798
   115  C    0.160888
   116  C    0.075243
   117  C    0.093829
   118  O   -0.218069
   119  C   -0.083269
   120  C    0.279601
   121  O   -0.209522
   122  O   -0.398034
   123  C    0.134881
   124  H   -0.010917
   125  H   -0.053791
   126  H    0.002652
   127  H    0.040942
   128  H    0.037052
   129  H    0.035436
   130  H    0.038105
   131  H    0.054860
   132  H    0.045367
   133  H    0.044661
   134  H    0.072938
   135  H    0.074399
   136  H    0.077677
   137  H    0.041061
   138  H    0.036918
   139  H    0.056539
   140  H    0.057181
   141  H    0.052396
   142  H    0.035505
   143  H    0.023172
   144  H    0.033243
   145  H    0.035994
   146  H    0.027104
   147  H    0.043339
   148  H    0.025246
   149  H    0.043768
   150  H    0.037803
   151  H    0.028137
   152  H    0.042826
   153  H    0.054955
   154  H    0.069755
   155  H    0.068915
   156  H    0.065925
   157  H    0.044838
   158  H    0.047209
 Sum of Mulliken charges =  -0.00000

 Dipole moment (field-independent basis, Debye):
    X=              1.9685    Y=              4.4917    Z=             -4.7557  Tot=              6.8313
 Quadrupole moment (field-independent basis, Debye-Ang):
   XX=           -245.0575   YY=           -586.4832   ZZ=           -477.5102
   XY=            -11.6135   XZ=             13.2263   YZ=             16.4193

 Normal termination of Gaussian 16 at Sun Sep 19 13:41:46 2021.
