 Gaussian 16, Revision A.03,
 Gaussian 16:  ES64L-G16RevA.03 25-Dec-2016

 --------------------------------
 #p wB97XD/Def2SVP td=(nstates=5)
 --------------------------------

 --------------------------------
 TDDFT excited states in gaussian
 --------------------------------
 Symbolic Z-matrix:
 Charge =  0 Multiplicity = 1

                         Standard orientation:
 ---------------------------------------------------------------------
 Center     Atomic      Atomic             Coordinates (Angstroms)
 Number     Number       Type             X           Y           Z
 ---------------------------------------------------------------------
      1         12           0       24.883081   -0.794610    0.297841
      2          6           0       25.001767    2.280693   -1.240350
      3          6           0       25.066333    0.854057    3.381168
      4          6           0       24.865587   -3.773675    1.885057
      5          6           0       25.085254   -2.335762   -2.718983
      6          7           0       25.287900    1.351366    0.957281
      7          6           0       25.051885    2.447182    0.117790
      8          6           0       24.855293    3.753517    0.912179
      9          6           0       25.000618    3.221761    2.385531
     10          6           0       25.079285    1.713055    2.292774
     11          6           0       26.193432    3.818793    3.121528
     12          6           0       23.543971    4.592644    0.711277
     13          6           0       23.697800    6.049985    0.011151
     14          1           0       23.194568    7.164570    0.933624
     15          7           0       25.056462   -1.388195    2.294472
     16          6           0       24.988020   -0.549046    3.418344
     17          6           0       24.797044   -1.321299    4.650469
     18          6           0       24.809620   -2.769025    4.265269
     19          6           0       24.847966   -2.724293    2.749034
     20          6           0       24.671794   -0.682672    6.016130
     21          6           0       24.745210   -3.981592    5.068155
     22          8           0       24.872219   -5.087836    4.522841
     23          6           0       24.595446   -3.967993    6.579347
     24          7           0       25.046725   -2.689135   -0.339405
     25          6           0       24.882304   -3.819838    0.481977
     26          6           0       24.768936   -5.196314   -0.289716
     27          6           0       24.881271   -4.647099   -1.804401
     28          6           0       24.994172   -3.119024   -1.602680
     29          6           0       25.904144   -6.270179    0.088916
     30          6           0       23.642649   -5.068604   -2.667543
     31          6           0       23.877708   -5.438916   -4.098479
     32          7           0       25.123917   -0.131562   -1.623281
     33          6           0       25.136376   -0.898778   -2.791680
     34          6           0       25.082134   -0.068455   -3.946078
     35          6           0       24.927387    1.241760   -3.359236
     36          6           0       25.040990    1.111684   -1.969294
     37          6           0       25.042652   -0.398115   -5.379179
     38          6           0       24.876708    2.634471   -3.677172
     39          8           0       24.803661    3.291133   -4.721710
     40          6           0       25.073853    3.376035   -2.277817
     41          6           0       26.346999    4.143078   -2.318629
     42          8           0       27.388786    3.850144   -1.879342
     43          8           0       26.132271    5.401530   -2.875790
     44          6           0       27.072466    6.422977   -2.463698
     45          1           0       25.034034    1.378536    4.338452
     46          1           0       24.790373   -4.791837    2.272372
     47          1           0       24.998471   -2.825339   -3.691177
     48          1           0       25.699627    4.411754    0.710271
     49          1           0       24.163199    3.531971    3.011128
     50          1           0       26.911576    3.024840    3.324737
     51          1           0       25.747206    4.168123    4.051847
     52          1           0       26.659103    4.683488    2.649187
     53          1           0       23.083481    4.729483    1.690026
     54          1           0       22.836308    4.071965    0.065984
     55          1           0       23.002388    5.973673   -0.824906
     56          1           0       24.733991    6.226402   -0.276580
     57          1           0       25.668479   -0.332501    6.287486
     58          1           0       24.344932   -1.449908    6.716307
     59          1           0       24.059369    0.219264    6.019678
     60          1           0       24.903148   -4.960243    6.909922
     61          1           0       23.588588   -3.724651    6.920249
     62          1           0       25.304561   -3.365719    7.146915
     63          1           0       23.760777   -5.595852   -0.184665
     64          1           0       25.724133   -5.039043   -2.374124
     65          1           0       26.204554   -6.787170   -0.822681
     66          1           0       25.597192   -7.108350    0.713312
     67          1           0       26.775603   -5.819822    0.564557
     68          1           0       22.824594   -4.348712   -2.648172
     69          1           0       23.181488   -5.989967   -2.312361
     70          1           0       23.391184   -4.647308   -4.668124
     71          1           0       23.372449   -6.299114   -4.537665
     72          1           0       24.948613   -5.456149   -4.303501
     73          1           0       24.595530   -1.386239   -5.491209
     74          1           0       26.092935   -0.449528   -5.665911
     75          1           0       24.609662    0.444694   -5.918302
     76          1           0       24.252860    4.071465   -2.105126
     77          1           0       27.968110    6.200079   -3.042558
     78          1           0       27.252081    6.243966   -1.403727
     79          1           0       26.713383    7.422458   -2.710716
     80         12           0      -25.477812   -0.563968   -0.417555
     81          6           0      -23.593497    2.443700   -0.285255
     82          6           0      -27.702599    1.019127    1.831033
     83          6           0      -27.111203   -3.376152   -0.156796
     84          6           0      -22.984988   -1.976146   -2.389400
     85          7           0      -25.628651    1.537059    0.680845
     86          6           0      -24.764933    2.579141    0.448148
     87          6           0      -25.197221    3.874407    1.114289
     88          6           0      -26.468780    3.332989    1.898030
     89          6           0      -26.649943    1.883099    1.422978
     90          6           0      -26.327306    3.568645    3.398918
     91          6           0      -25.536441    4.947263    0.056256
     92          6           0      -25.185502    6.451800    0.368878
     93          1           0      -24.972543    6.858481    1.846062
     94          7           0      -27.224912   -1.098479    0.624425
     95          6           0      -27.929236   -0.326480    1.548790
     96          6           0      -29.064310   -1.124573    2.038656
     97          6           0      -28.951965   -2.390983    1.377382
     98          6           0      -27.739668   -2.282075    0.543420
     99          6           0      -29.979786   -0.660564    3.041197
    100          6           0      -29.857299   -3.612097    1.503904
    101          8           0      -29.574480   -4.679674    0.937298
    102          6           0      -31.179866   -3.507986    2.156050
    103          7           0      -25.045482   -2.447407   -1.084697
    104          6           0      -25.938441   -3.428970   -0.932868
    105          6           0      -25.416372   -4.764886   -1.554681
    106          6           0      -24.216540   -4.256524   -2.415439
    107          6           0      -24.029487   -2.843360   -1.959713
    108          6           0      -25.087483   -5.883706   -0.501811
    109          6           0      -24.724974   -4.315028   -3.906507
    110          6           0      -25.366801   -3.050102   -4.573883
    111          7           0      -23.716683    0.079262   -1.282535
    112          6           0      -22.791733   -0.639860   -2.061019
    113          6           0      -21.639569    0.249014   -2.352210
    114          6           0      -21.907201    1.407764   -1.632703
    115          6           0      -23.143512    1.327407   -1.027498
    116          6           0      -20.437791   -0.285763   -2.968788
    117          6           0      -21.277080    2.661574   -1.226558
    118          8           0      -20.154165    3.065669   -1.506683
    119          6           0      -22.346739    3.401497   -0.293731
    120          6           0      -21.785836    3.678222    1.051089
    121          8           0      -21.903207    2.968013    2.045547
    122          8           0      -21.103398    4.909030    1.018341
    123          6           0      -20.400395    5.414633    2.175697
    124          1           0      -28.555002    1.499450    2.316774
    125          1           0      -27.620008   -4.342359   -0.129027
    126          1           0      -22.296888   -2.513832   -3.044596
    127          1           0      -24.442251    4.269459    1.794528
    128          1           0      -27.290089    3.994108    1.622845
    129          1           0      -27.143287    4.127835    3.855375
    130          1           0      -25.409398    4.058327    3.724209
    131          1           0      -26.395417    2.587588    3.870890
    132          1           0      -26.595124    4.916543   -0.201043
    133          1           0      -24.972673    4.565991   -0.795862
    134          1           0      -26.007250    7.101571    0.069692
    135          1           0      -24.418211    6.718655   -0.357847
    136          1           0      -30.978864   -0.797982    2.627095
    137          1           0      -29.667835    0.305220    3.437577
    138          1           0      -29.732789   -1.343962    3.854251
    139          1           0      -31.124321   -3.408525    3.240502
    140          1           0      -31.745327   -4.421419    1.972662
    141          1           0      -31.634872   -2.573389    1.829298
    142          1           0      -26.316197   -5.036023   -2.106908
    143          1           0      -23.348356   -4.910347   -2.328800
    144          1           0      -25.932894   -6.565073   -0.405402
    145          1           0      -24.785999   -5.372783    0.412040
    146          1           0      -24.225289   -6.419688   -0.898254
    147          1           0      -25.287647   -5.236478   -4.057616
    148          1           0      -23.796064   -4.315463   -4.477569
    149          1           0      -26.230694   -3.457096   -5.098578
    150          1           0      -24.715254   -2.579335   -5.311194
    151          1           0      -25.738926   -2.284545   -3.893901
    152          1           0      -20.156514   -1.197880   -2.444001
    153          1           0      -19.653507    0.454341   -2.806696
    154          1           0      -20.538167   -0.324511   -4.053126
    155          1           0      -22.517382    4.345225   -0.812692
    156          1           0      -19.334486    5.188180    2.167632
    157          1           0      -20.958762    5.227903    3.093133
    158          1           0      -20.577383    6.484808    2.064716
 ---------------------------------------------------------------------

 SCF Done:  E(RwB97XD) =  -4070.59489580     A.U. after   19 cycles

 Excitation energies and oscillator strengths:

 Excited State   1:      Singlet-A      1.6222 eV  764.31 nm  f=0.4070  <S**2>=0.000
     309 -> 315        0.16234
     311 -> 313        0.68613
     309 <- 315        0.10568
 This state for optimization and/or second-order correction.
 Total Energy, E(TD-HF/TD-DFT) =  -4070.53528224
 Copying the excited state density for this state as the 1-particle RhoCI density.

 Excited State   2:      Singlet-A      1.6998 eV  729.42 nm  f=0.3728  <S**2>=0.000
     310 -> 316       -0.19454
     312 -> 314        0.67892
     310 <- 316       -0.11677

 Excited State   3:      Singlet-A      2.1350 eV  580.71 nm  f=0.1226  <S**2>=0.000
     309 -> 313        0.64277
     311 -> 315       -0.25996

 Excited State   4:      Singlet-A      2.2204 eV  558.40 nm  f=0.0705  <S**2>=0.000
     310 -> 314        0.62143
     312 -> 316        0.32315

 Excited State   5:      Singlet-A      3.2509 eV  381.38 nm  f=0.0040  <S**2>=0.000
     305 -> 313        0.47433
     306 -> 313        0.38272
     308 -> 313       -0.30355
     311 -> 315        0.12184

 The electronic state is 1-A.
 Alpha  occ. eigenvalues --  -46.94837 -46.94300 -19.29222 -19.27369 -19.24809
 Alpha  occ. eigenvalues --  -19.24434 -19.24337 -19.23940 -19.23819 -19.22955
 Alpha  occ. eigenvalues --  -14.47181 -14.46741 -14.46606 -14.45844 -14.44943
 Alpha  occ. eigenvalues --  -14.44291 -14.43519 -14.43135 -10.43325 -10.41885
 Alpha  occ. eigenvalues --  -10.39375 -10.39340 -10.39299 -10.38178 -10.35920
 Alpha  occ. eigenvalues --  -10.35349 -10.35165 -10.35153 -10.35059 -10.34899
 Alpha  occ. eigenvalues --  -10.34758 -10.34741 -10.34732 -10.34540 -10.34456
 Alpha  occ. eigenvalues --  -10.34443 -10.34328 -10.34216 -10.34210 -10.33511
 Alpha  occ. eigenvalues --  -10.33316 -10.33240 -10.33235 -10.33219 -10.33163
 Alpha  occ. eigenvalues --  -10.32917 -10.32743 -10.32304 -10.32301 -10.32209
 Alpha  occ. eigenvalues --  -10.32169 -10.31849 -10.31800 -10.31703 -10.31645
 Alpha  occ. eigenvalues --  -10.31608 -10.31587 -10.31449 -10.31424 -10.31419
 Alpha  occ. eigenvalues --  -10.31417 -10.31367 -10.31354 -10.31197 -10.31166
 Alpha  occ. eigenvalues --  -10.31069 -10.30766 -10.30583 -10.30494 -10.30408
 Alpha  occ. eigenvalues --  -10.30402 -10.30360 -10.30358 -10.30309 -10.30097
 Alpha  occ. eigenvalues --  -10.29870 -10.29796 -10.29737 -10.29616 -10.29375
 Alpha  occ. eigenvalues --  -10.29207 -10.29132 -10.29096 -10.28918 -10.28683
 Alpha  occ. eigenvalues --  -10.28474  -3.20825  -3.20468  -1.94421  -1.94032
 Alpha  occ. eigenvalues --   -1.93960  -1.93783  -1.93606  -1.93461  -1.18871
 Alpha  occ. eigenvalues --   -1.16809  -1.11869  -1.11817  -1.11457  -1.10291
 Alpha  occ. eigenvalues --   -1.09893  -1.09435  -1.06806  -1.06616  -1.06095
 Alpha  occ. eigenvalues --   -1.05440  -1.05082  -1.04060  -1.03365  -1.02701
 Alpha  occ. eigenvalues --   -0.94530  -0.93932  -0.91872  -0.91103  -0.90533
 Alpha  occ. eigenvalues --   -0.90490  -0.90381  -0.90248  -0.89304  -0.89271
 Alpha  occ. eigenvalues --   -0.89126  -0.88653  -0.88639  -0.88097  -0.86141
 Alpha  occ. eigenvalues --   -0.86063  -0.85348  -0.85206  -0.84584  -0.84332
 Alpha  occ. eigenvalues --   -0.83863  -0.83831  -0.82786  -0.82759  -0.82412
 Alpha  occ. eigenvalues --   -0.82178  -0.80962  -0.80764  -0.79318  -0.79014
 Alpha  occ. eigenvalues --   -0.78773  -0.78593  -0.77701  -0.77204  -0.77146
 Alpha  occ. eigenvalues --   -0.76736  -0.75052  -0.74097  -0.73669  -0.73285
 Alpha  occ. eigenvalues --   -0.71342  -0.71136  -0.70867  -0.70591  -0.69882
 Alpha  occ. eigenvalues --   -0.69834  -0.69540  -0.68745  -0.67587  -0.67236
 Alpha  occ. eigenvalues --   -0.66998  -0.66934  -0.66637  -0.66428  -0.66178
 Alpha  occ. eigenvalues --   -0.65889  -0.63521  -0.62830  -0.62367  -0.62212
 Alpha  occ. eigenvalues --   -0.61336  -0.61313  -0.61050  -0.60994  -0.60423
 Alpha  occ. eigenvalues --   -0.60242  -0.60018  -0.59842  -0.59645  -0.59145
 Alpha  occ. eigenvalues --   -0.58505  -0.58278  -0.57487  -0.57467  -0.57240
 Alpha  occ. eigenvalues --   -0.57202  -0.56177  -0.55941  -0.55843  -0.55753
 Alpha  occ. eigenvalues --   -0.55564  -0.55293  -0.55241  -0.55103  -0.54919
 Alpha  occ. eigenvalues --   -0.54709  -0.54584  -0.54244  -0.54188  -0.54073
 Alpha  occ. eigenvalues --   -0.53710  -0.53502  -0.53443  -0.53259  -0.53229
 Alpha  occ. eigenvalues --   -0.53082  -0.52767  -0.52661  -0.52497  -0.52490
 Alpha  occ. eigenvalues --   -0.52124  -0.51948  -0.51897  -0.51710  -0.51677
 Alpha  occ. eigenvalues --   -0.51566  -0.51542  -0.50923  -0.50903  -0.50834
 Alpha  occ. eigenvalues --   -0.50556  -0.50452  -0.50440  -0.50326  -0.50026
 Alpha  occ. eigenvalues --   -0.49993  -0.49927  -0.49549  -0.49302  -0.49216
 Alpha  occ. eigenvalues --   -0.48944  -0.48856  -0.48756  -0.48620  -0.48390
 Alpha  occ. eigenvalues --   -0.48050  -0.48026  -0.47937  -0.47904  -0.47322
 Alpha  occ. eigenvalues --   -0.47291  -0.47201  -0.46936  -0.46877  -0.46612
 Alpha  occ. eigenvalues --   -0.46498  -0.46210  -0.46152  -0.46072  -0.45989
 Alpha  occ. eigenvalues --   -0.45823  -0.45609  -0.45556  -0.45464  -0.45375
 Alpha  occ. eigenvalues --   -0.45287  -0.45274  -0.44991  -0.44905  -0.44848
 Alpha  occ. eigenvalues --   -0.44535  -0.44438  -0.43967  -0.43854  -0.43687
 Alpha  occ. eigenvalues --   -0.43611  -0.43348  -0.43303  -0.43060  -0.42901
 Alpha  occ. eigenvalues --   -0.42887  -0.42593  -0.42576  -0.42210  -0.42041
 Alpha  occ. eigenvalues --   -0.41817  -0.41757  -0.41280  -0.41002  -0.40611
 Alpha  occ. eigenvalues --   -0.40505  -0.39782  -0.39707  -0.39603  -0.39361
 Alpha  occ. eigenvalues --   -0.39234  -0.39103  -0.38620  -0.38119  -0.38017
 Alpha  occ. eigenvalues --   -0.37638  -0.36861  -0.36429  -0.36121  -0.36045
 Alpha  occ. eigenvalues --   -0.36009  -0.35522  -0.35386  -0.33662  -0.33501
 Alpha  occ. eigenvalues --   -0.33190  -0.33149  -0.32783  -0.32388  -0.32194
 Alpha  occ. eigenvalues --   -0.31827  -0.31471  -0.31366  -0.26301  -0.25811
 Alpha  occ. eigenvalues --   -0.23265  -0.22589
 Alpha virt. eigenvalues --   -0.07632  -0.06485  -0.00225   0.00206   0.01798
 Alpha virt. eigenvalues --    0.02296   0.04281   0.04317   0.05259   0.06374
 Alpha virt. eigenvalues --    0.07080   0.07556   0.07669   0.07916   0.08305

 Mulliken charges:
               1
     1  Mg   0.967390
     2  C    0.011714
     3  C   -0.103263
     4  C   -0.069769
     5  C   -0.098400
     6  N   -0.364248
     7  C   -0.034226
     8  C   -0.002609
     9  C   -0.138108
    10  C    0.093047
    11  C    0.019366
    12  C   -0.009208
    13  C   -0.148479
    14  H    0.036399
    15  N   -0.481811
    16  C    0.200838
    17  C   -0.180122
    18  C   -0.027717
    19  C    0.193675
    20  C    0.079824
    21  C    0.021639
    22  O   -0.252862
    23  C   -0.034245
    24  N   -0.410791
    25  C    0.038790
    26  C   -0.045308
    27  C   -0.088440
    28  C    0.134076
    29  C   -0.000904
    30  C   -0.040899
    31  C   -0.058059
    32  N   -0.418846
    33  C    0.119463
    34  C   -0.179132
    35  C   -0.042505
    36  C    0.138781
    37  C    0.103197
    38  C    0.093000
    39  O   -0.217675
    40  C   -0.114333
    41  C    0.257003
    42  O   -0.187470
    43  O   -0.389594
    44  C    0.148302
    45  H   -0.010810
    46  H    0.025943
    47  H   -0.021867
    48  H    0.032309
    49  H    0.032485
    50  H    0.050108
    51  H    0.027200
    52  H    0.046194
    53  H    0.042861
    54  H    0.040671
    55  H    0.074251
    56  H    0.060385
    57  H    0.058498
    58  H    0.036767
    59  H    0.054101
    60  H    0.050774
    61  H    0.073274
    62  H    0.053540
    63  H    0.052020
    64  H    0.039609
    65  H    0.033971
    66  H    0.046058
    67  H    0.057336
    68  H    0.033713
    69  H    0.029704
    70  H    0.026210
    71  H    0.038835
    72  H    0.035094
    73  H    0.041502
    74  H    0.054366
    75  H    0.067151
    76  H    0.052247
    77  H    0.050831
    78  H    0.037022
    79  H    0.060164
    80  Mg   0.959232
    81  C    0.014284
    82  C   -0.115968
    83  C   -0.071712
    84  C   -0.091757
    85  N   -0.268584
    86  C   -0.050229
    87  C   -0.080325
    88  C   -0.081194
    89  C    0.061267
    90  C    0.017845
    91  C   -0.000864
    92  C   -0.101185
    93  H    0.041864
    94  N   -0.420577
    95  C    0.160563
    96  C   -0.187269
    97  C   -0.089549
    98  C    0.145961
    99  C    0.087578
   100  C    0.060845
   101  O   -0.251537
   102  C   -0.004431
   103  N   -0.411577
   104  C    0.041741
   105  C   -0.106291
   106  C   -0.056899
   107  C    0.053206
   108  C    0.041961
   109  C   -0.057112
   110  C   -0.040287
   111  N   -0.481902
   112  C    0.164093
   113  C   -0.192749
   114  C   -0.021517
   115  C    0.160088
   116  C    0.077995
   117  C    0.119494
   118  O   -0.197013
   119  C   -0.104491
   120  C    0.295853
   121  O   -0.245621
   122  O   -0.393122
   123  C    0.148826
   124  H    0.010797
   125  H    0.016621
   126  H   -0.005077
   127  H    0.045950
   128  H    0.028879
   129  H    0.025219
   130  H    0.045295
   131  H    0.027067
   132  H    0.030853
   133  H    0.034390
   134  H    0.044131
   135  H    0.052231
   136  H    0.062328
   137  H    0.037748
   138  H    0.061532
   139  H    0.050581
   140  H    0.063451
   141  H    0.049867
   142  H    0.039322
   143  H    0.036117
   144  H    0.056272
   145  H    0.049494
   146  H    0.029625
   147  H    0.044658
   148  H    0.027421
   149  H    0.033428
   150  H    0.043547
   151  H    0.047337
   152  H    0.057798
   153  H    0.044322
   154  H    0.045839
   155  H    0.075010
   156  H    0.071667
   157  H    0.047339
   158  H    0.040005
 Sum of Mulliken charges =  -0.00000

 Dipole moment (field-independent basis, Debye):
    X=             -6.9852    Y=             -0.2807    Z=              5.8935  Tot=              9.1436
 Quadrupole moment (field-independent basis, Debye-Ang):
   XX=           -417.4835   YY=           -489.6879   ZZ=           -490.1216
   XY=            -74.8008   XZ=             90.6289   YZ=             53.1534

 Normal termination of Gaussian 16 at Mon Sep 20 13:16:06 2021.
