 Gaussian 16, Revision A.03,
 Gaussian 16:  ES64L-G16RevA.03 25-Dec-2016

 --------------------------------
 #p wB97XD/Def2SVP td=(nstates=5)
 --------------------------------

 --------------------------------
 TDDFT excited states in gaussian
 --------------------------------
 Symbolic Z-matrix:
 Charge =  0 Multiplicity = 1

                         Standard orientation:
 ---------------------------------------------------------------------
 Center     Atomic      Atomic             Coordinates (Angstroms)
 Number     Number       Type             X           Y           Z
 ---------------------------------------------------------------------
      1         12           0       13.549271    0.574597   -0.153582
      2          6           0       11.679369   -1.684592    1.601829
      3          6           0       15.251168   -1.871647   -1.644132
      4          6           0       15.371541    2.883760   -1.557019
      5          6           0       12.090855    3.069387    1.932467
      6          7           0       13.596017   -1.581437    0.090150
      7          6           0       12.566665   -2.260061    0.655763
      8          6           0       12.515813   -3.690326    0.192697
      9          6           0       13.861083   -3.782660   -0.633449
     10          6           0       14.331452   -2.345002   -0.678940
     11          6           0       14.895960   -4.787481   -0.072801
     12          6           0       11.126179   -4.101633   -0.592882
     13          6           0       10.417099   -5.405571   -0.196401
     14          1           0       11.294953   -6.514498    0.464318
     15          7           0       14.919620    0.523927   -1.499209
     16          6           0       15.545086   -0.557825   -2.032412
     17          6           0       16.639659   -0.209686   -2.905301
     18          6           0       16.553524    1.142347   -3.047188
     19          6           0       15.667452    1.572943   -1.921444
     20          6           0       17.539521   -1.338739   -3.373339
     21          6           0       17.356808    2.069369   -3.980989
     22          8           0       17.252881    3.273848   -3.993260
     23          6           0       18.326206    1.345727   -4.868226
     24          7           0       13.802171    2.668913    0.299571
     25          6           0       14.550674    3.387266   -0.556744
     26          6           0       14.434067    4.885769   -0.260706
     27          6           0       13.151794    4.965795    0.635476
     28          6           0       13.001830    3.478508    1.015922
     29          6           0       15.685805    5.630632    0.371799
     30          6           0       11.834127    5.461748   -0.070861
     31          6           0       11.237695    4.766309   -1.266217
     32          7           0       12.105617    0.777756    1.397508
     33          6           0       11.666612    1.818135    2.222755
     34          6           0       10.680472    1.350063    3.205003
     35          6           0       10.645150   -0.035847    2.989962
     36          6           0       11.523597   -0.289408    1.889852
     37          6           0        9.857690    2.167695    4.167309
     38          6           0       10.096866   -1.244103    3.407976
     39          8           0        9.334446   -1.546231    4.312704
     40          6           0       10.547910   -2.325972    2.392753
     41          6           0       10.975430   -3.434639    3.276596
     42          8           0       12.057371   -3.504171    3.864639
     43          8           0        9.967414   -4.336486    3.459025
     44          6           0       10.080125   -5.338424    4.523697
     45          1           0       15.649159   -2.687347   -2.251702
     46          1           0       15.904239    3.714585   -2.022787
     47          1           0       11.698313    3.937797    2.467010
     48          1           0       12.659291   -4.371079    1.031868
     49          1           0       13.622414   -4.040164   -1.665126
     50          1           0       15.679323   -4.234125    0.444975
     51          1           0       15.349608   -5.318315   -0.909785
     52          1           0       14.354354   -5.437937    0.614086
     53          1           0       11.410704   -4.154387   -1.643839
     54          1           0       10.364308   -3.336837   -0.445426
     55          1           0       10.040928   -5.913880   -1.083819
     56          1           0        9.532717   -5.177947    0.398589
     57          1           0       18.062416   -1.873879   -2.580527
     58          1           0       18.449052   -1.124360   -3.934177
     59          1           0       16.839458   -1.923496   -3.970089
     60          1           0       17.813715    0.588780   -5.461458
     61          1           0       19.070250    1.002873   -4.149532
     62          1           0       18.833234    1.901390   -5.656253
     63          1           0       14.309064    5.296558   -1.263201
     64          1           0       13.397387    5.511002    1.547082
     65          1           0       16.502640    4.920887    0.500504
     66          1           0       15.472082    5.945609    1.392487
     67          1           0       16.042025    6.517121   -0.155145
     68          1           0       12.135764    6.480944   -0.313779
     69          1           0       10.990322    5.506101    0.616969
     70          1           0       11.933115    4.009691   -1.631907
     71          1           0       11.087805    5.471967   -2.083193
     72          1           0       10.318338    4.206897   -1.094333
     73          1           0       10.188268    2.052675    5.198631
     74          1           0        8.807347    1.888216    4.083294
     75          1           0       10.093697    3.192344    3.878994
     76          1           0        9.756046   -2.576730    1.686700
     77          1           0        9.104974   -5.683041    4.869842
     78          1           0       10.773347   -5.028313    5.304107
     79          1           0       10.599382   -6.239110    4.196737
     80         12           0      -13.550163    0.642001   -0.227155
     81          6           0      -11.147288   -1.655693   -1.139709
     82          6           0      -15.913992   -2.035559   -0.493384
     83          6           0      -15.970467    2.769003    0.293571
     84          6           0      -11.218675    3.194935   -0.336214
     85          7           0      -13.511859   -1.592738   -0.981443
     86          6           0      -12.393917   -2.294778   -1.060459
     87          6           0      -12.683044   -3.817926   -0.942059
     88          6           0      -14.207996   -3.828504   -1.309969
     89          6           0      -14.632766   -2.404771   -0.916052
     90          6           0      -14.454733   -4.126712   -2.831622
     91          6           0      -12.382083   -4.198003    0.524834
     92          6           0      -12.449148   -5.691143    0.873349
     93          1           0      -13.034429   -6.679277   -0.115510
     94          7           0      -15.609716    0.477857    0.003543
     95          6           0      -16.374574   -0.733543   -0.112405
     96          6           0      -17.722346   -0.398359    0.326474
     97          6           0      -17.715300    0.990800    0.665499
     98          6           0      -16.398302    1.505119    0.292646
     99          6           0      -18.909860   -1.425008    0.444717
    100          6           0      -18.873198    1.804707    1.332116
    101          8           0      -18.739411    2.993109    1.437100
    102          6           0      -20.121269    1.119454    1.785441
    103          7           0      -13.571858    2.706384    0.046134
    104          6           0      -14.714675    3.397522    0.257209
    105          6           0      -14.500096    4.908496    0.337243
    106          6           0      -12.958806    5.014784    0.272670
    107          6           0      -12.545641    3.517495   -0.031382
    108          6           0      -15.222768    5.758672   -0.771314
    109          6           0      -12.261782    5.695001    1.423243
    110          6           0      -12.607705    5.348617    2.891550
    111          7           0      -11.587039    0.835149   -0.652474
    112          6           0      -10.751839    1.915489   -0.652043
    113          6           0       -9.412626    1.418995   -0.888371
    114          6           0       -9.467690   -0.006463   -1.064333
    115          6           0      -10.852571   -0.293214   -0.918104
    116          6           0       -8.195182    2.288056   -0.944902
    117          6           0       -8.746381   -1.194970   -1.373959
    118          8           0       -7.543625   -1.417904   -1.632815
    119          6           0       -9.924550   -2.266740   -1.695380
    120          6           0       -9.442856   -3.614379   -1.155533
    121          8           0       -9.070578   -3.818110   -0.063669
    122          8           0       -9.482765   -4.515932   -2.180829
    123          6           0       -9.423996   -5.924926   -1.850197
    124          1           0      -16.636298   -2.840500   -0.641330
    125          1           0      -16.744635    3.529009    0.418248
    126          1           0      -10.438748    3.955239   -0.404077
    127          1           0      -12.145928   -4.399573   -1.691111
    128          1           0      -14.623681   -4.579568   -0.637815
    129          1           0      -14.807034   -5.151096   -2.946112
    130          1           0      -13.514828   -3.962954   -3.359098
    131          1           0      -15.241114   -3.514386   -3.273033
    132          1           0      -13.150651   -3.734057    1.142480
    133          1           0      -11.465947   -3.733918    0.888817
    134          1           0      -12.757218   -5.878012    1.902317
    135          1           0      -11.405807   -5.980128    1.001334
    136          1           0      -19.812727   -1.074663   -0.056353
    137          1           0      -19.045377   -1.591333    1.513274
    138          1           0      -18.592913   -2.393171    0.055149
    139          1           0      -20.444577    1.765591    2.601881
    140          1           0      -19.925727    0.154686    2.252109
    141          1           0      -20.858533    0.773193    1.061168
    142          1           0      -14.883335    5.193874    1.316676
    143          1           0      -12.603844    5.506340   -0.633104
    144          1           0      -14.546902    6.584896   -0.990290
    145          1           0      -16.118732    6.099251   -0.251902
    146          1           0      -15.524731    5.122587   -1.603311
    147          1           0      -12.702955    6.688218    1.346693
    148          1           0      -11.172901    5.747571    1.394951
    149          1           0      -13.012362    6.136319    3.525684
    150          1           0      -11.712142    5.107241    3.464045
    151          1           0      -13.339067    4.540385    2.905122
    152          1           0       -7.372094    1.620056   -1.197077
    153          1           0       -7.980671    2.694215    0.044503
    154          1           0       -8.282075    3.172443   -1.575413
    155          1           0      -10.046475   -2.227452   -2.778025
    156          1           0       -8.589625   -6.076102   -2.535234
    157          1           0      -10.365175   -6.452959   -2.004848
    158          1           0       -9.079605   -6.136559   -0.837584
 ---------------------------------------------------------------------

 SCF Done:  E(RwB97XD) =  -4070.59887796     A.U. after   19 cycles

 Excitation energies and oscillator strengths:

 Excited State   1:      Singlet-A      1.6762 eV  739.68 nm  f=0.4072  <S**2>=0.000
     309 -> 315       -0.20153
     311 -> 313        0.67795
     309 <- 315       -0.12025
 This state for optimization and/or second-order correction.
 Total Energy, E(TD-HF/TD-DFT) =  -4070.53727948
 Copying the excited state density for this state as the 1-particle RhoCI density.

 Excited State   2:      Singlet-A      1.7212 eV  720.32 nm  f=0.3464  <S**2>=0.000
     310 -> 316       -0.19572
     312 -> 314        0.67898
     310 <- 316       -0.11409

 Excited State   3:      Singlet-A      2.1629 eV  573.22 nm  f=0.0875  <S**2>=0.000
     309 -> 313        0.63316
     311 -> 315        0.30183

 Excited State   4:      Singlet-A      2.2240 eV  557.49 nm  f=0.0565  <S**2>=0.000
     310 -> 314        0.61466
     312 -> 316        0.33871

 Excited State   5:      Singlet-A      3.6836 eV  336.59 nm  f=0.0000  <S**2>=0.000
     312 -> 313        0.70697

 The electronic state is 1-A.
 Alpha  occ. eigenvalues --  -46.94587 -46.94212 -19.29613 -19.29014 -19.25169
 Alpha  occ. eigenvalues --  -19.24908 -19.24107 -19.24045 -19.23174 -19.22581
 Alpha  occ. eigenvalues --  -14.46304 -14.46262 -14.46190 -14.45544 -14.44555
 Alpha  occ. eigenvalues --  -14.43880 -14.43876 -14.43229 -10.42753 -10.41990
 Alpha  occ. eigenvalues --  -10.39877 -10.39176 -10.39120 -10.37416 -10.35189
 Alpha  occ. eigenvalues --  -10.34846 -10.34723 -10.34608 -10.34559 -10.34525
 Alpha  occ. eigenvalues --  -10.34419 -10.34358 -10.34286 -10.34277 -10.34201
 Alpha  occ. eigenvalues --  -10.34142 -10.33658 -10.33354 -10.33028 -10.32935
 Alpha  occ. eigenvalues --  -10.32878 -10.32816 -10.32775 -10.32719 -10.32574
 Alpha  occ. eigenvalues --  -10.32553 -10.32132 -10.31920 -10.31905 -10.31826
 Alpha  occ. eigenvalues --  -10.31809 -10.31798 -10.31781 -10.31747 -10.31707
 Alpha  occ. eigenvalues --  -10.31681 -10.31665 -10.31613 -10.31598 -10.31561
 Alpha  occ. eigenvalues --  -10.31523 -10.31517 -10.31439 -10.31290 -10.31251
 Alpha  occ. eigenvalues --  -10.30679 -10.30562 -10.30497 -10.30484 -10.30361
 Alpha  occ. eigenvalues --  -10.30342 -10.30110 -10.30097 -10.30095 -10.30033
 Alpha  occ. eigenvalues --  -10.29829 -10.29828 -10.29816 -10.29680 -10.29639
 Alpha  occ. eigenvalues --  -10.29529 -10.29042 -10.28917 -10.28915 -10.28906
 Alpha  occ. eigenvalues --  -10.27959  -3.20652  -3.20471  -1.94244  -1.94033
 Alpha  occ. eigenvalues --   -1.93795  -1.93616  -1.93612  -1.93482  -1.19764
 Alpha  occ. eigenvalues --   -1.16895  -1.13700  -1.13677  -1.11997  -1.11107
 Alpha  occ. eigenvalues --   -1.10267  -1.07991  -1.07550  -1.07199  -1.06662
 Alpha  occ. eigenvalues --   -1.06064  -1.06018  -1.05089  -1.04919  -1.04068
 Alpha  occ. eigenvalues --   -0.95019  -0.94212  -0.91518  -0.91187  -0.90572
 Alpha  occ. eigenvalues --   -0.90369  -0.90263  -0.89795  -0.89761  -0.89301
 Alpha  occ. eigenvalues --   -0.89224  -0.88390  -0.88375  -0.87573  -0.86192
 Alpha  occ. eigenvalues --   -0.85963  -0.85588  -0.85383  -0.84555  -0.84399
 Alpha  occ. eigenvalues --   -0.84296  -0.83633  -0.83354  -0.82894  -0.82388
 Alpha  occ. eigenvalues --   -0.82225  -0.80922  -0.79917  -0.79284  -0.79242
 Alpha  occ. eigenvalues --   -0.78796  -0.78712  -0.77803  -0.77532  -0.77418
 Alpha  occ. eigenvalues --   -0.77049  -0.74656  -0.74521  -0.73961  -0.73574
 Alpha  occ. eigenvalues --   -0.72149  -0.71469  -0.70918  -0.70842  -0.70060
 Alpha  occ. eigenvalues --   -0.70025  -0.69220  -0.68161  -0.67244  -0.67134
 Alpha  occ. eigenvalues --   -0.66838  -0.66816  -0.66655  -0.66259  -0.66103
 Alpha  occ. eigenvalues --   -0.65652  -0.64328  -0.63595  -0.63073  -0.62457
 Alpha  occ. eigenvalues --   -0.61605  -0.61195  -0.61171  -0.61123  -0.60800
 Alpha  occ. eigenvalues --   -0.60132  -0.59856  -0.59776  -0.59693  -0.59440
 Alpha  occ. eigenvalues --   -0.58240  -0.58101  -0.58081  -0.57612  -0.57258
 Alpha  occ. eigenvalues --   -0.57136  -0.57000  -0.56497  -0.56313  -0.56171
 Alpha  occ. eigenvalues --   -0.55602  -0.55498  -0.55442  -0.55020  -0.54873
 Alpha  occ. eigenvalues --   -0.54496  -0.54475  -0.54292  -0.54233  -0.54181
 Alpha  occ. eigenvalues --   -0.54084  -0.53978  -0.53688  -0.53512  -0.53100
 Alpha  occ. eigenvalues --   -0.52690  -0.52622  -0.52433  -0.52329  -0.52042
 Alpha  occ. eigenvalues --   -0.52036  -0.51883  -0.51598  -0.51469  -0.51405
 Alpha  occ. eigenvalues --   -0.51228  -0.51188  -0.51163  -0.50912  -0.50729
 Alpha  occ. eigenvalues --   -0.50624  -0.50400  -0.50156  -0.50055  -0.49919
 Alpha  occ. eigenvalues --   -0.49876  -0.49853  -0.49621  -0.49539  -0.49001
 Alpha  occ. eigenvalues --   -0.48797  -0.48654  -0.48524  -0.48476  -0.48444
 Alpha  occ. eigenvalues --   -0.48337  -0.47895  -0.47732  -0.47526  -0.47512
 Alpha  occ. eigenvalues --   -0.47308  -0.47143  -0.47049  -0.46920  -0.46671
 Alpha  occ. eigenvalues --   -0.46593  -0.46357  -0.45975  -0.45774  -0.45707
 Alpha  occ. eigenvalues --   -0.45672  -0.45425  -0.45270  -0.45180  -0.44980
 Alpha  occ. eigenvalues --   -0.44887  -0.44829  -0.44750  -0.44702  -0.44605
 Alpha  occ. eigenvalues --   -0.44286  -0.44244  -0.44030  -0.43973  -0.43930
 Alpha  occ. eigenvalues --   -0.43764  -0.43682  -0.43550  -0.43412  -0.43313
 Alpha  occ. eigenvalues --   -0.43058  -0.42889  -0.42829  -0.42593  -0.42347
 Alpha  occ. eigenvalues --   -0.42094  -0.41470  -0.41396  -0.41299  -0.41021
 Alpha  occ. eigenvalues --   -0.40288  -0.40272  -0.40003  -0.39832  -0.39540
 Alpha  occ. eigenvalues --   -0.39146  -0.38923  -0.38358  -0.38322  -0.38213
 Alpha  occ. eigenvalues --   -0.37733  -0.37155  -0.37034  -0.36248  -0.35921
 Alpha  occ. eigenvalues --   -0.35549  -0.35344  -0.34848  -0.34551  -0.33646
 Alpha  occ. eigenvalues --   -0.33325  -0.32999  -0.32836  -0.32482  -0.31998
 Alpha  occ. eigenvalues --   -0.31960  -0.31764  -0.31487  -0.25709  -0.25668
 Alpha  occ. eigenvalues --   -0.22882  -0.22337
 Alpha virt. eigenvalues --   -0.06767  -0.06075   0.00047   0.00246   0.02260
 Alpha virt. eigenvalues --    0.02389   0.04678   0.04737   0.05974   0.06131
 Alpha virt. eigenvalues --    0.07674   0.08022   0.08245   0.08526   0.08589

 Mulliken charges:
               1
     1  Mg   0.993026
     2  C    0.010850
     3  C   -0.117671
     4  C   -0.080934
     5  C   -0.116902
     6  N   -0.330658
     7  C   -0.016817
     8  C   -0.037091
     9  C   -0.153944
    10  C    0.076169
    11  C    0.047343
    12  C    0.007203
    13  C   -0.126064
    14  H    0.026148
    15  N   -0.509521
    16  C    0.179889
    17  C   -0.131486
    18  C   -0.119613
    19  C    0.182627
    20  C    0.046287
    21  C    0.071637
    22  O   -0.201977
    23  C   -0.025194
    24  N   -0.321300
    25  C    0.020935
    26  C   -0.086020
    27  C   -0.050227
    28  C   -0.008264
    29  C    0.024245
    30  C   -0.010706
    31  C   -0.046820
    32  N   -0.398821
    33  C    0.159942
    34  C   -0.186925
    35  C    0.034957
    36  C    0.091483
    37  C    0.104707
    38  C    0.050840
    39  O   -0.214009
    40  C   -0.074689
    41  C    0.264488
    42  O   -0.268340
    43  O   -0.355659
    44  C    0.151858
    45  H   -0.008575
    46  H    0.016352
    47  H   -0.010576
    48  H    0.043062
    49  H    0.031887
    50  H    0.045610
    51  H    0.038478
    52  H    0.045932
    53  H    0.033228
    54  H    0.041421
    55  H    0.049254
    56  H    0.062809
    57  H    0.060397
    58  H    0.029542
    59  H    0.066567
    60  H    0.061509
    61  H    0.069330
    62  H    0.047894
    63  H    0.035004
    64  H    0.029091
    65  H    0.038227
    66  H    0.025826
    67  H    0.050107
    68  H    0.032135
    69  H    0.032365
    70  H    0.028541
    71  H    0.041118
    72  H    0.044078
    73  H    0.059371
    74  H    0.064300
    75  H    0.019616
    76  H    0.073013
    77  H    0.061773
    78  H    0.057018
    79  H    0.029318
    80  Mg   0.965957
    81  C   -0.025705
    82  C   -0.077014
    83  C   -0.087882
    84  C   -0.117635
    85  N   -0.288313
    86  C   -0.035953
    87  C   -0.084117
    88  C   -0.089555
    89  C    0.019572
    90  C    0.040479
    91  C    0.000309
    92  C   -0.089388
    93  H    0.043994
    94  N   -0.478811
    95  C    0.175751
    96  C   -0.189367
    97  C   -0.081186
    98  C    0.188747
    99  C    0.062417
   100  C    0.064931
   101  O   -0.213737
   102  C   -0.007328
   103  N   -0.341957
   104  C    0.014374
   105  C   -0.099273
   106  C   -0.054323
   107  C    0.091277
   108  C    0.035497
   109  C   -0.009992
   110  C   -0.072604
   111  N   -0.486738
   112  C    0.144550
   113  C   -0.184370
   114  C   -0.031035
   115  C    0.180618
   116  C    0.067879
   117  C    0.153517
   118  O   -0.233693
   119  C   -0.147647
   120  C    0.242802
   121  O   -0.185671
   122  O   -0.368681
   123  C    0.110515
   124  H    0.003705
   125  H    0.009589
   126  H   -0.005482
   127  H    0.019494
   128  H    0.022943
   129  H    0.039789
   130  H    0.043823
   131  H    0.040308
   132  H    0.025801
   133  H    0.066022
   134  H    0.042798
   135  H    0.038252
   136  H    0.059010
   137  H    0.057787
   138  H    0.030193
   139  H    0.058167
   140  H    0.020601
   141  H    0.069224
   142  H    0.047959
   143  H    0.031172
   144  H    0.046285
   145  H    0.047893
   146  H    0.054170
   147  H    0.029172
   148  H    0.040745
   149  H    0.032789
   150  H    0.033017
   151  H    0.039582
   152  H    0.062307
   153  H    0.043129
   154  H    0.047309
   155  H    0.085620
   156  H    0.070017
   157  H    0.062546
   158  H    0.063050
 Sum of Mulliken charges =  -0.00000

 Dipole moment (field-independent basis, Debye):
    X=             -2.5060    Y=             -1.5356    Z=             -4.7078  Tot=              5.5499
 Quadrupole moment (field-independent basis, Debye-Ang):
   XX=           -367.6961   YY=           -455.4638   ZZ=           -521.9669
   XY=             16.3182   XZ=            -66.6518   YZ=             25.5556

 Normal termination of Gaussian 16 at Fri Sep 17 20:35:38 2021.
