 Gaussian 16, Revision A.03,
 Gaussian 16:  ES64L-G16RevA.03 25-Dec-2016

 --------------------------------
 #p wB97XD/Def2SVP td=(nstates=5)
 --------------------------------

 --------------------------------
 TDDFT excited states in gaussian
 --------------------------------
 Symbolic Z-matrix:
 Charge =  0 Multiplicity = 1

                         Standard orientation:
 ---------------------------------------------------------------------
 Center     Atomic      Atomic             Coordinates (Angstroms)
 Number     Number       Type             X           Y           Z
 ---------------------------------------------------------------------
      1         12           0       26.221371    0.411546   -0.466747
      2          6           0       23.598348   -1.723031    0.723336
      3          6           0       28.475296   -1.988147    0.559328
      4          6           0       28.574384    2.620202   -0.977019
      5          6           0       23.765599    2.741979   -1.207486
      6          7           0       26.055754   -1.566571    0.815794
      7          6           0       24.871774   -2.217928    1.032688
      8          6           0       25.157434   -3.684202    1.454398
      9          6           0       26.741263   -3.765995    1.464537
     10          6           0       27.178920   -2.351752    0.935066
     11          6           0       27.458987   -4.080213    2.844151
     12          6           0       24.537297   -4.768968    0.533788
     13          6           0       23.862231   -5.925256    1.181352
     14          1           0       24.101156   -6.343618    2.682378
     15          7           0       28.309294    0.361761   -0.235224
     16          6           0       29.092811   -0.751189    0.068816
     17          6           0       30.509861   -0.341173    0.099676
     18          6           0       30.538674    0.990550   -0.467512
     19          6           0       29.115468    1.386949   -0.576263
     20          6           0       31.663382   -1.186455    0.548122
     21          6           0       31.725421    1.900380   -0.863341
     22          8           0       31.646050    2.893437   -1.616887
     23          6           0       33.077515    1.468481   -0.459138
     24          7           0       26.147243    2.350089   -0.939735
     25          6           0       27.315927    3.073882   -1.029472
     26          6           0       27.060958    4.476879   -1.646743
     27          6           0       25.528155    4.345972   -2.059385
     28          6           0       25.104092    3.056641   -1.377679
     29          6           0       27.371474    5.751756   -0.761002
     30          6           0       25.213175    4.306155   -3.546344
     31          6           0       24.407593    5.504539   -4.090386
     32          7           0       24.107972    0.459725   -0.475432
     33          6           0       23.254187    1.494167   -0.777292
     34          6           0       21.866763    1.094928   -0.507221
     35          6           0       21.982081   -0.177728    0.023271
     36          6           0       23.351665   -0.524306    0.027655
     37          6           0       20.609726    1.883240   -0.673746
     38          6           0       21.188303   -1.248102    0.510018
     39          8           0       19.937664   -1.426370    0.550567
     40          6           0       22.152362   -2.256253    0.973688
     41          6           0       21.852073   -2.645911    2.395797
     42          8           0       22.020917   -1.959472    3.344969
     43          8           0       21.430911   -3.909660    2.440829
     44          6           0       20.800910   -4.395464    3.621336
     45          1           0       29.256415   -2.687373    0.865455
     46          1           0       29.248459    3.442729   -1.228590
     47          1           0       23.008043    3.510318   -1.370553
     48          1           0       24.742503   -3.790245    2.457424
     49          1           0       27.078441   -4.512012    0.745533
     50          1           0       26.796595   -4.369065    3.659700
     51          1           0       27.918497   -3.148152    3.176321
     52          1           0       28.245258   -4.822616    2.704014
     53          1           0       25.273023   -5.243807   -0.116367
     54          1           0       23.763892   -4.372151   -0.123215
     55          1           0       24.148050   -6.847768    0.675094
     56          1           0       22.789113   -5.781249    1.058825
     57          1           0       32.221872   -0.656039    1.319079
     58          1           0       32.304537   -1.314272   -0.324056
     59          1           0       31.349229   -2.205206    0.777523
     60          1           0       33.107558    1.464327    0.630485
     61          1           0       33.744471    2.262862   -0.793268
     62          1           0       33.389062    0.560038   -0.973950
     63          1           0       27.660043    4.503899   -2.557506
     64          1           0       25.015565    5.208881   -1.634365
     65          1           0       27.753427    5.447402    0.212806
     66          1           0       26.533125    6.446894   -0.701630
     67          1           0       28.128641    6.331120   -1.289577
     68          1           0       24.792755    3.377393   -3.932283
     69          1           0       26.168265    4.362604   -4.067506
     70          1           0       23.591978    5.280801   -4.777710
     71          1           0       25.068312    6.035690   -4.776063
     72          1           0       23.977323    6.161784   -3.335949
     73          1           0       20.738677    2.744713   -1.329611
     74          1           0       20.344192    2.364911    0.267198
     75          1           0       19.827347    1.165929   -0.921321
     76          1           0       22.018867   -3.116882    0.318776
     77          1           0       19.804635   -3.951332    3.637867
     78          1           0       21.290041   -4.004595    4.513689
     79          1           0       20.677451   -5.478175    3.585253
     80         12           0      -26.484494   -0.229314    0.279601
     81          6           0      -23.088179   -0.603719   -0.815423
     82          6           0      -25.231274    2.395537    2.353118
     83          6           0      -29.576159    1.015056    0.706226
     84          6           0      -27.463811   -2.250087   -2.299881
     85          7           0      -24.422471    0.754786    0.651200
     86          6           0      -23.207269    0.425503    0.125522
     87          6           0      -22.059064    1.327933    0.698042
     88          6           0      -22.780901    1.961761    1.981789
     89          6           0      -24.237204    1.756638    1.596162
     90          6           0      -22.476160    1.264115    3.287577
     91          6           0      -21.454853    2.265486   -0.334214
     92          6           0      -19.909850    2.395753   -0.366108
     93          1           0      -19.176473    3.645961    0.309907
     94          7           0      -27.349990    1.456025    1.486455
     95          6           0      -26.635399    2.333707    2.328228
     96          6           0      -27.592386    3.209487    3.015462
     97          6           0      -28.895998    2.766120    2.559639
     98          6           0      -28.662631    1.796675    1.510906
     99          6           0      -27.280040    4.328936    3.935624
    100          6           0      -30.215377    3.247244    3.109396
    101          8           0      -30.201501    3.940597    4.101513
    102          6           0      -31.562716    2.911778    2.512575
    103          7           0      -28.162000   -0.507845   -0.745431
    104          6           0      -29.353770    0.014681   -0.251026
    105          6           0      -30.483823   -0.499904   -1.145719
    106          6           0      -29.828536   -1.686414   -1.943048
    107          6           0      -28.387501   -1.499218   -1.607115
    108          6           0      -31.867418   -0.836264   -0.477647
    109          6           0      -30.131502   -1.802453   -3.468502
    110          6           0      -30.685305   -3.093581   -3.976695
    111          7           0      -25.542430   -1.326659   -1.172637
    112          6           0      -26.061464   -2.182073   -2.128811
    113          6           0      -24.986767   -2.964325   -2.769720
    114          6           0      -23.793946   -2.292520   -2.295376
    115          6           0      -24.213702   -1.333239   -1.368748
    116          6           0      -25.064756   -4.104832   -3.750185
    117          6           0      -22.304883   -2.311755   -2.397012
    118          8           0      -21.580512   -2.946561   -3.109447
    119          6           0      -21.845872   -1.144623   -1.528973
    120          6           0      -20.852058   -1.674155   -0.538692
    121          8           0      -21.228826   -2.458569    0.305331
    122          8           0      -19.537846   -1.122604   -0.614065
    123          6           0      -18.598356   -1.484216    0.490418
    124          1           0      -24.882716    3.170110    3.039644
    125          1           0      -30.632892    1.285370    0.739965
    126          1           0      -27.820913   -3.029135   -2.976211
    127          1           0      -21.264363    0.734449    1.149156
    128          1           0      -22.621587    3.038576    2.036994
    129          1           0      -23.105255    0.377026    3.357449
    130          1           0      -22.644040    1.989169    4.083833
    131          1           0      -21.472497    0.870848    3.452463
    132          1           0      -21.830495    3.259082   -0.091707
    133          1           0      -21.916001    2.042099   -1.296227
    134          1           0      -19.687461    2.389968   -1.433436
    135          1           0      -19.394653    1.536330    0.063093
    136          1           0      -27.392240    3.932144    4.944164
    137          1           0      -28.059232    5.086711    3.852963
    138          1           0      -26.324646    4.850162    3.864320
    139          1           0      -32.412161    3.429071    2.958183
    140          1           0      -31.696669    1.843466    2.682917
    141          1           0      -31.710484    3.011052    1.437848
    142          1           0      -30.710873    0.387991   -1.736509
    143          1           0      -30.050942   -2.611955   -1.412842
    144          1           0      -31.748366   -0.993664    0.594675
    145          1           0      -32.333939   -1.686830   -0.974302
    146          1           0      -32.571622   -0.021031   -0.642309
    147          1           0      -29.220120   -1.580876   -4.023731
    148          1           0      -30.776613   -0.963453   -3.728957
    149          1           0      -29.908760   -3.620215   -4.531038
    150          1           0      -31.506333   -2.892798   -4.664820
    151          1           0      -31.063470   -3.804565   -3.242445
    152          1           0      -24.144842   -4.689136   -3.744927
    153          1           0      -25.247410   -3.657620   -4.727694
    154          1           0      -25.965972   -4.675288   -3.524751
    155          1           0      -21.491452   -0.360971   -2.198752
    156          1           0      -18.203983   -2.484349    0.309874
    157          1           0      -19.121457   -1.534475    1.445138
    158          1           0      -17.797949   -0.749284    0.573806
 ---------------------------------------------------------------------

 SCF Done:  E(RwB97XD) =  -4070.60425961     A.U. after   19 cycles

 Excitation energies and oscillator strengths:

 Excited State   1:      Singlet-A      1.6114 eV  769.44 nm  f=0.3998  <S**2>=0.000
     309 -> 315        0.17520
     312 -> 313        0.68623
     309 <- 315        0.11590
 This state for optimization and/or second-order correction.
 Total Energy, E(TD-HF/TD-DFT) =  -4070.54504299
 Copying the excited state density for this state as the 1-particle RhoCI density.

 Excited State   2:      Singlet-A      1.6708 eV  742.05 nm  f=0.4202  <S**2>=0.000
     310 -> 316        0.18115
     311 -> 314        0.68457
     310 <- 316        0.11413

 Excited State   3:      Singlet-A      2.1576 eV  574.65 nm  f=0.1257  <S**2>=0.000
     310 -> 314        0.64763
     311 -> 316       -0.26957

 Excited State   4:      Singlet-A      2.1827 eV  568.04 nm  f=0.1248  <S**2>=0.000
     309 -> 313        0.63924
     312 -> 315       -0.28431

 Excited State   5:      Singlet-A      3.1515 eV  393.42 nm  f=0.0019  <S**2>=0.000
     306 -> 313        0.12226
     308 -> 313        0.66854
     312 -> 315        0.10231

 The electronic state is 1-A.
 Alpha  occ. eigenvalues --  -46.95660 -46.95251 -19.30506 -19.30245 -19.25673
 Alpha  occ. eigenvalues --  -19.24788 -19.24613 -19.24189 -19.23516 -19.22967
 Alpha  occ. eigenvalues --  -14.47400 -14.46656 -14.46263 -14.46224 -14.44331
 Alpha  occ. eigenvalues --  -14.44103 -14.43939 -14.43742 -10.44109 -10.42913
 Alpha  occ. eigenvalues --  -10.39438 -10.38867 -10.38795 -10.38445 -10.36030
 Alpha  occ. eigenvalues --  -10.35778 -10.35418 -10.35330 -10.35254 -10.35078
 Alpha  occ. eigenvalues --  -10.34937 -10.34699 -10.34677 -10.34478 -10.34299
 Alpha  occ. eigenvalues --  -10.34281 -10.34120 -10.33660 -10.33501 -10.33474
 Alpha  occ. eigenvalues --  -10.33382 -10.33221 -10.33113 -10.32994 -10.32898
 Alpha  occ. eigenvalues --  -10.32848 -10.32806 -10.32784 -10.32694 -10.32550
 Alpha  occ. eigenvalues --  -10.32361 -10.32307 -10.32300 -10.32169 -10.32089
 Alpha  occ. eigenvalues --  -10.32058 -10.31824 -10.31626 -10.31607 -10.31564
 Alpha  occ. eigenvalues --  -10.31291 -10.31251 -10.31078 -10.31040 -10.30865
 Alpha  occ. eigenvalues --  -10.30849 -10.30791 -10.30720 -10.30599 -10.30490
 Alpha  occ. eigenvalues --  -10.30421 -10.30389 -10.30358 -10.30287 -10.30151
 Alpha  occ. eigenvalues --  -10.29901 -10.29757 -10.29738 -10.29737 -10.29622
 Alpha  occ. eigenvalues --  -10.29537 -10.29393 -10.29316 -10.29278 -10.29273
 Alpha  occ. eigenvalues --  -10.29159  -3.21694  -3.21271  -1.95226  -1.94842
 Alpha  occ. eigenvalues --   -1.94815  -1.94665  -1.94406  -1.94241  -1.20834
 Alpha  occ. eigenvalues --   -1.17524  -1.13989  -1.12396  -1.11934  -1.10453
 Alpha  occ. eigenvalues --   -1.10381  -1.10094  -1.06914  -1.06576  -1.05809
 Alpha  occ. eigenvalues --   -1.05588  -1.04799  -1.04512  -1.03773  -1.03533
 Alpha  occ. eigenvalues --   -0.95642  -0.94751  -0.91262  -0.91036  -0.90757
 Alpha  occ. eigenvalues --   -0.90410  -0.90343  -0.90246  -0.89742  -0.89528
 Alpha  occ. eigenvalues --   -0.88770  -0.88210  -0.88169  -0.87583  -0.86525
 Alpha  occ. eigenvalues --   -0.86397  -0.85849  -0.85402  -0.84520  -0.84402
 Alpha  occ. eigenvalues --   -0.83964  -0.83734  -0.83657  -0.82491  -0.82478
 Alpha  occ. eigenvalues --   -0.82171  -0.80250  -0.80081  -0.79669  -0.79431
 Alpha  occ. eigenvalues --   -0.79094  -0.78740  -0.78278  -0.78252  -0.77161
 Alpha  occ. eigenvalues --   -0.77121  -0.75195  -0.74641  -0.73748  -0.73475
 Alpha  occ. eigenvalues --   -0.71440  -0.71386  -0.70938  -0.70892  -0.69912
 Alpha  occ. eigenvalues --   -0.69438  -0.68681  -0.68211  -0.67852  -0.67852
 Alpha  occ. eigenvalues --   -0.67059  -0.66871  -0.66827  -0.66549  -0.66469
 Alpha  occ. eigenvalues --   -0.66317  -0.65036  -0.64339  -0.62315  -0.61886
 Alpha  occ. eigenvalues --   -0.61799  -0.61499  -0.61308  -0.61188  -0.61142
 Alpha  occ. eigenvalues --   -0.61039  -0.60324  -0.60195  -0.59739  -0.59629
 Alpha  occ. eigenvalues --   -0.58493  -0.58435  -0.58089  -0.57597  -0.57418
 Alpha  occ. eigenvalues --   -0.57134  -0.56899  -0.56228  -0.55826  -0.55705
 Alpha  occ. eigenvalues --   -0.55336  -0.55306  -0.55230  -0.55051  -0.54922
 Alpha  occ. eigenvalues --   -0.54838  -0.54672  -0.54356  -0.54163  -0.53763
 Alpha  occ. eigenvalues --   -0.53666  -0.53647  -0.53502  -0.53419  -0.53232
 Alpha  occ. eigenvalues --   -0.53038  -0.53024  -0.52833  -0.52337  -0.52030
 Alpha  occ. eigenvalues --   -0.51950  -0.51862  -0.51804  -0.51793  -0.51670
 Alpha  occ. eigenvalues --   -0.51264  -0.51236  -0.51010  -0.51009  -0.50697
 Alpha  occ. eigenvalues --   -0.50641  -0.50540  -0.50522  -0.50213  -0.50148
 Alpha  occ. eigenvalues --   -0.50087  -0.49619  -0.49598  -0.49339  -0.49004
 Alpha  occ. eigenvalues --   -0.48928  -0.48863  -0.48706  -0.48365  -0.48334
 Alpha  occ. eigenvalues --   -0.48168  -0.48126  -0.48073  -0.47986  -0.47978
 Alpha  occ. eigenvalues --   -0.47896  -0.47754  -0.47745  -0.47193  -0.47187
 Alpha  occ. eigenvalues --   -0.46898  -0.46751  -0.46591  -0.46504  -0.46423
 Alpha  occ. eigenvalues --   -0.45713  -0.45627  -0.45560  -0.45396  -0.45363
 Alpha  occ. eigenvalues --   -0.45239  -0.44902  -0.44810  -0.44589  -0.44546
 Alpha  occ. eigenvalues --   -0.44520  -0.44480  -0.44387  -0.44136  -0.43835
 Alpha  occ. eigenvalues --   -0.43829  -0.43551  -0.43547  -0.43406  -0.43134
 Alpha  occ. eigenvalues --   -0.43014  -0.42892  -0.42723  -0.42465  -0.42182
 Alpha  occ. eigenvalues --   -0.42148  -0.41996  -0.41572  -0.41179  -0.41029
 Alpha  occ. eigenvalues --   -0.40410  -0.40083  -0.39844  -0.39646  -0.39347
 Alpha  occ. eigenvalues --   -0.39151  -0.39097  -0.38605  -0.38571  -0.38255
 Alpha  occ. eigenvalues --   -0.37764  -0.37758  -0.36990  -0.36668  -0.36385
 Alpha  occ. eigenvalues --   -0.36120  -0.35451  -0.35160  -0.33720  -0.33627
 Alpha  occ. eigenvalues --   -0.33568  -0.33314  -0.32865  -0.32604  -0.32393
 Alpha  occ. eigenvalues --   -0.31856  -0.31593  -0.30908  -0.26220  -0.26046
 Alpha  occ. eigenvalues --   -0.23114  -0.22914
 Alpha virt. eigenvalues --   -0.07336  -0.07285   0.00441   0.00449   0.01849
 Alpha virt. eigenvalues --    0.02726   0.04121   0.04240   0.04828   0.05402
 Alpha virt. eigenvalues --    0.06521   0.06927   0.07815   0.07984   0.08350

 Mulliken charges:
               1
     1  Mg   0.968388
     2  C   -0.020937
     3  C   -0.037269
     4  C   -0.068943
     5  C   -0.100340
     6  N   -0.318795
     7  C   -0.004696
     8  C   -0.025539
     9  C   -0.108493
    10  C    0.038667
    11  C    0.011086
    12  C    0.007144
    13  C   -0.131946
    14  H    0.014338
    15  N   -0.444897
    16  C    0.109609
    17  C   -0.188384
    18  C   -0.082217
    19  C    0.150544
    20  C    0.090773
    21  C    0.056814
    22  O   -0.260094
    23  C   -0.010197
    24  N   -0.429039
    25  C    0.096382
    26  C   -0.123038
    27  C   -0.081905
    28  C    0.106487
    29  C    0.027991
    30  C    0.012426
    31  C   -0.064933
    32  N   -0.411464
    33  C    0.113954
    34  C   -0.170913
    35  C   -0.051429
    36  C    0.143835
    37  C    0.088523
    38  C    0.114961
    39  O   -0.251372
    40  C   -0.028956
    41  C    0.225647
    42  O   -0.205804
    43  O   -0.332385
    44  C    0.138701
    45  H   -0.013841
    46  H    0.020131
    47  H   -0.001529
    48  H    0.046100
    49  H    0.041919
    50  H    0.041067
    51  H    0.040361
    52  H    0.039982
    53  H    0.033333
    54  H    0.031222
    55  H    0.045770
    56  H    0.057650
    57  H    0.058266
    58  H    0.041414
    59  H    0.035369
    60  H    0.054153
    61  H    0.046923
    62  H    0.066234
    63  H    0.046343
    64  H    0.023299
    65  H    0.051621
    66  H    0.034838
    67  H    0.038261
    68  H    0.040943
    69  H    0.022558
    70  H    0.029653
    71  H    0.032295
    72  H    0.037087
    73  H    0.030960
    74  H    0.058226
    75  H    0.072589
    76  H    0.069310
    77  H    0.047676
    78  H    0.056361
    79  H    0.061169
    80  Mg   0.981426
    81  C   -0.076559
    82  C   -0.054065
    83  C   -0.080073
    84  C   -0.124205
    85  N   -0.313047
    86  C   -0.015732
    87  C   -0.066136
    88  C   -0.119677
    89  C    0.048941
    90  C    0.041504
    91  C    0.037376
    92  C   -0.107615
    93  H    0.023556
    94  N   -0.419622
    95  C    0.112392
    96  C   -0.143766
    97  C   -0.073732
    98  C    0.168710
    99  C    0.081195
   100  C    0.035457
   101  O   -0.234915
   102  C   -0.012042
   103  N   -0.451695
   104  C    0.092150
   105  C   -0.128624
   106  C   -0.033687
   107  C    0.088928
   108  C    0.013848
   109  C    0.000901
   110  C   -0.047220
   111  N   -0.442151
   112  C    0.135361
   113  C   -0.189450
   114  C   -0.106322
   115  C    0.178230
   116  C    0.090772
   117  C    0.132698
   118  O   -0.174062
   119  C   -0.015186
   120  C    0.278388
   121  O   -0.234439
   122  O   -0.404992
   123  C    0.133368
   124  H   -0.006109
   125  H   -0.037515
   126  H   -0.011920
   127  H    0.025637
   128  H    0.028730
   129  H    0.043272
   130  H    0.042632
   131  H    0.036726
   132  H    0.037367
   133  H    0.040596
   134  H    0.055483
   135  H    0.048129
   136  H    0.055522
   137  H    0.053845
   138  H    0.036857
   139  H    0.051234
   140  H    0.050087
   141  H    0.057927
   142  H    0.051501
   143  H    0.033585
   144  H    0.044833
   145  H    0.038326
   146  H    0.031044
   147  H    0.038671
   148  H    0.025381
   149  H    0.036247
   150  H    0.036900
   151  H    0.035842
   152  H    0.071579
   153  H    0.053863
   154  H    0.034423
   155  H    0.072718
   156  H    0.063797
   157  H    0.051496
   158  H    0.065111
 Sum of Mulliken charges =  -0.00000

 Dipole moment (field-independent basis, Debye):
    X=              0.0248    Y=             -2.3517    Z=             -1.6751  Tot=              2.8874
 Quadrupole moment (field-independent basis, Debye-Ang):
   XX=           -330.8595   YY=           -495.0851   ZZ=           -520.0237
   XY=            -24.8491   XZ=             32.2323   YZ=            -17.6618

 Normal termination of Gaussian 16 at Mon Sep 20 10:12:54 2021.
