 Gaussian 16, Revision A.03,
 Gaussian 16:  ES64L-G16RevA.03 25-Dec-2016

 --------------------------------
 #p wB97XD/Def2SVP td=(nstates=5)
 --------------------------------

 --------------------------------
 TDDFT excited states in gaussian
 --------------------------------
 Symbolic Z-matrix:
 Charge =  0 Multiplicity = 1

                         Standard orientation:
 ---------------------------------------------------------------------
 Center     Atomic      Atomic             Coordinates (Angstroms)
 Number     Number       Type             X           Y           Z
 ---------------------------------------------------------------------
      1         12           0       13.360526   -0.609194    0.109379
      2          6           0       12.370281    2.290402   -1.530472
      3          6           0       15.891106    1.087891    1.546591
      4          6           0       14.754013   -3.542712    1.053729
      5          6           0       11.241154   -2.457599   -2.045942
      6          7           0       13.912079    1.444735    0.028292
      7          6           0       13.324819    2.544216   -0.558901
      8          6           0       14.137461    3.829654   -0.241488
      9          6           0       15.485760    3.221551    0.253962
     10          6           0       15.052778    1.848932    0.747715
     11          6           0       16.591019    3.086192   -0.851786
     12          6           0       13.271842    4.721808    0.667008
     13          6           0       13.308893    6.161596    0.320608
     14          1           0       12.189999    6.948734    0.835006
     15          7           0       14.946185   -1.099896    1.332122
     16          6           0       15.835700   -0.229134    1.875285
     17          6           0       16.569815   -0.914126    2.909372
     18          6           0       16.224093   -2.306011    2.763541
     19          6           0       15.321381   -2.373520    1.610620
     20          6           0       17.563667   -0.249981    3.793446
     21          6           0       16.766107   -3.583671    3.483496
     22          8           0       16.347779   -4.717164    3.239196
     23          6           0       17.736315   -3.481543    4.627102
     24          7           0       13.244514   -2.691228   -0.706183
     25          6           0       13.865151   -3.751798    0.008653
     26          6           0       13.412109   -5.106256   -0.426087
     27          6           0       12.150506   -4.673370   -1.241504
     28          6           0       12.168621   -3.147691   -1.285203
     29          6           0       14.483120   -5.913782   -1.234839
     30          6           0       10.798356   -5.173702   -0.613886
     31          6           0       10.594363   -4.850044    0.888116
     32          7           0       11.985456   -0.207914   -1.393766
     33          6           0       11.158852   -1.055576   -2.147363
     34          6           0       10.402054   -0.222484   -3.004940
     35          6           0       10.832201    1.076650   -2.765237
     36          6           0       11.785850    1.021350   -1.802938
     37          6           0        9.321393   -0.682825   -3.930636
     38          6           0       10.692314    2.385650   -3.203473
     39          8           0        9.956941    2.846832   -4.095316
     40          6           0       11.671972    3.321576   -2.433321
     41          6           0       10.720595    4.334347   -1.722869
     42          8           0        9.946498    4.063359   -0.787650
     43          8           0       10.891126    5.577369   -2.322700
     44          6           0        9.914179    6.664251   -1.995872
     45          1           0       16.719925    1.720239    1.871864
     46          1           0       14.975341   -4.572858    1.343030
     47          1           0       10.426501   -2.950521   -2.580674
     48          1           0       14.257530    4.432788   -1.140811
     49          1           0       15.837269    3.788981    1.115176
     50          1           0       16.344452    3.497465   -1.831060
     51          1           0       16.766794    2.037983   -1.090171
     52          1           0       17.477471    3.630544   -0.526878
     53          1           0       13.731388    4.665348    1.652795
     54          1           0       12.256675    4.324379    0.649114
     55          1           0       13.237286    6.202804   -0.766382
     56          1           0       14.284569    6.558861    0.599804
     57          1           0       17.422275    0.830494    3.811389
     58          1           0       18.551067   -0.643433    3.549585
     59          1           0       17.383370   -0.552435    4.825065
     60          1           0       18.254581   -4.440719    4.627078
     61          1           0       17.208687   -3.386646    5.576435
     62          1           0       18.471785   -2.691679    4.471331
     63          1           0       13.082619   -5.746485    0.393432
     64          1           0       12.242039   -5.059951   -2.257042
     65          1           0       15.216749   -5.217493   -1.642025
     66          1           0       14.120846   -6.501940   -2.078152
     67          1           0       15.054750   -6.649160   -0.667928
     68          1           0       10.743224   -6.238410   -0.841373
     69          1           0       10.042619   -4.711910   -1.249179
     70          1           0        9.706170   -4.244741    1.070379
     71          1           0       11.495171   -4.333334    1.220430
     72          1           0       10.480623   -5.744950    1.499190
     73          1           0        9.610480   -0.328193   -4.919921
     74          1           0        8.379445   -0.267807   -3.572066
     75          1           0        9.222390   -1.763355   -4.035070
     76          1           0       12.274575    3.857942   -3.165835
     77          1           0        8.937157    6.293502   -2.305002
     78          1           0       10.061887    7.636863   -2.465141
     79          1           0       10.075715    6.663466   -0.917872
     80         12           0      -13.638801   -0.468725   -0.072916
     81          6           0      -11.359861    2.086579    0.562997
     82          6           0      -16.203429    1.820829    0.051481
     83          6           0      -15.735726   -3.092828   -0.418365
     84          6           0      -10.942004   -2.795117    0.218447
     85          7           0      -13.734272    1.657406    0.376470
     86          6           0      -12.698583    2.516613    0.577812
     87          6           0      -13.185173    3.968651    0.670024
     88          6           0      -14.765861    3.776264    0.642676
     89          6           0      -14.899552    2.285193    0.316000
     90          6           0      -15.408237    4.118165    1.981639
     91          6           0      -12.806098    4.897943   -0.537603
     92          6           0      -12.672731    6.372894   -0.260737
     93          1           0      -13.213431    6.927390    0.980596
     94          7           0      -15.641313   -0.593356   -0.256567
     95          6           0      -16.538538    0.489701   -0.167385
     96          6           0      -17.833120   -0.030753   -0.521261
     97          6           0      -17.744225   -1.432132   -0.717521
     98          6           0      -16.323676   -1.775085   -0.461172
     99          6           0      -19.104993    0.785734   -0.437107
    100          6           0      -18.753300   -2.421724   -1.126127
    101          8           0      -18.576026   -3.619514   -1.061025
    102          6           0      -20.202732   -1.962139   -1.524169
    103          7           0      -13.391848   -2.688000   -0.274313
    104          6           0      -14.402711   -3.498057   -0.377609
    105          6           0      -13.941091   -4.986417   -0.392937
    106          6           0      -12.429915   -4.916381   -0.268804
    107          6           0      -12.181436   -3.382431   -0.037118
    108          6           0      -14.731950   -5.828614    0.715424
    109          6           0      -11.693138   -5.520373   -1.482988
    110          6           0      -11.211490   -7.014487   -1.362435
    111          7           0      -11.617201   -0.422190    0.040161
    112          6           0      -10.636703   -1.438890    0.153877
    113          6           0       -9.338407   -0.889678    0.254415
    114          6           0       -9.618519    0.520887    0.503454
    115          6           0      -11.019083    0.700153    0.317114
    116          6           0       -8.056346   -1.667552    0.488635
    117          6           0       -8.945245    1.718780    0.846894
    118          8           0       -7.761121    1.975247    1.025068
    119          6           0      -10.139126    2.882529    0.810930
    120          6           0      -10.041288    3.583574    2.134005
    121          8           0      -10.162263    3.027860    3.230817
    122          8           0       -9.655754    4.950867    2.004642
    123          6           0       -9.525727    5.713888    3.285327
    124          1           0      -16.966362    2.601078    0.106647
    125          1           0      -16.484477   -3.883702   -0.343368
    126          1           0      -10.075359   -3.457380    0.264072
    127          1           0      -12.836337    4.343994    1.632327
    128          1           0      -15.257686    4.407565   -0.097256
    129          1           0      -14.720710    4.673714    2.618853
    130          1           0      -15.825209    3.245354    2.484807
    131          1           0      -16.200478    4.863599    1.912106
    132          1           0      -13.547212    4.735416   -1.319408
    133          1           0      -11.897957    4.481118   -0.973625
    134          1           0      -13.246534    6.890676   -1.029027
    135          1           0      -11.618627    6.647658   -0.299905
    136          1           0      -19.783688    0.443907    0.344246
    137          1           0      -19.580381    0.769491   -1.418736
    138          1           0      -18.983191    1.839407   -0.186547
    139          1           0      -20.736191   -1.820249   -0.583923
    140          1           0      -20.738791   -2.783398   -2.000048
    141          1           0      -20.177307   -1.013736   -2.059430
    142          1           0      -14.263269   -5.329394   -1.376308
    143          1           0      -12.080237   -5.349185    0.667219
    144          1           0      -14.034616   -6.313388    1.398527
    145          1           0      -15.287697   -6.672820    0.306826
    146          1           0      -15.328657   -5.085053    1.245384
    147          1           0      -10.815977   -4.892475   -1.643218
    148          1           0      -12.352598   -5.391344   -2.341351
    149          1           0      -10.236061   -7.007333   -0.874754
    150          1           0      -11.192025   -7.637040   -2.257150
    151          1           0      -11.913541   -7.385532   -0.616505
    152          1           0       -7.760136   -1.962883   -0.517573
    153          1           0       -8.235214   -2.558602    1.089249
    154          1           0       -7.310038   -1.192980    1.127040
    155          1           0       -9.963369    3.537879   -0.043037
    156          1           0       -8.737220    5.306382    3.916992
    157          1           0      -10.405511    5.813837    3.921565
    158          1           0       -9.187637    6.667172    2.879074
 ---------------------------------------------------------------------

 SCF Done:  E(RwB97XD) =  -4070.64397991     A.U. after   19 cycles

 Excitation energies and oscillator strengths:

 Excited State   1:      Singlet-A      1.6040 eV  772.98 nm  f=0.3986  <S**2>=0.000
     310 -> 316       -0.16804
     312 -> 314        0.68639
     310 <- 316       -0.11344
 This state for optimization and/or second-order correction.
 Total Energy, E(TD-HF/TD-DFT) =  -4070.58503492
 Copying the excited state density for this state as the 1-particle RhoCI density.

 Excited State   2:      Singlet-A      1.6914 eV  733.05 nm  f=0.3591  <S**2>=0.000
     309 -> 315       -0.17799
     311 -> 313        0.68380
     309 <- 315       -0.11255

 Excited State   3:      Singlet-A      2.1619 eV  573.49 nm  f=0.1113  <S**2>=0.000
     310 -> 314        0.64077
     312 -> 316        0.27522

 Excited State   4:      Singlet-A      2.1732 eV  570.52 nm  f=0.1538  <S**2>=0.000
     309 -> 313        0.64636
     311 -> 315        0.26306

 Excited State   5:      Singlet-A      3.2496 eV  381.54 nm  f=0.0002  <S**2>=0.000
     304 -> 314        0.18951
     304 -> 318       -0.11242
     304 -> 320       -0.13048
     305 -> 314        0.55694
     308 -> 314        0.30407

 The electronic state is 1-A.
 Alpha  occ. eigenvalues --  -46.94570 -46.94296 -19.29872 -19.29303 -19.24865
 Alpha  occ. eigenvalues --  -19.24336 -19.24309 -19.23646 -19.23154 -19.22648
 Alpha  occ. eigenvalues --  -14.47241 -14.46458 -14.46202 -14.45976 -14.44811
 Alpha  occ. eigenvalues --  -14.43865 -14.43817 -14.43010 -10.43825 -10.42855
 Alpha  occ. eigenvalues --  -10.39477 -10.39146 -10.38251 -10.37564 -10.35837
 Alpha  occ. eigenvalues --  -10.35660 -10.35607 -10.35294 -10.34915 -10.34862
 Alpha  occ. eigenvalues --  -10.34826 -10.34791 -10.34629 -10.34455 -10.34236
 Alpha  occ. eigenvalues --  -10.34130 -10.34119 -10.33927 -10.33272 -10.33058
 Alpha  occ. eigenvalues --  -10.32768 -10.32741 -10.32350 -10.32298 -10.32246
 Alpha  occ. eigenvalues --  -10.32238 -10.32158 -10.32109 -10.32013 -10.32006
 Alpha  occ. eigenvalues --  -10.31953 -10.31875 -10.31826 -10.31795 -10.31744
 Alpha  occ. eigenvalues --  -10.31717 -10.31699 -10.31627 -10.31504 -10.31495
 Alpha  occ. eigenvalues --  -10.31481 -10.31459 -10.31149 -10.30959 -10.30821
 Alpha  occ. eigenvalues --  -10.30759 -10.30740 -10.30689 -10.30428 -10.30420
 Alpha  occ. eigenvalues --  -10.30250 -10.30240 -10.30228 -10.30156 -10.29866
 Alpha  occ. eigenvalues --  -10.29848 -10.29698 -10.29698 -10.29626 -10.29601
 Alpha  occ. eigenvalues --  -10.29569 -10.29567 -10.29525 -10.29292 -10.28450
 Alpha  occ. eigenvalues --  -10.27716  -3.20598  -3.20404  -1.94167  -1.94013
 Alpha  occ. eigenvalues --   -1.93728  -1.93572  -1.93527  -1.93394  -1.16481
 Alpha  occ. eigenvalues --   -1.15514  -1.13381  -1.11569  -1.10748  -1.10084
 Alpha  occ. eigenvalues --   -1.08749  -1.07948  -1.07159  -1.06759  -1.05903
 Alpha  occ. eigenvalues --   -1.05822  -1.05422  -1.05352  -1.04499  -1.04133
 Alpha  occ. eigenvalues --   -0.94444  -0.93985  -0.91176  -0.90916  -0.90816
 Alpha  occ. eigenvalues --   -0.90797  -0.90356  -0.90311  -0.89747  -0.89607
 Alpha  occ. eigenvalues --   -0.89362  -0.88975  -0.88372  -0.88144  -0.86391
 Alpha  occ. eigenvalues --   -0.86196  -0.85340  -0.84840  -0.84099  -0.83956
 Alpha  occ. eigenvalues --   -0.83427  -0.83408  -0.82830  -0.82293  -0.82245
 Alpha  occ. eigenvalues --   -0.81932  -0.80758  -0.80051  -0.79135  -0.78884
 Alpha  occ. eigenvalues --   -0.78755  -0.78724  -0.77856  -0.77747  -0.77294
 Alpha  occ. eigenvalues --   -0.76956  -0.75138  -0.75069  -0.73902  -0.73564
 Alpha  occ. eigenvalues --   -0.71605  -0.71524  -0.70867  -0.70646  -0.69904
 Alpha  occ. eigenvalues --   -0.69417  -0.69268  -0.68387  -0.67674  -0.67225
 Alpha  occ. eigenvalues --   -0.67141  -0.66922  -0.66570  -0.66489  -0.66349
 Alpha  occ. eigenvalues --   -0.65938  -0.63485  -0.63333  -0.62387  -0.61775
 Alpha  occ. eigenvalues --   -0.61655  -0.61556  -0.61286  -0.61032  -0.60496
 Alpha  occ. eigenvalues --   -0.60333  -0.59696  -0.59459  -0.59264  -0.58850
 Alpha  occ. eigenvalues --   -0.58242  -0.57845  -0.57460  -0.57168  -0.56958
 Alpha  occ. eigenvalues --   -0.56859  -0.56612  -0.56518  -0.55910  -0.55339
 Alpha  occ. eigenvalues --   -0.55337  -0.55105  -0.54866  -0.54846  -0.54790
 Alpha  occ. eigenvalues --   -0.54663  -0.54395  -0.54280  -0.54232  -0.54180
 Alpha  occ. eigenvalues --   -0.53911  -0.53756  -0.53525  -0.53440  -0.53292
 Alpha  occ. eigenvalues --   -0.52851  -0.52464  -0.52323  -0.52174  -0.52098
 Alpha  occ. eigenvalues --   -0.51731  -0.51608  -0.51448  -0.51439  -0.51241
 Alpha  occ. eigenvalues --   -0.51163  -0.50996  -0.50964  -0.50721  -0.50585
 Alpha  occ. eigenvalues --   -0.50535  -0.50349  -0.50258  -0.50013  -0.49925
 Alpha  occ. eigenvalues --   -0.49805  -0.49556  -0.49537  -0.49380  -0.49220
 Alpha  occ. eigenvalues --   -0.49160  -0.49023  -0.48896  -0.48798  -0.48569
 Alpha  occ. eigenvalues --   -0.48417  -0.48101  -0.47784  -0.47710  -0.47542
 Alpha  occ. eigenvalues --   -0.47292  -0.46993  -0.46889  -0.46610  -0.46456
 Alpha  occ. eigenvalues --   -0.46439  -0.46298  -0.46184  -0.46041  -0.45972
 Alpha  occ. eigenvalues --   -0.45768  -0.45582  -0.45278  -0.45276  -0.45237
 Alpha  occ. eigenvalues --   -0.45014  -0.44905  -0.44902  -0.44771  -0.44530
 Alpha  occ. eigenvalues --   -0.44498  -0.44461  -0.44197  -0.43879  -0.43758
 Alpha  occ. eigenvalues --   -0.43712  -0.43660  -0.43418  -0.43404  -0.43143
 Alpha  occ. eigenvalues --   -0.42954  -0.42705  -0.42646  -0.42495  -0.42133
 Alpha  occ. eigenvalues --   -0.42051  -0.41761  -0.41733  -0.41287  -0.40951
 Alpha  occ. eigenvalues --   -0.40508  -0.40080  -0.39866  -0.39764  -0.39203
 Alpha  occ. eigenvalues --   -0.39184  -0.38922  -0.38785  -0.38436  -0.38062
 Alpha  occ. eigenvalues --   -0.37966  -0.37720  -0.36412  -0.36048  -0.36001
 Alpha  occ. eigenvalues --   -0.35868  -0.35502  -0.35365  -0.33809  -0.33435
 Alpha  occ. eigenvalues --   -0.33123  -0.32707  -0.32642  -0.31939  -0.31808
 Alpha  occ. eigenvalues --   -0.31696  -0.31546  -0.31436  -0.26099  -0.26055
 Alpha  occ. eigenvalues --   -0.23343  -0.22897
 Alpha virt. eigenvalues --   -0.07374  -0.07251   0.00296   0.00534   0.02284
 Alpha virt. eigenvalues --    0.02706   0.04534   0.04569   0.05513   0.06885
 Alpha virt. eigenvalues --    0.06947   0.07250   0.07530   0.07931   0.08632

 Mulliken charges:
               1
     1  Mg   0.956203
     2  C   -0.066798
     3  C   -0.119154
     4  C   -0.020895
     5  C   -0.102819
     6  N   -0.406900
     7  C    0.020239
     8  C   -0.101792
     9  C   -0.087765
    10  C    0.034056
    11  C    0.034905
    12  C    0.039935
    13  C   -0.123677
    14  H    0.053001
    15  N   -0.463877
    16  C    0.229499
    17  C   -0.175648
    18  C   -0.078365
    19  C    0.188075
    20  C    0.069220
    21  C    0.055790
    22  O   -0.248668
    23  C   -0.006195
    24  N   -0.316630
    25  C   -0.057533
    26  C   -0.057864
    27  C   -0.099902
    28  C    0.112150
    29  C    0.018279
    30  C   -0.021921
    31  C   -0.053936
    32  N   -0.434968
    33  C    0.117130
    34  C   -0.197814
    35  C    0.054039
    36  C    0.194207
    37  C    0.092984
    38  C    0.016792
    39  O   -0.242579
    40  C   -0.028772
    41  C    0.287466
    42  O   -0.268420
    43  O   -0.389897
    44  C    0.142284
    45  H   -0.001092
    46  H    0.018534
    47  H    0.002648
    48  H    0.020062
    49  H    0.019389
    50  H    0.035530
    51  H    0.053015
    52  H    0.043330
    53  H    0.021616
    54  H    0.065740
    55  H    0.039890
    56  H    0.039992
    57  H    0.041073
    58  H    0.067523
    59  H    0.043058
    60  H    0.054550
    61  H    0.075043
    62  H    0.027129
    63  H    0.045726
    64  H    0.030831
    65  H    0.039512
    66  H    0.032657
    67  H    0.042531
    68  H    0.031141
    69  H    0.023051
    70  H    0.046758
    71  H    0.045710
    72  H    0.042237
    73  H    0.058057
    74  H    0.068461
    75  H    0.019601
    76  H    0.066822
    77  H    0.068609
    78  H    0.069419
    79  H    0.058385
    80  Mg   0.981451
    81  C   -0.071076
    82  C   -0.108138
    83  C   -0.077421
    84  C   -0.077054
    85  N   -0.334174
    86  C    0.003578
    87  C   -0.040183
    88  C   -0.140136
    89  C    0.072889
    90  C    0.018717
    91  C    0.018252
    92  C   -0.105760
    93  H    0.036422
    94  N   -0.531866
    95  C    0.234376
    96  C   -0.151182
    97  C   -0.045655
    98  C    0.152498
    99  C    0.052261
   100  C    0.017288
   101  O   -0.224912
   102  C   -0.005516
   103  N   -0.321208
   104  C    0.055847
   105  C   -0.094075
   106  C   -0.043740
   107  C    0.027466
   108  C    0.014756
   109  C   -0.005373
   110  C   -0.042802
   111  N   -0.449213
   112  C    0.125233
   113  C   -0.138787
   114  C   -0.084569
   115  C    0.187475
   116  C    0.059688
   117  C    0.113572
   118  O   -0.211254
   119  C   -0.083719
   120  C    0.288640
   121  O   -0.260517
   122  O   -0.404725
   123  C    0.141026
   124  H    0.004057
   125  H    0.032064
   126  H    0.000488
   127  H    0.043802
   128  H    0.038801
   129  H    0.033310
   130  H    0.049218
   131  H    0.022989
   132  H    0.024351
   133  H    0.025440
   134  H    0.048797
   135  H    0.067479
   136  H    0.063345
   137  H    0.049834
   138  H    0.030765
   139  H    0.053311
   140  H    0.055965
   141  H    0.038272
   142  H    0.048262
   143  H    0.027334
   144  H    0.030000
   145  H    0.045610
   146  H    0.051173
   147  H    0.026239
   148  H    0.026671
   149  H    0.037044
   150  H    0.054540
   151  H    0.027342
   152  H    0.054248
   153  H    0.037402
   154  H    0.064297
   155  H    0.072382
   156  H    0.058660
   157  H    0.054312
   158  H    0.053815
 Sum of Mulliken charges =  -0.00000

 Dipole moment (field-independent basis, Debye):
    X=             -2.5007    Y=              1.6699    Z=              0.3912  Tot=              3.0324
 Quadrupole moment (field-independent basis, Debye-Ang):
   XX=           -293.1978   YY=           -462.3453   ZZ=           -517.9154
   XY=            -19.3317   XZ=             40.5414   YZ=             14.6915

 Normal termination of Gaussian 16 at Sun Sep 19 11:17:39 2021.
