 Gaussian 16, Revision A.03,
 Gaussian 16:  ES64L-G16RevA.03 25-Dec-2016

 --------------------------------
 #p wB97XD/Def2SVP td=(nstates=5)
 --------------------------------

 --------------------------------
 TDDFT excited states in gaussian
 --------------------------------
 Symbolic Z-matrix:
 Charge =  0 Multiplicity = 1

                         Standard orientation:
 ---------------------------------------------------------------------
 Center     Atomic      Atomic             Coordinates (Angstroms)
 Number     Number       Type             X           Y           Z
 ---------------------------------------------------------------------
      1         12           0      -29.079322    0.267539   -0.591070
      2          6           0      -28.384475   -2.175306    1.684748
      3          6           0      -27.471523    2.590865    1.537558
      4          6           0      -29.942231    2.734564   -2.684489
      5          6           0      -30.556934   -2.089305   -2.606194
      6          7           0      -28.331436    0.292711    1.501682
      7          6           0      -28.043905   -0.892255    2.191061
      8          6           0      -27.324962   -0.618913    3.542490
      9          6           0      -27.149110    0.917761    3.416382
     10          6           0      -27.745978    1.333441    2.083983
     11          6           0      -27.625462    1.906314    4.564367
     12          6           0      -25.946158   -1.376303    3.787052
     13          6           0      -25.308473   -0.995448    5.150060
     14          1           0      -25.380311   -2.118754    6.185371
     15          7           0      -28.695584    2.414145   -0.588119
     16          6           0      -27.827637    3.078295    0.251704
     17          6           0      -27.881592    4.478487   -0.151971
     18          6           0      -28.613556    4.507189   -1.382479
     19          6           0      -29.110598    3.190500   -1.630553
     20          6           0      -27.175422    5.522135    0.624392
     21          6           0      -28.917214    5.830957   -2.167345
     22          8           0      -29.724401    5.902410   -3.116172
     23          6           0      -28.275992    7.124356   -1.736712
     24          7           0      -30.070921    0.320028   -2.275579
     25          6           0      -30.344761    1.500731   -3.021724
     26          6           0      -31.369513    1.233329   -4.100737
     27          6           0      -31.141674   -0.262023   -4.313341
     28          6           0      -30.502906   -0.738092   -3.016402
     29          6           0      -32.831497    1.569977   -3.652939
     30          6           0      -30.156648   -0.559204   -5.466030
     31          6           0      -30.695967   -0.631838   -6.869364
     32          7           0      -29.493275   -1.751842   -0.555476
     33          6           0      -29.951269   -2.610946   -1.480289
     34          6           0      -29.962367   -3.935842   -0.934057
     35          6           0      -29.343689   -3.839650    0.294279
     36          6           0      -29.030522   -2.482898    0.470619
     37          6           0      -30.467310   -5.112132   -1.694525
     38          6           0      -28.924375   -4.595318    1.396408
     39          8           0      -28.969095   -5.789002    1.623337
     40          6           0      -28.260609   -3.521070    2.379743
     41          6           0      -28.964024   -3.603975    3.688009
     42          8           0      -30.107441   -3.296588    3.922301
     43          8           0      -28.121311   -3.937498    4.670086
     44          6           0      -28.706969   -4.003556    6.064325
     45          1           0      -26.828966    3.211324    2.165505
     46          1           0      -30.225117    3.527433   -3.379806
     47          1           0      -30.891751   -2.911036   -3.242120
     48          1           0      -28.016577   -0.848584    4.353122
     49          1           0      -26.090854    1.152584    3.298267
     50          1           0      -26.995407    2.777945    4.743529
     51          1           0      -27.898443    1.336057    5.452457
     52          1           0      -28.536450    2.352139    4.165288
     53          1           0      -25.357494   -1.113995    2.908836
     54          1           0      -26.136641   -2.448872    3.751787
     55          1           0      -25.713874   -0.045153    5.497471
     56          1           0      -24.246456   -0.842359    4.960527
     57          1           0      -27.928006    6.153036    1.097728
     58          1           0      -26.473155    5.983071   -0.070219
     59          1           0      -26.541842    5.073176    1.389454
     60          1           0      -28.550183    7.921789   -2.427385
     61          1           0      -27.212069    6.956747   -1.909807
     62          1           0      -28.439184    7.439675   -0.706490
     63          1           0      -31.161888    1.820507   -4.995713
     64          1           0      -32.062008   -0.820703   -4.482286
     65          1           0      -33.211948    0.820897   -2.959595
     66          1           0      -33.484038    1.652080   -4.522568
     67          1           0      -32.767237    2.546922   -3.175094
     68          1           0      -29.569223   -1.461329   -5.299920
     69          1           0      -29.356188    0.180731   -5.458409
     70          1           0      -30.174991    0.135024   -7.441895
     71          1           0      -31.713694   -0.257089   -6.759202
     72          1           0      -30.676886   -1.627864   -7.312006
     73          1           0      -29.640348   -5.641770   -2.165912
     74          1           0      -31.306188   -4.968378   -2.376187
     75          1           0      -30.851105   -5.793752   -0.935250
     76          1           0      -27.208789   -3.778674    2.506014
     77          1           0      -29.239628   -3.066735    6.229324
     78          1           0      -27.949922   -4.071503    6.846021
     79          1           0      -29.385985   -4.855822    6.098444
     80         12           0       29.394796   -0.562353    0.191193
     81          6           0       27.089222    2.100456    0.410641
     82          6           0       26.812711   -2.631074   -0.913757
     83          6           0       31.773643   -2.716464   -0.955660
     84          6           0       31.947311    1.867052    0.833468
     85          7           0       27.247187   -0.284387   -0.156700
     86          6           0       26.546073    0.862511   -0.032671
     87          6           0       25.074500    0.677669   -0.527130
     88          6           0       24.985260   -0.917165   -0.562462
     89          6           0       26.482053   -1.364190   -0.508852
     90          6           0       24.248863   -1.694726    0.551913
     91          6           0       24.918806    1.369988   -1.933787
     92          6           0       23.535175    2.040009   -2.160304
     93          1           0       22.918745    1.862129   -3.607380
     94          7           0       29.316915   -2.559095   -0.638226
     95          6           0       28.146577   -3.198200   -0.951057
     96          6           0       28.499999   -4.488461   -1.407696
     97          6           0       29.920229   -4.569408   -1.515038
     98          6           0       30.433925   -3.264974   -0.977914
     99          6           0       27.518242   -5.563747   -1.809400
    100          6           0       30.707536   -5.651438   -2.171999
    101          8           0       30.168937   -6.577153   -2.757413
    102          6           0       32.144548   -5.692367   -2.250394
    103          7           0       31.583248   -0.357490   -0.119527
    104          6           0       32.323007   -1.500005   -0.458713
    105          6           0       33.789448   -1.241732   -0.306592
    106          6           0       33.882641    0.244026    0.203089
    107          6           0       32.418992    0.632980    0.320026
    108          6           0       34.381871   -2.279558    0.655289
    109          6           0       34.877920    1.138400   -0.627907
    110          6           0       35.987527    1.801390    0.130519
    111          7           0       29.548666    1.583918    0.596926
    112          6           0       30.642142    2.364496    0.881442
    113          6           0       30.215372    3.718188    1.298717
    114          6           0       28.820452    3.628438    1.047713
    115          6           0       28.478372    2.329449    0.721636
    116          6           0       31.058722    4.926967    1.672871
    117          6           0       27.631314    4.433013    0.954006
    118          8           0       27.481558    5.654262    1.115196
    119          6           0       26.454786    3.536045    0.570084
    120          6           0       25.363239    3.633822    1.557035
    121          8           0       24.276310    3.981586    1.266811
    122          8           0       25.676181    3.101330    2.774205
    123          6           0       24.470317    2.992611    3.623665
    124          1           0       26.016954   -3.327347   -1.188258
    125          1           0       32.482912   -3.490438   -1.253102
    126          1           0       32.574882    2.742931    1.013967
    127          1           0       24.411525    1.134271    0.207978
    128          1           0       24.778929   -1.349863   -1.541254
    129          1           0       24.243943   -1.117829    1.477421
    130          1           0       24.617016   -2.697712    0.767983
    131          1           0       23.214058   -1.771832    0.219950
    132          1           0       25.140880    0.667551   -2.737637
    133          1           0       25.699867    2.130164   -1.950227
    134          1           0       23.731505    3.093039   -1.957838
    135          1           0       22.937667    1.633165   -1.344184
    136          1           0       27.887913   -6.588979   -1.786868
    137          1           0       27.239543   -5.283312   -2.824808
    138          1           0       26.521839   -5.503045   -1.371639
    139          1           0       32.513681   -5.729883   -1.224687
    140          1           0       32.533391   -4.841596   -2.810675
    141          1           0       32.434601   -6.597683   -2.783741
    142          1           0       34.276820   -1.213242   -1.280853
    143          1           0       34.088661    0.403024    1.261796
    144          1           0       33.722639   -3.129982    0.831024
    145          1           0       34.575657   -1.853345    1.639611
    146          1           0       35.207472   -2.796778    0.167349
    147          1           0       34.240321    1.884355   -1.102392
    148          1           0       35.471228    0.582914   -1.353295
    149          1           0       35.927249    2.868329   -0.082515
    150          1           0       36.968109    1.473281   -0.214806
    151          1           0       35.998477    1.543249    1.189499
    152          1           0       31.418121    5.475489    0.801969
    153          1           0       31.879657    4.686262    2.349488
    154          1           0       30.303661    5.569484    2.125642
    155          1           0       25.985081    3.916629   -0.335996
    156          1           0       24.776306    2.563250    4.578023
    157          1           0       23.715818    2.369259    3.144007
    158          1           0       24.049702    3.949398    3.931158
 ---------------------------------------------------------------------

 SCF Done:  E(RwB97XD) =  -4070.60704824     A.U. after   19 cycles

 Excitation energies and oscillator strengths:

 Excited State   1:      Singlet-A      1.5970 eV  776.35 nm  f=0.3834  <S**2>=0.000
     309 -> 316       -0.16565
     312 -> 314        0.68826
     309 <- 316       -0.11237
 This state for optimization and/or second-order correction.
 Total Energy, E(TD-HF/TD-DFT) =  -4070.54835941
 Copying the excited state density for this state as the 1-particle RhoCI density.

 Excited State   2:      Singlet-A      1.6192 eV  765.71 nm  f=0.4133  <S**2>=0.000
     310 -> 315        0.17887
     311 -> 313        0.68464
     310 <- 315        0.11646

 Excited State   3:      Singlet-A      2.1452 eV  577.96 nm  f=0.1102  <S**2>=0.000
     310 -> 313        0.63989
     311 -> 315       -0.28456

 Excited State   4:      Singlet-A      2.1950 eV  564.85 nm  f=0.1056  <S**2>=0.000
     309 -> 314        0.63719
     312 -> 316        0.28949

 Excited State   5:      Singlet-A      3.2156 eV  385.57 nm  f=0.0019  <S**2>=0.000
     308 -> 314        0.67733

 The electronic state is 1-A.
 Alpha  occ. eigenvalues --  -46.97185 -46.93859 -19.30369 -19.30159 -19.24876
 Alpha  occ. eigenvalues --  -19.24497 -19.23971 -19.23706 -19.23554 -19.22330
 Alpha  occ. eigenvalues --  -14.47626 -14.47341 -14.47297 -14.46372 -14.44504
 Alpha  occ. eigenvalues --  -14.43919 -14.43486 -14.43443 -10.42593 -10.42385
 Alpha  occ. eigenvalues --  -10.39171 -10.39009 -10.38850 -10.37427 -10.36327
 Alpha  occ. eigenvalues --  -10.36144 -10.36075 -10.36034 -10.35905 -10.35601
 Alpha  occ. eigenvalues --  -10.35409 -10.35118 -10.35026 -10.34531 -10.34265
 Alpha  occ. eigenvalues --  -10.34033 -10.33887 -10.33547 -10.33545 -10.33470
 Alpha  occ. eigenvalues --  -10.33261 -10.33137 -10.33132 -10.33096 -10.33040
 Alpha  occ. eigenvalues --  -10.33029 -10.32784 -10.32680 -10.32657 -10.32603
 Alpha  occ. eigenvalues --  -10.32519 -10.32513 -10.32301 -10.32277 -10.32219
 Alpha  occ. eigenvalues --  -10.32155 -10.31875 -10.31865 -10.31799 -10.31595
 Alpha  occ. eigenvalues --  -10.31577 -10.31523 -10.31399 -10.31357 -10.31163
 Alpha  occ. eigenvalues --  -10.30997 -10.30926 -10.30779 -10.30758 -10.30732
 Alpha  occ. eigenvalues --  -10.30673 -10.30415 -10.30408 -10.30384 -10.30276
 Alpha  occ. eigenvalues --  -10.30094 -10.29682 -10.29594 -10.29584 -10.29556
 Alpha  occ. eigenvalues --  -10.29518 -10.29498 -10.29187 -10.29152 -10.29106
 Alpha  occ. eigenvalues --  -10.28899  -3.22829  -3.20045  -1.96422  -1.95920
 Alpha  occ. eigenvalues --   -1.95781  -1.93645  -1.93189  -1.93020  -1.20168
 Alpha  occ. eigenvalues --   -1.19108  -1.12740  -1.11748  -1.11288  -1.11246
 Alpha  occ. eigenvalues --   -1.10460  -1.09362  -1.07524  -1.07199  -1.05937
 Alpha  occ. eigenvalues --   -1.05773  -1.05464  -1.05101  -1.04585  -1.03982
 Alpha  occ. eigenvalues --   -0.95364  -0.94660  -0.91311  -0.90980  -0.90948
 Alpha  occ. eigenvalues --   -0.90676  -0.90555  -0.90146  -0.89983  -0.89879
 Alpha  occ. eigenvalues --   -0.89122  -0.89019  -0.88489  -0.87778  -0.86808
 Alpha  occ. eigenvalues --   -0.86622  -0.86289  -0.85849  -0.84657  -0.84426
 Alpha  occ. eigenvalues --   -0.84425  -0.83505  -0.83174  -0.82917  -0.82584
 Alpha  occ. eigenvalues --   -0.82549  -0.80636  -0.80348  -0.79580  -0.79484
 Alpha  occ. eigenvalues --   -0.79150  -0.78829  -0.78438  -0.78155  -0.77388
 Alpha  occ. eigenvalues --   -0.77141  -0.75236  -0.75182  -0.74523  -0.73790
 Alpha  occ. eigenvalues --   -0.71435  -0.71386  -0.71224  -0.70935  -0.70225
 Alpha  occ. eigenvalues --   -0.69954  -0.68874  -0.68317  -0.68057  -0.67776
 Alpha  occ. eigenvalues --   -0.67678  -0.67036  -0.66883  -0.66678  -0.66646
 Alpha  occ. eigenvalues --   -0.66160  -0.65341  -0.64112  -0.62216  -0.62117
 Alpha  occ. eigenvalues --   -0.62053  -0.62028  -0.61134  -0.61015  -0.60897
 Alpha  occ. eigenvalues --   -0.60877  -0.60327  -0.60306  -0.60003  -0.59079
 Alpha  occ. eigenvalues --   -0.58536  -0.58479  -0.58053  -0.58005  -0.57566
 Alpha  occ. eigenvalues --   -0.57105  -0.57025  -0.56694  -0.56536  -0.56216
 Alpha  occ. eigenvalues --   -0.55521  -0.55391  -0.55342  -0.55332  -0.55119
 Alpha  occ. eigenvalues --   -0.54835  -0.54798  -0.54655  -0.54595  -0.54235
 Alpha  occ. eigenvalues --   -0.54233  -0.53735  -0.53700  -0.53596  -0.53462
 Alpha  occ. eigenvalues --   -0.53307  -0.53277  -0.52849  -0.52295  -0.52181
 Alpha  occ. eigenvalues --   -0.51994  -0.51933  -0.51837  -0.51811  -0.51685
 Alpha  occ. eigenvalues --   -0.51565  -0.51264  -0.51181  -0.51056  -0.50885
 Alpha  occ. eigenvalues --   -0.50690  -0.50590  -0.50349  -0.50172  -0.50130
 Alpha  occ. eigenvalues --   -0.49988  -0.49692  -0.49486  -0.49443  -0.49282
 Alpha  occ. eigenvalues --   -0.49090  -0.48966  -0.48843  -0.48736  -0.48647
 Alpha  occ. eigenvalues --   -0.48454  -0.48413  -0.48294  -0.48275  -0.47958
 Alpha  occ. eigenvalues --   -0.47856  -0.47705  -0.47450  -0.47226  -0.47121
 Alpha  occ. eigenvalues --   -0.47062  -0.46825  -0.46661  -0.46658  -0.46324
 Alpha  occ. eigenvalues --   -0.46181  -0.46017  -0.45687  -0.45676  -0.45554
 Alpha  occ. eigenvalues --   -0.45491  -0.45328  -0.45277  -0.44951  -0.44841
 Alpha  occ. eigenvalues --   -0.44812  -0.44574  -0.44365  -0.43913  -0.43726
 Alpha  occ. eigenvalues --   -0.43723  -0.43542  -0.43536  -0.43325  -0.43106
 Alpha  occ. eigenvalues --   -0.42925  -0.42831  -0.42669  -0.42555  -0.42295
 Alpha  occ. eigenvalues --   -0.42085  -0.41966  -0.41740  -0.41565  -0.41154
 Alpha  occ. eigenvalues --   -0.40610  -0.40317  -0.40037  -0.39949  -0.39685
 Alpha  occ. eigenvalues --   -0.39395  -0.39267  -0.39039  -0.38962  -0.38670
 Alpha  occ. eigenvalues --   -0.38575  -0.38357  -0.36932  -0.36260  -0.36157
 Alpha  occ. eigenvalues --   -0.36001  -0.35777  -0.35471  -0.33737  -0.33685
 Alpha  occ. eigenvalues --   -0.33295  -0.33003  -0.32813  -0.32632  -0.32434
 Alpha  occ. eigenvalues --   -0.31934  -0.31354  -0.31250  -0.26544  -0.26451
 Alpha  occ. eigenvalues --   -0.23390  -0.22929
 Alpha virt. eigenvalues --   -0.07780  -0.07428  -0.00365   0.00367   0.02307
 Alpha virt. eigenvalues --    0.02443   0.04389   0.04469   0.04525   0.06373
 Alpha virt. eigenvalues --    0.07251   0.07296   0.07979   0.07995   0.08185

 Mulliken charges:
               1
     1  Mg   0.971229
     2  C   -0.006142
     3  C   -0.072365
     4  C   -0.076373
     5  C   -0.099618
     6  N   -0.340948
     7  C   -0.009413
     8  C   -0.022345
     9  C   -0.153785
    10  C    0.065387
    11  C    0.013355
    12  C   -0.006045
    13  C   -0.111460
    14  H    0.047886
    15  N   -0.435431
    16  C    0.162723
    17  C   -0.218450
    18  C   -0.077929
    19  C    0.134436
    20  C    0.083606
    21  C    0.066573
    22  O   -0.256629
    23  C   -0.006755
    24  N   -0.468447
    25  C    0.098636
    26  C   -0.069511
    27  C   -0.080553
    28  C    0.140260
    29  C    0.040748
    30  C   -0.043682
    31  C   -0.003966
    32  N   -0.428007
    33  C    0.106685
    34  C   -0.178917
    35  C    0.017690
    36  C    0.137177
    37  C    0.064769
    38  C    0.098799
    39  O   -0.191655
    40  C   -0.123793
    41  C    0.249353
    42  O   -0.247094
    43  O   -0.362878
    44  C    0.139228
    45  H   -0.004173
    46  H    0.019924
    47  H   -0.001746
    48  H    0.044497
    49  H    0.034736
    50  H    0.042254
    51  H    0.043395
    52  H    0.037640
    53  H    0.035424
    54  H    0.054636
    55  H    0.050965
    56  H    0.052992
    57  H    0.065787
    58  H    0.049357
    59  H    0.025717
    60  H    0.051267
    61  H    0.045791
    62  H    0.060812
    63  H    0.028078
    64  H    0.023071
    65  H    0.041810
    66  H    0.042120
    67  H    0.041577
    68  H    0.022342
    69  H    0.020632
    70  H    0.035339
    71  H    0.017899
    72  H    0.051253
    73  H    0.062378
    74  H    0.044984
    75  H    0.051473
    76  H    0.073889
    77  H    0.057963
    78  H    0.059955
    79  H    0.069614
    80  Mg   0.930563
    81  C   -0.012306
    82  C   -0.078791
    83  C   -0.029787
    84  C   -0.055213
    85  N   -0.359285
    86  C   -0.011358
    87  C   -0.090466
    88  C   -0.100367
    89  C    0.079402
    90  C    0.033013
    91  C    0.011785
    92  C   -0.106995
    93  H    0.041701
    94  N   -0.446440
    95  C    0.131738
    96  C   -0.166228
    97  C   -0.071349
    98  C    0.121570
    99  C    0.092339
   100  C   -0.000461
   101  O   -0.245887
   102  C    0.011371
   103  N   -0.354198
   104  C    0.049184
   105  C   -0.068693
   106  C   -0.054132
   107  C    0.053274
   108  C    0.028790
   109  C   -0.008423
   110  C   -0.059104
   111  N   -0.368012
   112  C    0.038723
   113  C   -0.158742
   114  C   -0.038380
   115  C    0.117308
   116  C    0.062079
   117  C    0.094536
   118  O   -0.225731
   119  C   -0.017585
   120  C    0.221541
   121  O   -0.212634
   122  O   -0.366506
   123  C    0.140003
   124  H    0.006061
   125  H   -0.031069
   126  H   -0.001339
   127  H    0.038017
   128  H    0.035486
   129  H    0.032280
   130  H    0.046122
   131  H    0.040138
   132  H    0.042485
   133  H    0.036096
   134  H    0.065965
   135  H    0.053250
   136  H    0.070784
   137  H    0.039804
   138  H    0.017343
   139  H    0.051110
   140  H    0.064320
   141  H    0.052296
   142  H    0.048004
   143  H    0.037679
   144  H    0.035139
   145  H    0.041433
   146  H    0.037086
   147  H    0.041962
   148  H    0.039592
   149  H    0.042344
   150  H    0.030782
   151  H    0.032996
   152  H    0.064847
   153  H    0.051577
   154  H    0.065765
   155  H    0.062052
   156  H    0.046748
   157  H    0.053338
   158  H    0.057664
 Sum of Mulliken charges =  -0.00000

 Dipole moment (field-independent basis, Debye):
    X=              7.1006    Y=              0.2840    Z=              3.6610  Tot=              7.9938
 Quadrupole moment (field-independent basis, Debye-Ang):
   XX=           -433.0193   YY=           -584.1171   ZZ=           -484.5640
   XY=            -71.7792   XZ=             57.0831   YZ=              9.0550

 Normal termination of Gaussian 16 at Mon Sep 20 01:58:08 2021.
