 Gaussian 16, Revision A.03,
 Gaussian 16:  ES64L-G16RevA.03 25-Dec-2016

 --------------------------------
 #p wB97XD/Def2SVP td=(nstates=5)
 --------------------------------

 --------------------------------
 TDDFT excited states in gaussian
 --------------------------------
 Symbolic Z-matrix:
 Charge =  0 Multiplicity = 1

                         Standard orientation:
 ---------------------------------------------------------------------
 Center     Atomic      Atomic             Coordinates (Angstroms)
 Number     Number       Type             X           Y           Z
 ---------------------------------------------------------------------
      1         12           0       20.214783    0.286664    0.491108
      2          6           0       17.834183   -1.465561   -1.379215
      3          6           0       21.163726    1.913169   -2.196592
      4          6           0       22.989224    1.390982    2.190153
      5          6           0       19.544285   -1.817891    3.245522
      6          7           0       19.480739    0.266832   -1.484270
      7          6           0       18.465371   -0.454721   -2.072583
      8          6           0       18.166165    0.036727   -3.482960
      9          6           0       19.401488    0.951266   -3.763542
     10          6           0       19.986175    1.140986   -2.407251
     11          6           0       20.390653    0.564287   -4.841650
     12          6           0       16.765107    0.703667   -3.663145
     13          6           0       16.445403    1.176132   -5.085585
     14          1           0       15.123701    0.696224   -5.667212
     15          7           0       21.965668    1.499498    0.006494
     16          6           0       22.068314    2.194603   -1.145466
     17          6           0       23.206784    3.067683   -1.070794
     18          6           0       23.816905    2.842174    0.175168
     19          6           0       22.919428    1.861101    0.843667
     20          6           0       23.645819    3.980050   -2.196585
     21          6           0       25.014087    3.494018    0.785755
     22          8           0       25.591958    3.143322    1.849209
     23          6           0       25.624519    4.731235    0.138730
     24          7           0       21.126556   -0.170090    2.392317
     25          6           0       22.292375    0.371745    2.815313
     26          6           0       22.544253   -0.025891    4.368300
     27          6           0       21.167021   -0.663052    4.767355
     28          6           0       20.516869   -0.850744    3.434221
     29          6           0       23.786132   -0.996640    4.456135
     30          6           0       20.284057    0.366846    5.562465
     31          6           0       20.050758    1.752777    4.981497
     32          7           0       18.880928   -1.331952    0.933217
     33          6           0       18.758707   -2.043409    2.095097
     34          6           0       17.753232   -2.980384    1.894160
     35          6           0       17.317149   -2.869500    0.542476
     36          6           0       18.040384   -1.843890   -0.007311
     37          6           0       17.252793   -4.030634    2.821989
     38          6           0       16.434810   -3.383109   -0.529750
     39          8           0       15.639388   -4.313346   -0.595419
     40          6           0       16.678108   -2.402308   -1.803861
     41          6           0       16.837848   -3.196614   -3.050994
     42          8           0       17.413038   -4.323092   -3.122716
     43          8           0       16.127522   -2.586845   -3.990361
     44          6           0       15.786338   -3.433929   -5.117178
     45          1           0       21.445385    2.563827   -3.027261
     46          1           0       23.847059    1.759800    2.757498
     47          1           0       19.276557   -2.359706    4.153974
     48          1           0       18.099963   -0.878533   -4.071500
     49          1           0       19.122562    1.962828   -4.060569
     50          1           0       20.046262   -0.145317   -5.593926
     51          1           0       21.301756    0.192919   -4.371758
     52          1           0       20.799454    1.491882   -5.242827
     53          1           0       16.661200    1.531929   -2.961756
     54          1           0       15.994486   -0.005650   -3.363067
     55          1           0       17.033458    0.633141   -5.825273
     56          1           0       16.571167    2.254885   -5.182771
     57          1           0       23.107138    3.842892   -3.134119
     58          1           0       24.650082    3.807603   -2.582879
     59          1           0       23.580940    5.039580   -1.947113
     60          1           0       26.084410    4.423524   -0.799963
     61          1           0       26.521252    5.064293    0.660774
     62          1           0       24.929786    5.569181    0.070894
     63          1           0       22.802735    0.867775    4.936343
     64          1           0       21.424011   -1.615591    5.230694
     65          1           0       24.379641   -1.027795    3.542250
     66          1           0       23.525997   -2.037568    4.648918
     67          1           0       24.519564   -0.699228    5.204240
     68          1           0       20.867655    0.412532    6.481993
     69          1           0       19.290679    0.005966    5.827334
     70          1           0       20.723876    1.925453    4.141463
     71          1           0       20.062394    2.582946    5.686908
     72          1           0       19.001631    1.706936    4.689276
     73          1           0       16.929501   -3.655186    3.793201
     74          1           0       18.110545   -4.678475    3.000395
     75          1           0       16.460190   -4.635009    2.382037
     76          1           0       15.745096   -1.844231   -1.877843
     77          1           0       14.746141   -3.273353   -5.403310
     78          1           0       15.864215   -4.508687   -4.954819
     79          1           0       16.434838   -3.116900   -5.934556
     80         12           0      -20.076333   -0.600712   -0.447203
     81          6           0      -19.794746    2.908413   -0.635153
     82          6           0      -16.699546   -0.720920   -0.011288
     83          6           0      -20.434315   -3.868825    0.487001
     84          6           0      -23.604045   -0.097817   -0.398658
     85          7           0      -18.427297    0.966980   -0.192567
     86          6           0      -18.477113    2.306891   -0.450652
     87          6           0      -17.128367    3.000794   -0.193228
     88          6           0      -16.197602    1.705036   -0.386125
     89          6           0      -17.168469    0.567787   -0.186932
     90          6           0      -15.471024    1.594901   -1.753415
     91          6           0      -16.966924    3.616296    1.269123
     92          6           0      -15.978914    4.752409    1.484040
     93          1           0      -14.676455    4.567606    2.291488
     94          7           0      -18.762944   -2.196442    0.146302
     95          6           0      -17.408622   -2.032067    0.114479
     96          6           0      -16.750411   -3.253435    0.267891
     97          6           0      -17.807060   -4.232152    0.393532
     98          6           0      -19.090670   -3.475087    0.381372
     99          6           0      -15.238054   -3.440893    0.261254
    100          6           0      -17.531990   -5.711927    0.537304
    101          8           0      -16.343661   -6.124937    0.540726
    102          6           0      -18.655584   -6.806871    0.574122
    103          7           0      -21.772631   -1.735928   -0.042949
    104          6           0      -21.657469   -3.110635    0.298714
    105          6           0      -22.997331   -3.782231    0.180271
    106          6           0      -24.014649   -2.622508    0.246368
    107          6           0      -23.127862   -1.409840   -0.160936
    108          6           0      -23.333153   -4.612407   -1.079261
    109          6           0      -24.601784   -2.403185    1.738767
    110          6           0      -25.777470   -3.256918    2.189487
    111          7           0      -21.413037    1.068992   -0.691888
    112          6           0      -22.798738    1.113689   -0.659382
    113          6           0      -23.270708    2.408831   -0.760472
    114          6           0      -22.103676    3.190242   -0.811910
    115          6           0      -21.001924    2.321070   -0.741495
    116          6           0      -24.713998    2.801380   -0.796694
    117          6           0      -21.634383    4.460051   -1.001051
    118          8           0      -22.229982    5.482468   -1.278037
    119          6           0      -20.138619    4.355727   -0.636045
    120          6           0      -20.017481    5.042101    0.691734
    121          8           0      -20.624025    4.722684    1.666491
    122          8           0      -19.161380    6.140165    0.590798
    123          6           0      -19.144305    6.921878    1.778067
    124          1           0      -15.614493   -0.827440   -0.076460
    125          1           0      -20.605052   -4.943756    0.580476
    126          1           0      -24.687827   -0.039399   -0.517025
    127          1           0      -16.847896    3.678665   -0.998717
    128          1           0      -15.414046    1.776826    0.367676
    129          1           0      -14.475336    1.973257   -1.520302
    130          1           0      -15.914976    2.240544   -2.511050
    131          1           0      -15.390545    0.558933   -2.083058
    132          1           0      -16.624018    2.852073    1.966669
    133          1           0      -17.970975    3.877025    1.604496
    134          1           0      -16.576743    5.530723    1.960522
    135          1           0      -15.705965    5.130263    0.498866
    136          1           0      -14.806308   -4.335182   -0.189378
    137          1           0      -15.069359   -3.337223    1.332866
    138          1           0      -14.770996   -2.666776   -0.347635
    139          1           0      -19.202515   -6.796279   -0.368281
    140          1           0      -19.243680   -6.503165    1.439929
    141          1           0      -18.336913   -7.814048    0.842389
    142          1           0      -23.116482   -4.384485    1.080349
    143          1           0      -24.850274   -2.765282   -0.438891
    144          1           0      -24.112723   -4.194169   -1.715768
    145          1           0      -23.275725   -5.682025   -0.876400
    146          1           0      -22.451000   -4.493153   -1.708095
    147          1           0      -24.878678   -1.351098    1.674450
    148          1           0      -23.817362   -2.526659    2.485690
    149          1           0      -25.531293   -3.729815    3.139823
    150          1           0      -25.968797   -4.027451    1.442128
    151          1           0      -26.663382   -2.648370    2.372792
    152          1           0      -24.824847    3.597215   -0.060745
    153          1           0      -25.376607    1.999103   -0.469690
    154          1           0      -25.024272    3.188366   -1.767451
    155          1           0      -19.569503    4.891882   -1.394701
    156          1           0      -19.882936    7.719287    1.701138
    157          1           0      -18.229176    7.501868    1.903366
    158          1           0      -19.357081    6.331540    2.667683
 ---------------------------------------------------------------------

 SCF Done:  E(RwB97XD) =  -4070.59667868     A.U. after   19 cycles

 Excitation energies and oscillator strengths:

 Excited State   1:      Singlet-A      1.6462 eV  753.16 nm  f=0.3933  <S**2>=0.000
     309 -> 315       -0.19114
     311 -> 313        0.68013
     309 <- 315       -0.11792
 This state for optimization and/or second-order correction.
 Total Energy, E(TD-HF/TD-DFT) =  -4070.53618247
 Copying the excited state density for this state as the 1-particle RhoCI density.

 Excited State   2:      Singlet-A      1.6680 eV  743.30 nm  f=0.3992  <S**2>=0.000
     310 -> 316       -0.17116
     312 -> 314        0.68632
     310 <- 316       -0.11155

 Excited State   3:      Singlet-A      2.0911 eV  592.92 nm  f=0.2101  <S**2>=0.000
     309 -> 313       -0.38833
     310 -> 314        0.52939
     311 -> 315       -0.15738
     312 -> 316        0.18479

 Excited State   4:      Singlet-A      2.0913 eV  592.84 nm  f=0.0816  <S**2>=0.000
     309 -> 313        0.51941
     310 -> 314        0.39571
     311 -> 315        0.21076
     312 -> 316        0.13825

 Excited State   5:      Singlet-A      3.0723 eV  403.56 nm  f=0.0091  <S**2>=0.000
     308 -> 314        0.67870

 The electronic state is 1-A.
 Alpha  occ. eigenvalues --  -46.96654 -46.95730 -19.31860 -19.30636 -19.25848
 Alpha  occ. eigenvalues --  -19.24234 -19.24027 -19.23467 -19.23169 -19.22924
 Alpha  occ. eigenvalues --  -14.47780 -14.47526 -14.47273 -14.46431 -14.44407
 Alpha  occ. eigenvalues --  -14.44373 -14.43820 -14.42600 -10.43563 -10.43077
 Alpha  occ. eigenvalues --  -10.39815 -10.39018 -10.38836 -10.37356 -10.36473
 Alpha  occ. eigenvalues --  -10.36366 -10.36213 -10.35745 -10.35689 -10.35179
 Alpha  occ. eigenvalues --  -10.35017 -10.34993 -10.34889 -10.34755 -10.34748
 Alpha  occ. eigenvalues --  -10.34729 -10.34288 -10.34066 -10.34013 -10.33979
 Alpha  occ. eigenvalues --  -10.33323 -10.33231 -10.33085 -10.32605 -10.32475
 Alpha  occ. eigenvalues --  -10.32393 -10.32374 -10.32368 -10.32367 -10.32364
 Alpha  occ. eigenvalues --  -10.32362 -10.32149 -10.32109 -10.32093 -10.32036
 Alpha  occ. eigenvalues --  -10.31901 -10.31901 -10.31866 -10.31830 -10.31820
 Alpha  occ. eigenvalues --  -10.31809 -10.31809 -10.31711 -10.31650 -10.31529
 Alpha  occ. eigenvalues --  -10.31499 -10.31306 -10.31038 -10.30510 -10.30474
 Alpha  occ. eigenvalues --  -10.30457 -10.30431 -10.30426 -10.30392 -10.30347
 Alpha  occ. eigenvalues --  -10.30228 -10.30227 -10.30055 -10.29965 -10.29788
 Alpha  occ. eigenvalues --  -10.29540 -10.29463 -10.29255 -10.28710 -10.28270
 Alpha  occ. eigenvalues --  -10.28195  -3.22424  -3.21575  -1.96004  -1.95532
 Alpha  occ. eigenvalues --   -1.95382  -1.95170  -1.94667  -1.94555  -1.20292
 Alpha  occ. eigenvalues --   -1.19804  -1.12266  -1.11746  -1.10998  -1.10655
 Alpha  occ. eigenvalues --   -1.09527  -1.08104  -1.07781  -1.07515  -1.06715
 Alpha  occ. eigenvalues --   -1.06394  -1.05980  -1.05332  -1.04473  -1.03906
 Alpha  occ. eigenvalues --   -0.96376  -0.93797  -0.91499  -0.91205  -0.90868
 Alpha  occ. eigenvalues --   -0.90635  -0.90560  -0.90358  -0.89981  -0.89526
 Alpha  occ. eigenvalues --   -0.89068  -0.89030  -0.87866  -0.87598  -0.86724
 Alpha  occ. eigenvalues --   -0.86302  -0.85679  -0.85534  -0.84837  -0.84778
 Alpha  occ. eigenvalues --   -0.83824  -0.83819  -0.83308  -0.82653  -0.82644
 Alpha  occ. eigenvalues --   -0.82302  -0.80889  -0.80021  -0.79507  -0.79310
 Alpha  occ. eigenvalues --   -0.79267  -0.78896  -0.78066  -0.77909  -0.77649
 Alpha  occ. eigenvalues --   -0.77193  -0.75610  -0.74726  -0.74243  -0.73723
 Alpha  occ. eigenvalues --   -0.71892  -0.71479  -0.71097  -0.70419  -0.70394
 Alpha  occ. eigenvalues --   -0.70367  -0.69696  -0.69166  -0.68256  -0.67471
 Alpha  occ. eigenvalues --   -0.67326  -0.67209  -0.66714  -0.66685  -0.66518
 Alpha  occ. eigenvalues --   -0.66240  -0.64811  -0.64709  -0.63085  -0.62507
 Alpha  occ. eigenvalues --   -0.62161  -0.61751  -0.61588  -0.61232  -0.61192
 Alpha  occ. eigenvalues --   -0.61035  -0.60545  -0.60088  -0.59522  -0.59251
 Alpha  occ. eigenvalues --   -0.58497  -0.58231  -0.57966  -0.57731  -0.57697
 Alpha  occ. eigenvalues --   -0.57388  -0.57295  -0.57287  -0.57078  -0.56348
 Alpha  occ. eigenvalues --   -0.55812  -0.55512  -0.55253  -0.55124  -0.55110
 Alpha  occ. eigenvalues --   -0.54911  -0.54738  -0.54528  -0.54477  -0.54218
 Alpha  occ. eigenvalues --   -0.53787  -0.53655  -0.53524  -0.53359  -0.53153
 Alpha  occ. eigenvalues --   -0.52923  -0.52792  -0.52546  -0.52528  -0.52429
 Alpha  occ. eigenvalues --   -0.52070  -0.52045  -0.51783  -0.51667  -0.51539
 Alpha  occ. eigenvalues --   -0.51338  -0.51083  -0.50935  -0.50828  -0.50742
 Alpha  occ. eigenvalues --   -0.50504  -0.50458  -0.50418  -0.50268  -0.50027
 Alpha  occ. eigenvalues --   -0.49873  -0.49280  -0.49227  -0.49157  -0.49143
 Alpha  occ. eigenvalues --   -0.48967  -0.48702  -0.48545  -0.48456  -0.48345
 Alpha  occ. eigenvalues --   -0.48295  -0.48259  -0.47973  -0.47888  -0.47775
 Alpha  occ. eigenvalues --   -0.47723  -0.47371  -0.47237  -0.47091  -0.47006
 Alpha  occ. eigenvalues --   -0.46668  -0.46628  -0.46515  -0.46361  -0.46216
 Alpha  occ. eigenvalues --   -0.45820  -0.45808  -0.45718  -0.45649  -0.45364
 Alpha  occ. eigenvalues --   -0.45288  -0.45171  -0.45158  -0.44899  -0.44837
 Alpha  occ. eigenvalues --   -0.44576  -0.44557  -0.44442  -0.44325  -0.44156
 Alpha  occ. eigenvalues --   -0.44005  -0.43821  -0.43452  -0.43385  -0.43293
 Alpha  occ. eigenvalues --   -0.43175  -0.43155  -0.42917  -0.42780  -0.42395
 Alpha  occ. eigenvalues --   -0.42394  -0.42204  -0.41529  -0.41361  -0.41144
 Alpha  occ. eigenvalues --   -0.40621  -0.40442  -0.39859  -0.39825  -0.39581
 Alpha  occ. eigenvalues --   -0.39382  -0.39137  -0.38902  -0.38877  -0.38635
 Alpha  occ. eigenvalues --   -0.38579  -0.38346  -0.37496  -0.37062  -0.36134
 Alpha  occ. eigenvalues --   -0.35959  -0.35673  -0.35053  -0.34172  -0.33657
 Alpha  occ. eigenvalues --   -0.33192  -0.32974  -0.32464  -0.32160  -0.32085
 Alpha  occ. eigenvalues --   -0.31980  -0.31637  -0.30640  -0.26237  -0.25999
 Alpha  occ. eigenvalues --   -0.23839  -0.23603
 Alpha virt. eigenvalues --   -0.07955  -0.07731  -0.00583   0.00634   0.01973
 Alpha virt. eigenvalues --    0.02005   0.04523   0.04562   0.04696   0.04932
 Alpha virt. eigenvalues --    0.06610   0.06750   0.07134   0.07437   0.07989

 Mulliken charges:
               1
     1  Mg   0.940816
     2  C    0.025406
     3  C   -0.076049
     4  C   -0.054406
     5  C   -0.071329
     6  N   -0.396476
     7  C   -0.020145
     8  C   -0.029475
     9  C   -0.089365
    10  C    0.104708
    11  C    0.044361
    12  C    0.022427
    13  C   -0.128868
    14  H    0.030685
    15  N   -0.379579
    16  C    0.094866
    17  C   -0.112260
    18  C   -0.048705
    19  C    0.101494
    20  C    0.053367
    21  C    0.041265
    22  O   -0.259338
    23  C   -0.009158
    24  N   -0.351649
    25  C    0.069272
    26  C   -0.145215
    27  C   -0.029914
    28  C    0.038954
    29  C    0.014262
    30  C   -0.014306
    31  C   -0.051416
    32  N   -0.418351
    33  C    0.151771
    34  C   -0.204272
    35  C   -0.041216
    36  C    0.088516
    37  C    0.077108
    38  C    0.161946
    39  O   -0.201853
    40  C   -0.129118
    41  C    0.263355
    42  O   -0.280563
    43  O   -0.330273
    44  C    0.127165
    45  H   -0.027692
    46  H    0.024853
    47  H   -0.001097
    48  H    0.031511
    49  H    0.031528
    50  H    0.056317
    51  H    0.033594
    52  H    0.025672
    53  H    0.024422
    54  H    0.044948
    55  H    0.046523
    56  H    0.062172
    57  H    0.028531
    58  H    0.048646
    59  H    0.055038
    60  H    0.043783
    61  H    0.044672
    62  H    0.064213
    63  H    0.043773
    64  H    0.030768
    65  H    0.043541
    66  H    0.032462
    67  H    0.040119
    68  H    0.029599
    69  H    0.030960
    70  H    0.055278
    71  H    0.043823
    72  H    0.033819
    73  H    0.035253
    74  H    0.042875
    75  H    0.057978
    76  H    0.082016
    77  H    0.053488
    78  H    0.078596
    79  H    0.049574
    80  Mg   0.948269
    81  C    0.000483
    82  C   -0.064818
    83  C   -0.087349
    84  C   -0.085800
    85  N   -0.297970
    86  C   -0.037930
    87  C   -0.036722
    88  C   -0.151757
    89  C    0.082339
    90  C    0.029889
    91  C   -0.001037
    92  C   -0.097730
    93  H    0.043759
    94  N   -0.425954
    95  C    0.122696
    96  C   -0.157832
    97  C   -0.085215
    98  C    0.169049
    99  C    0.086525
   100  C    0.032103
   101  O   -0.271646
   102  C   -0.011425
   103  N   -0.428158
   104  C    0.087219
   105  C   -0.092117
   106  C   -0.113359
   107  C    0.082461
   108  C    0.055275
   109  C   -0.033197
   110  C   -0.022714
   111  N   -0.388472
   112  C    0.120835
   113  C   -0.174854
   114  C    0.038949
   115  C    0.121334
   116  C    0.098342
   117  C    0.025949
   118  O   -0.206401
   119  C   -0.074412
   120  C    0.254039
   121  O   -0.209731
   122  O   -0.358109
   123  C    0.118637
   124  H   -0.004299
   125  H   -0.015893
   126  H    0.009931
   127  H    0.028172
   128  H    0.041466
   129  H    0.039135
   130  H    0.042932
   131  H    0.043415
   132  H    0.044068
   133  H    0.047713
   134  H    0.049680
   135  H    0.043050
   136  H    0.069615
   137  H    0.065475
   138  H    0.029127
   139  H    0.067704
   140  H    0.050348
   141  H    0.051501
   142  H    0.031792
   143  H    0.027922
   144  H    0.049141
   145  H    0.044417
   146  H    0.015822
   147  H    0.024895
   148  H    0.036999
   149  H    0.036041
   150  H    0.032855
   151  H    0.043082
   152  H    0.055712
   153  H    0.023787
   154  H    0.063685
   155  H    0.047869
   156  H    0.048912
   157  H    0.048416
   158  H    0.062070
 Sum of Mulliken charges =  -0.00000

 Dipole moment (field-independent basis, Debye):
    X=              0.0417    Y=              4.9270    Z=             -2.9282  Tot=              5.7317
 Quadrupole moment (field-independent basis, Debye-Ang):
   XX=           -465.2728   YY=           -546.3755   ZZ=           -472.4701
   XY=            189.7175   XZ=            -38.3274   YZ=             -6.0794

 Normal termination of Gaussian 16 at Sun Sep 19 01:41:00 2021.
