 Gaussian 16, Revision A.03,
 Gaussian 16:  ES64L-G16RevA.03 25-Dec-2016

 --------------------------------
 #p wB97XD/Def2SVP td=(nstates=5)
 --------------------------------

 --------------------------------
 TDDFT excited states in gaussian
 --------------------------------
 Symbolic Z-matrix:
 Charge =  0 Multiplicity = 1

                         Standard orientation:
 ---------------------------------------------------------------------
 Center     Atomic      Atomic             Coordinates (Angstroms)
 Number     Number       Type             X           Y           Z
 ---------------------------------------------------------------------
      1         12           0       16.114723    0.553834   -0.448031
      2          6           0       15.924149   -2.512913    1.115526
      3          6           0       13.254941    1.488948    1.494932
      4          6           0       15.963917    3.373526   -2.085028
      5          6           0       18.656103   -0.594078   -2.494708
      6          7           0       14.613121   -0.540805    1.005047
      7          6           0       14.917000   -1.673750    1.615777
      8          6           0       14.106838   -1.830967    2.933546
      9          6           0       12.936171   -0.826675    2.647393
     10          6           0       13.593156    0.140551    1.649664
     11          6           0       11.671189   -1.537044    2.047036
     12          6           0       15.053702   -1.392938    4.073015
     13          6           0       14.540462   -1.593169    5.505467
     14          1           0       13.089136   -1.953328    5.751931
     15          7           0       14.930296    2.256830   -0.310703
     16          6           0       13.825075    2.441617    0.589454
     17          6           0       13.440820    3.841271    0.467918
     18          6           0       14.309807    4.427583   -0.504629
     19          6           0       15.113489    3.338297   -1.057421
     20          6           0       12.314115    4.540345    1.316455
     21          6           0       14.410418    5.940739   -0.889058
     22          8           0       15.113088    6.241962   -1.814661
     23          6           0       13.620705    6.968364   -0.145354
     24          7           0       17.238687    1.326721   -2.021620
     25          6           0       16.999227    2.547043   -2.552398
     26          6           0       17.885480    2.866171   -3.755812
     27          6           0       18.833433    1.644884   -3.785542
     28          6           0       18.192711    0.713405   -2.677910
     29          6           0       17.130269    3.092538   -5.116830
     30          6           0       20.313089    1.912781   -3.679676
     31          6           0       20.882113    2.872687   -2.607126
     32          7           0       17.129090   -1.168952   -0.722125
     33          6           0       18.142069   -1.510036   -1.571965
     34          6           0       18.575797   -2.841705   -1.205376
     35          6           0       17.765159   -3.313187   -0.116113
     36          6           0       16.880834   -2.224867    0.118481
     37          6           0       19.686881   -3.577764   -1.886801
     38          6           0       17.452647   -4.400077    0.749744
     39          8           0       17.916201   -5.555323    0.867439
     40          6           0       16.028736   -3.957871    1.395513
     41          6           0       16.040578   -4.446046    2.845043
     42          8           0       16.872665   -4.213808    3.636222
     43          8           0       14.938787   -5.231199    3.032689
     44          6           0       14.530022   -5.515653    4.392848
     45          1           0       12.344558    1.742816    2.041099
     46          1           0       15.925946    4.276440   -2.698047
     47          1           0       19.442461   -1.022571   -3.118397
     48          1           0       13.683076   -2.829342    3.041057
     49          1           0       12.763647   -0.358680    3.616877
     50          1           0       10.905614   -1.622318    2.817236
     51          1           0       11.982442   -2.514811    1.678845
     52          1           0       11.194020   -0.972124    1.246188
     53          1           0       15.197238   -0.316971    3.977500
     54          1           0       16.061946   -1.784470    3.941453
     55          1           0       14.925229   -0.852122    6.206470
     56          1           0       15.124045   -2.434128    5.880530
     57          1           0       11.605589    5.087990    0.694317
     58          1           0       12.839054    5.172364    2.032579
     59          1           0       11.806463    3.795042    1.929945
     60          1           0       14.248096    7.853006   -0.256640
     61          1           0       13.589559    6.779940    0.927176
     62          1           0       12.545445    7.059768   -0.298604
     63          1           0       18.412715    3.779311   -3.480495
     64          1           0       18.698224    1.022833   -4.670313
     65          1           0       17.787011    2.684546   -5.884700
     66          1           0       17.075656    4.180016   -5.171074
     67          1           0       16.116321    2.696604   -5.060721
     68          1           0       20.457828    2.513257   -4.577147
     69          1           0       20.983408    1.052639   -3.672397
     70          1           0       21.408987    3.765441   -2.941402
     71          1           0       21.682757    2.401323   -2.037186
     72          1           0       20.068228    3.219504   -1.970241
     73          1           0       19.715815   -4.560684   -1.417419
     74          1           0       20.641281   -3.095991   -1.670189
     75          1           0       19.641777   -3.586917   -2.975432
     76          1           0       15.278588   -4.431496    0.761882
     77          1           0       14.529151   -6.587558    4.194550
     78          1           0       13.610915   -5.010748    4.690955
     79          1           0       15.290611   -5.306280    5.145474
     80         12           0      -16.094309    0.447982    0.410375
     81          6           0      -16.025757   -2.525146   -1.358620
     82          6           0      -12.635793    0.471456    0.453608
     83          6           0      -16.227304    3.661257    1.436052
     84          6           0      -19.590935    0.400632   -0.046802
     85          7           0      -14.506199   -0.747121   -0.623026
     86          6           0      -14.753757   -1.972495   -1.094187
     87          6           0      -13.433715   -2.622456   -1.612576
     88          6           0      -12.341656   -1.793825   -0.784794
     89          6           0      -13.214007   -0.620206   -0.195496
     90          6           0      -11.559066   -2.668139    0.224480
     91          6           0      -13.268891   -2.372330   -3.094360
     92          6           0      -12.731199   -3.544067   -3.900913
     93          1           0      -11.730604   -3.364061   -5.104048
     94          7           0      -14.573059    1.804688    1.045907
     95          6           0      -13.239037    1.687576    0.930013
     96          6           0      -12.654175    2.860744    1.493728
     97          6           0      -13.678051    3.741999    1.956277
     98          6           0      -14.918116    3.085044    1.524889
     99          6           0      -11.191898    2.967934    1.723013
    100          6           0      -13.423898    5.095767    2.517646
    101          8           0      -12.280475    5.477641    2.703869
    102          6           0      -14.565734    6.012666    2.939651
    103          7           0      -17.778831    1.847017    0.744418
    104          6           0      -17.492543    3.129526    1.104234
    105          6           0      -18.706440    3.993117    0.989045
    106          6           0      -19.788319    2.918656    0.498703
    107          6           0      -19.074531    1.591018    0.438160
    108          6           0      -19.069893    4.770740    2.267835
    109          6           0      -20.552893    3.266309   -0.854627
    110          6           0      -22.098200    3.234523   -0.914911
    111          7           0      -17.520776   -0.769067   -0.464108
    112          6           0      -18.877797   -0.697788   -0.504902
    113          6           0      -19.412129   -1.935524   -0.865500
    114          6           0      -18.337911   -2.746175   -1.205091
    115          6           0      -17.220532   -1.972069   -1.016412
    116          6           0      -20.934384   -2.238071   -0.987941
    117          6           0      -17.941123   -4.001658   -1.643022
    118          8           0      -18.648182   -4.923702   -2.034245
    119          6           0      -16.348762   -3.981636   -1.838167
    120          6           0      -15.694613   -4.879367   -0.956080
    121          8           0      -15.455082   -4.795264    0.250837
    122          8           0      -15.311313   -5.968108   -1.733245
    123          6           0      -14.608052   -7.093571   -1.141968
    124          1           0      -11.556865    0.409694    0.608831
    125          1           0      -16.427702    4.686593    1.755280
    126          1           0      -20.681753    0.452932   -0.053953
    127          1           0      -13.485027   -3.691061   -1.405735
    128          1           0      -11.637726   -1.241989   -1.406894
    129          1           0      -11.957792   -3.681053    0.276802
    130          1           0      -11.594165   -2.204505    1.210852
    131          1           0      -10.512961   -2.662271   -0.080808
    132          1           0      -12.689177   -1.500541   -3.398380
    133          1           0      -14.256423   -2.049559   -3.424010
    134          1           0      -13.598937   -4.122165   -4.218159
    135          1           0      -12.236917   -4.123724   -3.121325
    136          1           0      -11.095725    2.698755    2.774700
    137          1           0      -10.826892    3.974428    1.517564
    138          1           0      -10.608723    2.287175    1.102777
    139          1           0      -14.933731    6.465458    2.018843
    140          1           0      -14.096142    6.834645    3.479409
    141          1           0      -15.325192    5.457112    3.489668
    142          1           0      -18.386168    4.659594    0.188862
    143          1           0      -20.634071    2.860565    1.183876
    144          1           0      -18.797366    5.808288    2.071829
    145          1           0      -18.572700    4.382582    3.157386
    146          1           0      -20.150267    4.747951    2.408489
    147          1           0      -20.218705    2.568688   -1.622441
    148          1           0      -20.353153    4.278923   -1.205770
    149          1           0      -22.243754    2.194578   -1.206907
    150          1           0      -22.459426    3.877195   -1.716730
    151          1           0      -22.683953    3.282345    0.002984
    152          1           0      -21.309271   -1.755733   -1.889762
    153          1           0      -21.569518   -1.832177   -0.200329
    154          1           0      -21.112592   -3.310545   -1.071065
    155          1           0      -16.179388   -4.183739   -2.895904
    156          1           0      -14.895921   -7.979525   -1.707096
    157          1           0      -14.721896   -7.197730   -0.062617
    158          1           0      -13.548938   -6.972738   -1.369952
 ---------------------------------------------------------------------

 SCF Done:  E(RwB97XD) =  -4070.58330467     A.U. after   19 cycles

 Excitation energies and oscillator strengths:

 Excited State   1:      Singlet-A      1.6374 eV  757.18 nm  f=0.3914  <S**2>=0.000
     309 -> 315       -0.19080
     311 -> 313        0.68211
     309 <- 315       -0.11958
 This state for optimization and/or second-order correction.
 Total Energy, E(TD-HF/TD-DFT) =  -4070.52312953
 Copying the excited state density for this state as the 1-particle RhoCI density.

 Excited State   2:      Singlet-A      1.6762 eV  739.66 nm  f=0.3814  <S**2>=0.000
     310 -> 316       -0.20167
     312 -> 314        0.67828
     310 <- 316       -0.12032

 Excited State   3:      Singlet-A      2.1629 eV  573.24 nm  f=0.0902  <S**2>=0.000
     310 -> 314        0.63311
     312 -> 316        0.30167

 Excited State   4:      Singlet-A      2.1723 eV  570.76 nm  f=0.0966  <S**2>=0.000
     309 -> 313        0.63444
     311 -> 315        0.29659

 Excited State   5:      Singlet-A      3.2607 eV  380.23 nm  f=0.0049  <S**2>=0.000
     307 -> 313        0.67169
     311 -> 315       -0.12901

 The electronic state is 1-A.
 Alpha  occ. eigenvalues --  -46.96074 -46.94603 -19.29924 -19.29630 -19.25189
 Alpha  occ. eigenvalues --  -19.25178 -19.24366 -19.24126 -19.24057 -19.23419
 Alpha  occ. eigenvalues --  -14.46972 -14.46659 -14.46317 -14.46278 -14.44469
 Alpha  occ. eigenvalues --  -14.43897 -14.43893 -14.43860 -10.43496 -10.42773
 Alpha  occ. eigenvalues --  -10.39299 -10.39189 -10.39138 -10.38627 -10.35615
 Alpha  occ. eigenvalues --  -10.35487 -10.35434 -10.35353 -10.35204 -10.35196
 Alpha  occ. eigenvalues --  -10.34936 -10.34737 -10.34623 -10.34576 -10.34435
 Alpha  occ. eigenvalues --  -10.34303 -10.33851 -10.33674 -10.33480 -10.33370
 Alpha  occ. eigenvalues --  -10.32952 -10.32847 -10.32805 -10.32790 -10.32737
 Alpha  occ. eigenvalues --  -10.32568 -10.32536 -10.32523 -10.32435 -10.32392
 Alpha  occ. eigenvalues --  -10.32289 -10.32276 -10.32147 -10.31963 -10.31955
 Alpha  occ. eigenvalues --  -10.31937 -10.31839 -10.31797 -10.31764 -10.31722
 Alpha  occ. eigenvalues --  -10.31696 -10.31615 -10.31532 -10.31481 -10.31120
 Alpha  occ. eigenvalues --  -10.30780 -10.30773 -10.30754 -10.30697 -10.30578
 Alpha  occ. eigenvalues --  -10.30513 -10.30485 -10.30382 -10.30123 -10.30105
 Alpha  occ. eigenvalues --  -10.30041 -10.30031 -10.29958 -10.29844 -10.29764
 Alpha  occ. eigenvalues --  -10.29749 -10.29701 -10.29066 -10.28921 -10.28914
 Alpha  occ. eigenvalues --  -10.28882  -3.21864  -3.20668  -1.95461  -1.94975
 Alpha  occ. eigenvalues --   -1.94821  -1.94260  -1.93811  -1.93628  -1.19783
 Alpha  occ. eigenvalues --   -1.17952  -1.13689  -1.12329  -1.12246  -1.12015
 Alpha  occ. eigenvalues --   -1.10286  -1.09756  -1.07609  -1.07215  -1.06135
 Alpha  occ. eigenvalues --   -1.06079  -1.05918  -1.05105  -1.04714  -1.04085
 Alpha  occ. eigenvalues --   -0.95949  -0.95036  -0.91454  -0.91205  -0.91053
 Alpha  occ. eigenvalues --   -0.90587  -0.90384  -0.90308  -0.89881  -0.89240
 Alpha  occ. eigenvalues --   -0.88896  -0.88392  -0.88223  -0.87587  -0.87417
 Alpha  occ. eigenvalues --   -0.86579  -0.85979  -0.85605  -0.84995  -0.84312
 Alpha  occ. eigenvalues --   -0.84211  -0.83645  -0.83501  -0.83370  -0.82795
 Alpha  occ. eigenvalues --   -0.82241  -0.80180  -0.79932  -0.79601  -0.79259
 Alpha  occ. eigenvalues --   -0.78727  -0.78552  -0.78471  -0.77819  -0.77433
 Alpha  occ. eigenvalues --   -0.77175  -0.75549  -0.74673  -0.74433  -0.73976
 Alpha  occ. eigenvalues --   -0.72167  -0.71885  -0.71246  -0.70858  -0.70143
 Alpha  occ. eigenvalues --   -0.70077  -0.69403  -0.68176  -0.68141  -0.67893
 Alpha  occ. eigenvalues --   -0.67538  -0.67149  -0.66913  -0.66855  -0.66275
 Alpha  occ. eigenvalues --   -0.66119  -0.64754  -0.64345  -0.62532  -0.62471
 Alpha  occ. eigenvalues --   -0.61971  -0.61621  -0.61146  -0.61138  -0.61109
 Alpha  occ. eigenvalues --   -0.60817  -0.60216  -0.60149  -0.60054  -0.59872
 Alpha  occ. eigenvalues --   -0.58385  -0.58151  -0.58115  -0.58097  -0.57628
 Alpha  occ. eigenvalues --   -0.57512  -0.57275  -0.56834  -0.56361  -0.56189
 Alpha  occ. eigenvalues --   -0.55619  -0.55560  -0.55457  -0.55381  -0.54889
 Alpha  occ. eigenvalues --   -0.54638  -0.54305  -0.54303  -0.54194  -0.54098
 Alpha  occ. eigenvalues --   -0.54051  -0.53996  -0.53856  -0.53705  -0.53491
 Alpha  occ. eigenvalues --   -0.53264  -0.52708  -0.52639  -0.52345  -0.52131
 Alpha  occ. eigenvalues --   -0.52056  -0.51973  -0.51898  -0.51611  -0.51568
 Alpha  occ. eigenvalues --   -0.51486  -0.51469  -0.51244  -0.51204  -0.51025
 Alpha  occ. eigenvalues --   -0.50969  -0.50746  -0.50381  -0.50250  -0.50171
 Alpha  occ. eigenvalues --   -0.50069  -0.49890  -0.49554  -0.49480  -0.48882
 Alpha  occ. eigenvalues --   -0.48814  -0.48753  -0.48697  -0.48580  -0.48540
 Alpha  occ. eigenvalues --   -0.48459  -0.48128  -0.47943  -0.47913  -0.47803
 Alpha  occ. eigenvalues --   -0.47747  -0.47531  -0.47470  -0.47307  -0.47160
 Alpha  occ. eigenvalues --   -0.47137  -0.46936  -0.46710  -0.46611  -0.46535
 Alpha  occ. eigenvalues --   -0.45885  -0.45787  -0.45603  -0.45421  -0.45282
 Alpha  occ. eigenvalues --   -0.45197  -0.45130  -0.44904  -0.44878  -0.44846
 Alpha  occ. eigenvalues --   -0.44621  -0.44260  -0.44188  -0.44055  -0.44046
 Alpha  occ. eigenvalues --   -0.43942  -0.43903  -0.43850  -0.43783  -0.43567
 Alpha  occ. eigenvalues --   -0.43373  -0.43328  -0.42965  -0.42846  -0.42246
 Alpha  occ. eigenvalues --   -0.42109  -0.41678  -0.41487  -0.41318  -0.40343
 Alpha  occ. eigenvalues --   -0.40290  -0.40190  -0.39952  -0.39849  -0.39557
 Alpha  occ. eigenvalues --   -0.39454  -0.39289  -0.39162  -0.38376  -0.38324
 Alpha  occ. eigenvalues --   -0.37749  -0.37632  -0.37173  -0.36877  -0.36544
 Alpha  occ. eigenvalues --   -0.35938  -0.35811  -0.35566  -0.34082  -0.33661
 Alpha  occ. eigenvalues --   -0.33316  -0.33014  -0.32724  -0.32674  -0.32498
 Alpha  occ. eigenvalues --   -0.32016  -0.31695  -0.31502  -0.26529  -0.25725
 Alpha  occ. eigenvalues --   -0.23396  -0.22897
 Alpha virt. eigenvalues --   -0.07598  -0.06783  -0.00423   0.00031   0.01847
 Alpha virt. eigenvalues --    0.02244   0.04397   0.04723   0.05630   0.06111
 Alpha virt. eigenvalues --    0.06179   0.07139   0.08006   0.08083   0.08228

 Mulliken charges:
               1
     1  Mg   0.965826
     2  C   -0.025584
     3  C   -0.077029
     4  C   -0.087925
     5  C   -0.117693
     6  N   -0.288233
     7  C   -0.036050
     8  C   -0.084170
     9  C   -0.089550
    10  C    0.019547
    11  C    0.040461
    12  C    0.000355
    13  C   -0.089346
    14  H    0.044138
    15  N   -0.478832
    16  C    0.175871
    17  C   -0.189349
    18  C   -0.081102
    19  C    0.188822
    20  C    0.062368
    21  C    0.064859
    22  O   -0.213705
    23  C   -0.007179
    24  N   -0.341961
    25  C    0.014424
    26  C   -0.099269
    27  C   -0.054342
    28  C    0.091184
    29  C    0.035501
    30  C   -0.009997
    31  C   -0.072560
    32  N   -0.486638
    33  C    0.144520
    34  C   -0.184394
    35  C   -0.031104
    36  C    0.180508
    37  C    0.067899
    38  C    0.153397
    39  O   -0.233779
    40  C   -0.147571
    41  C    0.242771
    42  O   -0.185815
    43  O   -0.368591
    44  C    0.110544
    45  H    0.003806
    46  H    0.009609
    47  H   -0.005517
    48  H    0.019521
    49  H    0.022962
    50  H    0.039854
    51  H    0.043846
    52  H    0.040357
    53  H    0.025778
    54  H    0.065904
    55  H    0.042749
    56  H    0.038104
    57  H    0.059114
    58  H    0.057804
    59  H    0.030254
    60  H    0.058163
    61  H    0.020556
    62  H    0.069270
    63  H    0.047945
    64  H    0.031219
    65  H    0.046302
    66  H    0.047910
    67  H    0.054222
    68  H    0.029210
    69  H    0.040683
    70  H    0.032771
    71  H    0.032884
    72  H    0.039589
    73  H    0.062252
    74  H    0.042940
    75  H    0.047385
    76  H    0.085701
    77  H    0.070077
    78  H    0.062619
    79  H    0.062930
    80  Mg   0.938778
    81  C   -0.063576
    82  C   -0.088106
    83  C   -0.039666
    84  C   -0.124224
    85  N   -0.332148
    86  C    0.013177
    87  C   -0.124659
    88  C   -0.102998
    89  C    0.083779
    90  C    0.035837
    91  C    0.029613
    92  C   -0.116578
    93  H    0.044742
    94  N   -0.455844
    95  C    0.158288
    96  C   -0.182208
    97  C   -0.057344
    98  C    0.198304
    99  C    0.076201
   100  C    0.004753
   101  O   -0.236150
   102  C    0.002857
   103  N   -0.353916
   104  C   -0.009633
   105  C   -0.086524
   106  C   -0.051363
   107  C    0.062417
   108  C    0.022925
   109  C   -0.053258
   110  C   -0.067811
   111  N   -0.433907
   112  C    0.194377
   113  C   -0.187335
   114  C    0.053580
   115  C    0.162270
   116  C    0.075164
   117  C    0.056279
   118  O   -0.206918
   119  C   -0.077342
   120  C    0.295296
   121  O   -0.257326
   122  O   -0.388856
   123  C    0.139777
   124  H   -0.000184
   125  H   -0.030092
   126  H   -0.003542
   127  H    0.037126
   128  H    0.045668
   129  H    0.048978
   130  H    0.033965
   131  H    0.035955
   132  H    0.037175
   133  H    0.027195
   134  H    0.055843
   135  H    0.044449
   136  H    0.060614
   137  H    0.065512
   138  H    0.024322
   139  H    0.059387
   140  H    0.051952
   141  H    0.063675
   142  H    0.053047
   143  H    0.024137
   144  H    0.042375
   145  H    0.053144
   146  H    0.040472
   147  H    0.043631
   148  H    0.030936
   149  H    0.022344
   150  H    0.048036
   151  H    0.040174
   152  H    0.047541
   153  H    0.037894
   154  H    0.062298
   155  H    0.083057
   156  H    0.056919
   157  H    0.068856
   158  H    0.036417
 Sum of Mulliken charges =  -0.00000

 Dipole moment (field-independent basis, Debye):
    X=             -4.2839    Y=              5.2039    Z=              0.3032  Tot=              6.7472
 Quadrupole moment (field-independent basis, Debye-Ang):
   XX=           -516.5969   YY=           -542.4429   ZZ=           -500.2815
   XY=             -5.3813   XZ=            -26.4823   YZ=              3.5677

 Normal termination of Gaussian 16 at Sat Sep 18 23:21:13 2021.
