 Gaussian 16, Revision A.03,
 Gaussian 16:  ES64L-G16RevA.03 25-Dec-2016

 --------------------------------
 #p wB97XD/Def2SVP td=(nstates=5)
 --------------------------------

 --------------------------------
 TDDFT excited states in gaussian
 --------------------------------
 Symbolic Z-matrix:
 Charge =  0 Multiplicity = 1

                         Standard orientation:
 ---------------------------------------------------------------------
 Center     Atomic      Atomic             Coordinates (Angstroms)
 Number     Number       Type             X           Y           Z
 ---------------------------------------------------------------------
      1         12           0       17.673284   -0.096900    0.276394
      2          6           0       15.000379   -0.976887   -1.639643
      3          6           0       18.532765    2.164927   -2.208495
      4          6           0       20.077440    1.031983    2.330233
      5          6           0       16.348934   -1.910740    2.985979
      6          7           0       16.691832    0.697875   -1.593648
      7          6           0       15.618078    0.113081   -2.161490
      8          6           0       15.174757    0.811756   -3.394656
      9          6           0       16.582422    1.596516   -3.762259
     10          6           0       17.358201    1.497186   -2.431911
     11          6           0       17.309388    0.987585   -4.997458
     12          6           0       14.043629    1.771873   -3.062264
     13          6           0       14.264323    2.876559   -1.927936
     14          1           0       13.720202    4.288018   -2.109912
     15          7           0       19.100539    1.380719    0.100094
     16          6           0       19.393921    2.126860   -1.069298
     17          6           0       20.617498    2.816007   -0.828290
     18          6           0       21.072827    2.570553    0.461196
     19          6           0       20.127237    1.602704    1.042321
     20          6           0       21.183007    3.672777   -1.942711
     21          6           0       22.245909    3.213624    1.161600
     22          8           0       22.885539    4.058208    0.486495
     23          6           0       22.556455    3.107702    2.547738
     24          7           0       18.000844   -0.244845    2.433723
     25          6           0       19.121689    0.272911    3.013329
     26          6           0       19.186018   -0.074865    4.519853
     27          6           0       17.959056   -1.031016    4.699652
     28          6           0       17.344390   -1.012639    3.310318
     29          6           0       20.508936   -0.675051    4.945551
     30          6           0       16.967918   -0.500102    5.867262
     31          6           0       16.429463   -1.606889    6.781083
     32          7           0       15.984522   -1.274614    0.689409
     33          6           0       15.671969   -2.098746    1.722732
     34          6           0       14.601870   -2.946567    1.272218
     35          6           0       14.279139   -2.607899   -0.087430
     36          6           0       15.142268   -1.562528   -0.371435
     37          6           0       13.775586   -3.827004    2.145918
     38          6           0       13.426854   -2.797795   -1.216851
     39          8           0       12.536235   -3.654162   -1.286076
     40          6           0       13.883111   -1.789089   -2.254740
     41          6           0       14.287609   -2.521814   -3.479195
     42          8           0       13.485734   -3.254985   -4.023646
     43          8           0       15.535236   -2.221759   -3.934136
     44          6           0       15.937102   -2.921755   -5.155785
     45          1           0       18.953711    2.661943   -3.084852
     46          1           0       20.991469    1.226630    2.894837
     47          1           0       15.980059   -2.634350    3.716330
     48          1           0       14.808822    0.208236   -4.225353
     49          1           0       16.380823    2.602246   -4.133287
     50          1           0       17.434475    1.747751   -5.767696
     51          1           0       16.653996    0.213880   -5.398269
     52          1           0       18.271726    0.523719   -4.777178
     53          1           0       13.157260    1.165391   -2.875040
     54          1           0       13.790595    2.172278   -4.043899
     55          1           0       15.301820    3.087093   -1.668031
     56          1           0       13.699696    2.451613   -1.098557
     57          1           0       20.681349    4.636078   -1.848670
     58          1           0       20.901531    3.236264   -2.900192
     59          1           0       22.264316    3.813365   -1.945246
     60          1           0       23.053883    4.003349    2.921208
     61          1           0       23.067340    2.180768    2.811469
     62          1           0       21.590882    3.155751    3.049357
     63          1           0       19.003633    0.886691    5.000964
     64          1           0       18.314092   -2.050176    4.851283
     65          1           0       21.265702   -0.682220    4.161559
     66          1           0       20.555306   -1.631408    5.465748
     67          1           0       20.918364    0.100017    5.594082
     68          1           0       16.092315    0.031802    5.494962
     69          1           0       17.436244    0.266513    6.484318
     70          1           0       16.926034   -1.517171    7.746864
     71          1           0       16.747415   -2.567327    6.374859
     72          1           0       15.349372   -1.556851    6.919794
     73          1           0       14.252508   -4.712675    2.563989
     74          1           0       12.919290   -4.111201    1.533128
     75          1           0       13.409020   -3.302068    3.028125
     76          1           0       13.013231   -1.170421   -2.477252
     77          1           0       15.203739   -2.688863   -5.928355
     78          1           0       16.072292   -3.994500   -5.016868
     79          1           0       16.954836   -2.650856   -5.436349
     80         12           0      -17.774532    0.557046    0.324554
     81          6           0      -14.710658   -0.955969   -0.421371
     82          6           0      -19.014487   -2.647000    0.808902
     83          6           0      -20.717167    1.912555    0.597981
     84          6           0      -16.309434    3.686271   -0.453336
     85          7           0      -17.040061   -1.626213   -0.190024
     86          6           0      -15.746636   -1.943078   -0.308640
     87          6           0      -15.638850   -3.431096   -0.279689
     88          6           0      -17.099895   -3.941793   -0.325554
     89          6           0      -17.793257   -2.682601    0.155580
     90          6           0      -17.675805   -4.487520   -1.633404
     91          6           0      -14.886333   -3.937034    0.991769
     92          6           0      -13.727473   -4.972296    0.824859
     93          1           0      -13.773676   -5.980815   -0.365164
     94          7           0      -19.627981   -0.261019    0.813689
     95          6           0      -19.848925   -1.589768    1.150987
     96          6           0      -21.214073   -1.683976    1.554813
     97          6           0      -21.800984   -0.366770    1.381467
     98          6           0      -20.733826    0.512623    0.927895
     99          6           0      -21.922359   -2.996639    1.955244
    100          6           0      -23.276578    0.096533    1.550273
    101          8           0      -23.659867    1.207527    1.362664
    102          6           0      -24.248747   -0.953692    2.050573
    103          7           0      -18.376286    2.516734    0.109527
    104          6           0      -19.690227    2.817275    0.212565
    105          6           0      -20.010138    4.323993    0.009998
    106          6           0      -18.534099    4.908437   -0.058241
    107          6           0      -17.658630    3.662070   -0.112683
    108          6           0      -20.932668    4.543877   -1.323126
    109          6           0      -18.217080    5.947288    1.062960
    110          6           0      -17.470874    5.459908    2.292018
    111          7           0      -15.879731    1.312642   -0.280624
    112          6           0      -15.426323    2.590946   -0.464789
    113          6           0      -13.961004    2.523563   -0.801866
    114          6           0      -13.660573    1.142708   -0.788033
    115          6           0      -14.863360    0.414098   -0.506181
    116          6           0      -13.065365    3.646974   -1.248603
    117          6           0      -12.601513    0.154427   -0.977121
    118          8           0      -11.420642    0.354661   -1.275488
    119          6           0      -13.215964   -1.186852   -0.587921
    120          6           0      -12.894139   -2.124091   -1.716496
    121          8           0      -13.472797   -2.157836   -2.787022
    122          8           0      -11.770379   -2.730785   -1.371362
    123          6           0      -10.992255   -3.382334   -2.413255
    124          1           0      -19.444524   -3.650204    0.821908
    125          1           0      -21.652914    2.409123    0.861850
    126          1           0      -15.855092    4.653776   -0.678248
    127          1           0      -15.070892   -3.754829   -1.151306
    128          1           0      -17.142535   -4.787757    0.360593
    129          1           0      -16.993351   -4.531145   -2.482387
    130          1           0      -18.543408   -3.900907   -1.936771
    131          1           0      -18.012074   -5.500417   -1.413009
    132          1           0      -15.551734   -4.287286    1.780584
    133          1           0      -14.481391   -2.986560    1.338945
    134          1           0      -13.760154   -5.537952    1.756878
    135          1           0      -12.784488   -4.429683    0.763211
    136          1           0      -22.839339   -3.179616    1.395009
    137          1           0      -22.293132   -2.970836    2.980038
    138          1           0      -21.296909   -3.887476    1.884023
    139          1           0      -23.899113   -1.458877    2.951169
    140          1           0      -24.447916   -1.643811    1.230620
    141          1           0      -25.236771   -0.516659    2.195058
    142          1           0      -20.555012    4.752611    0.850949
    143          1           0      -18.348796    5.495512   -0.957633
    144          1           0      -20.257099    5.004728   -2.043892
    145          1           0      -21.710423    5.296874   -1.193955
    146          1           0      -21.270547    3.617239   -1.788482
    147          1           0      -19.199921    6.218140    1.448913
    148          1           0      -17.741734    6.848246    0.675656
    149          1           0      -17.951700    4.510638    2.531352
    150          1           0      -17.690159    6.257687    3.001253
    151          1           0      -16.414111    5.199617    2.237773
    152          1           0      -13.505211    4.628828   -1.423799
    153          1           0      -12.587811    3.370769   -2.188792
    154          1           0      -12.263038    3.677047   -0.512074
    155          1           0      -12.735154   -1.682297    0.255788
    156          1           0      -11.285106   -3.281695   -3.457855
    157          1           0      -11.133825   -4.439447   -2.186283
    158          1           0       -9.944248   -3.365058   -2.113864
 ---------------------------------------------------------------------

 SCF Done:  E(RwB97XD) =  -4070.60785750     A.U. after   19 cycles

 Excitation energies and oscillator strengths:

 Excited State   1:      Singlet-A      1.6773 eV  739.17 nm  f=0.4649  <S**2>=0.000
     310 -> 316       -0.19097
     312 -> 314        0.67870
     310 <- 316       -0.11809
 This state for optimization and/or second-order correction.
 Total Energy, E(TD-HF/TD-DFT) =  -4070.54621636
 Copying the excited state density for this state as the 1-particle RhoCI density.

 Excited State   2:      Singlet-A      1.6886 eV  734.25 nm  f=0.3254  <S**2>=0.000
     309 -> 315        0.18116
     311 -> 313        0.68014
     309 <- 315        0.11225

 Excited State   3:      Singlet-A      2.1601 eV  573.98 nm  f=0.0982  <S**2>=0.000
     310 -> 314        0.64016
     312 -> 316        0.28502

 Excited State   4:      Singlet-A      2.1633 eV  573.13 nm  f=0.1252  <S**2>=0.000
     309 -> 313        0.64776
     311 -> 315       -0.25630

 Excited State   5:      Singlet-A      3.2087 eV  386.40 nm  f=0.0008  <S**2>=0.000
     304 -> 313       -0.33703
     307 -> 313        0.59921

 The electronic state is 1-A.
 Alpha  occ. eigenvalues --  -46.95468 -46.95079 -19.31588 -19.31440 -19.24575
 Alpha  occ. eigenvalues --  -19.24495 -19.24415 -19.23517 -19.23309 -19.23238
 Alpha  occ. eigenvalues --  -14.46669 -14.46654 -14.46311 -14.46136 -14.44445
 Alpha  occ. eigenvalues --  -14.43901 -14.43247 -14.43175 -10.43293 -10.42977
 Alpha  occ. eigenvalues --  -10.39503 -10.38819 -10.38436 -10.38344 -10.36481
 Alpha  occ. eigenvalues --  -10.35745 -10.35741 -10.35336 -10.35272 -10.35234
 Alpha  occ. eigenvalues --  -10.35090 -10.34736 -10.34705 -10.34501 -10.34478
 Alpha  occ. eigenvalues --  -10.34181 -10.33647 -10.33577 -10.33483 -10.33421
 Alpha  occ. eigenvalues --  -10.33299 -10.33166 -10.33026 -10.32863 -10.32593
 Alpha  occ. eigenvalues --  -10.32508 -10.32457 -10.32438 -10.32417 -10.32392
 Alpha  occ. eigenvalues --  -10.32351 -10.32327 -10.32166 -10.32089 -10.32083
 Alpha  occ. eigenvalues --  -10.31810 -10.31576 -10.31527 -10.31440 -10.31370
 Alpha  occ. eigenvalues --  -10.31265 -10.31183 -10.31134 -10.31062 -10.30989
 Alpha  occ. eigenvalues --  -10.30933 -10.30781 -10.30667 -10.30576 -10.30553
 Alpha  occ. eigenvalues --  -10.30427 -10.30371 -10.30344 -10.30288 -10.30227
 Alpha  occ. eigenvalues --  -10.30213 -10.29897 -10.29890 -10.29760 -10.29521
 Alpha  occ. eigenvalues --  -10.29426 -10.29159 -10.28995 -10.28851 -10.28815
 Alpha  occ. eigenvalues --  -10.28554  -3.21373  -3.20986  -1.94934  -1.94581
 Alpha  occ. eigenvalues --   -1.94513  -1.94324  -1.94143  -1.93915  -1.20499
 Alpha  occ. eigenvalues --   -1.19575  -1.13472  -1.11864  -1.11234  -1.10832
 Alpha  occ. eigenvalues --   -1.10635  -1.10200  -1.06981  -1.06973  -1.06544
 Alpha  occ. eigenvalues --   -1.05732  -1.04742  -1.04626  -1.03807  -1.03599
 Alpha  occ. eigenvalues --   -0.96048  -0.95352  -0.91239  -0.90912  -0.90632
 Alpha  occ. eigenvalues --   -0.90545  -0.90432  -0.89885  -0.89710  -0.88980
 Alpha  occ. eigenvalues --   -0.88342  -0.88182  -0.87782  -0.87382  -0.87019
 Alpha  occ. eigenvalues --   -0.86326  -0.86009  -0.85564  -0.85290  -0.84702
 Alpha  occ. eigenvalues --   -0.84458  -0.83392  -0.83296  -0.82854  -0.82655
 Alpha  occ. eigenvalues --   -0.81913  -0.80570  -0.79972  -0.79825  -0.79253
 Alpha  occ. eigenvalues --   -0.78973  -0.78858  -0.78178  -0.78057  -0.76987
 Alpha  occ. eigenvalues --   -0.76931  -0.74642  -0.74479  -0.74116  -0.73643
 Alpha  occ. eigenvalues --   -0.72077  -0.71416  -0.71076  -0.70837  -0.70790
 Alpha  occ. eigenvalues --   -0.69945  -0.69167  -0.68482  -0.68014  -0.67346
 Alpha  occ. eigenvalues --   -0.67205  -0.67190  -0.66859  -0.66577  -0.66360
 Alpha  occ. eigenvalues --   -0.66285  -0.65804  -0.64754  -0.62223  -0.61784
 Alpha  occ. eigenvalues --   -0.61707  -0.61602  -0.61334  -0.61128  -0.60731
 Alpha  occ. eigenvalues --   -0.60431  -0.60376  -0.60046  -0.60029  -0.59252
 Alpha  occ. eigenvalues --   -0.58783  -0.58745  -0.58578  -0.57951  -0.57774
 Alpha  occ. eigenvalues --   -0.57093  -0.56862  -0.56697  -0.56593  -0.56466
 Alpha  occ. eigenvalues --   -0.56214  -0.55699  -0.55536  -0.55445  -0.55156
 Alpha  occ. eigenvalues --   -0.55025  -0.54775  -0.54459  -0.54400  -0.53851
 Alpha  occ. eigenvalues --   -0.53810  -0.53717  -0.53561  -0.53339  -0.53284
 Alpha  occ. eigenvalues --   -0.53096  -0.53018  -0.52941  -0.52815  -0.52323
 Alpha  occ. eigenvalues --   -0.52078  -0.51577  -0.51573  -0.51432  -0.51268
 Alpha  occ. eigenvalues --   -0.51059  -0.51047  -0.50708  -0.50699  -0.50587
 Alpha  occ. eigenvalues --   -0.50576  -0.50416  -0.50262  -0.50065  -0.49964
 Alpha  occ. eigenvalues --   -0.49840  -0.49547  -0.49208  -0.49033  -0.48767
 Alpha  occ. eigenvalues --   -0.48658  -0.48415  -0.48380  -0.48275  -0.48006
 Alpha  occ. eigenvalues --   -0.47877  -0.47782  -0.47745  -0.47674  -0.47557
 Alpha  occ. eigenvalues --   -0.47547  -0.47484  -0.47264  -0.47140  -0.46899
 Alpha  occ. eigenvalues --   -0.46821  -0.46699  -0.46585  -0.46521  -0.46476
 Alpha  occ. eigenvalues --   -0.46373  -0.45695  -0.45653  -0.45508  -0.45272
 Alpha  occ. eigenvalues --   -0.45122  -0.44977  -0.44846  -0.44746  -0.44585
 Alpha  occ. eigenvalues --   -0.44327  -0.44232  -0.44188  -0.44054  -0.43835
 Alpha  occ. eigenvalues --   -0.43740  -0.43661  -0.43495  -0.43304  -0.43074
 Alpha  occ. eigenvalues --   -0.43060  -0.42932  -0.42907  -0.42549  -0.42349
 Alpha  occ. eigenvalues --   -0.42114  -0.41482  -0.41430  -0.41150  -0.41097
 Alpha  occ. eigenvalues --   -0.40658  -0.40243  -0.39795  -0.39702  -0.39469
 Alpha  occ. eigenvalues --   -0.39136  -0.38990  -0.38973  -0.38729  -0.38362
 Alpha  occ. eigenvalues --   -0.38097  -0.37888  -0.36717  -0.36355  -0.36037
 Alpha  occ. eigenvalues --   -0.35977  -0.35295  -0.35290  -0.33993  -0.33391
 Alpha  occ. eigenvalues --   -0.32952  -0.32820  -0.32394  -0.32310  -0.32232
 Alpha  occ. eigenvalues --   -0.32101  -0.31135  -0.31026  -0.26222  -0.25670
 Alpha  occ. eigenvalues --   -0.23475  -0.22831
 Alpha virt. eigenvalues --   -0.07496  -0.06781   0.00051   0.00445   0.02217
 Alpha virt. eigenvalues --    0.02269   0.04123   0.04464   0.05035   0.05938
 Alpha virt. eigenvalues --    0.07362   0.07755   0.07924   0.08026   0.08247

 Mulliken charges:
               1
     1  Mg   0.931644
     2  C   -0.001114
     3  C   -0.065708
     4  C   -0.091475
     5  C   -0.077563
     6  N   -0.307351
     7  C    0.004204
     8  C   -0.074421
     9  C   -0.126253
    10  C    0.080281
    11  C    0.020520
    12  C    0.007900
    13  C   -0.131056
    14  H    0.036960
    15  N   -0.514446
    16  C    0.148833
    17  C   -0.151876
    18  C   -0.055446
    19  C    0.177836
    20  C    0.087395
    21  C    0.034489
    22  O   -0.271062
    23  C    0.017049
    24  N   -0.324756
    25  C    0.043691
    26  C   -0.057474
    27  C   -0.088532
    28  C    0.106028
    29  C    0.017483
    30  C   -0.009890
    31  C   -0.055776
    32  N   -0.439788
    33  C    0.094736
    34  C   -0.179732
    35  C    0.011830
    36  C    0.117518
    37  C    0.048046
    38  C    0.070985
    39  O   -0.201900
    40  C   -0.081054
    41  C    0.257041
    42  O   -0.227843
    43  O   -0.352634
    44  C    0.138926
    45  H   -0.003830
    46  H   -0.037303
    47  H   -0.005235
    48  H    0.022147
    49  H    0.037607
    50  H    0.038119
    51  H    0.026462
    52  H    0.039058
    53  H    0.025057
    54  H    0.032765
    55  H    0.077980
    56  H    0.066403
    57  H    0.053651
    58  H    0.029907
    59  H    0.063918
    60  H    0.061102
    61  H    0.077271
    62  H    0.047643
    63  H    0.049742
    64  H    0.040749
    65  H    0.036119
    66  H    0.051897
    67  H    0.027105
    68  H    0.036507
    69  H    0.027984
    70  H    0.034931
    71  H    0.031346
    72  H    0.047279
    73  H    0.038288
    74  H    0.058168
    75  H    0.037795
    76  H    0.089661
    77  H    0.063440
    78  H    0.059038
    79  H    0.050982
    80  Mg   0.943618
    81  C   -0.009890
    82  C   -0.053625
    83  C   -0.049927
    84  C   -0.089576
    85  N   -0.281322
    86  C    0.032594
    87  C   -0.102496
    88  C   -0.079051
    89  C   -0.023220
    90  C    0.044055
    91  C   -0.008033
    92  C   -0.108889
    93  H    0.034799
    94  N   -0.486411
    95  C    0.194203
    96  C   -0.162126
    97  C   -0.110890
    98  C    0.127619
    99  C    0.066900
   100  C    0.057624
   101  O   -0.198029
   102  C   -0.025187
   103  N   -0.388459
   104  C    0.068120
   105  C   -0.106262
   106  C   -0.052090
   107  C    0.081628
   108  C    0.014991
   109  C   -0.034343
   110  C   -0.035174
   111  N   -0.431019
   112  C    0.126488
   113  C   -0.181564
   114  C   -0.031496
   115  C    0.144957
   116  C    0.071985
   117  C    0.142846
   118  O   -0.213675
   119  C   -0.092645
   120  C    0.223669
   121  O   -0.247837
   122  O   -0.327047
   123  C    0.146570
   124  H   -0.006257
   125  H    0.024639
   126  H   -0.006563
   127  H    0.040608
   128  H    0.020990
   129  H    0.047015
   130  H    0.041446
   131  H    0.029940
   132  H    0.038415
   133  H    0.025581
   134  H    0.052998
   135  H    0.060663
   136  H    0.037091
   137  H    0.040561
   138  H    0.034211
   139  H    0.057452
   140  H    0.052173
   141  H    0.039843
   142  H    0.049963
   143  H    0.031409
   144  H    0.019103
   145  H    0.045816
   146  H    0.058986
   147  H    0.022715
   148  H    0.029606
   149  H    0.030090
   150  H    0.044242
   151  H    0.041727
   152  H    0.038358
   153  H    0.061959
   154  H    0.059474
   155  H    0.073462
   156  H    0.085495
   157  H    0.026984
   158  H    0.057420
 Sum of Mulliken charges =  -0.00000

 Dipole moment (field-independent basis, Debye):
    X=              4.6804    Y=             -0.8755    Z=              3.8719  Tot=              6.1372
 Quadrupole moment (field-independent basis, Debye-Ang):
   XX=           -438.5313   YY=           -494.9828   ZZ=           -470.3398
   XY=              7.9652   XZ=              2.7760   YZ=            -15.4221

 Normal termination of Gaussian 16 at Sun Sep 19 21:12:16 2021.
