 Gaussian 16, Revision A.03,
 Gaussian 16:  ES64L-G16RevA.03 25-Dec-2016

 --------------------------------
 #p wB97XD/Def2SVP td=(nstates=5)
 --------------------------------

 --------------------------------
 TDDFT excited states in gaussian
 --------------------------------
 Symbolic Z-matrix:
 Charge =  0 Multiplicity = 1

                         Standard orientation:
 ---------------------------------------------------------------------
 Center     Atomic      Atomic             Coordinates (Angstroms)
 Number     Number       Type             X           Y           Z
 ---------------------------------------------------------------------
      1         12           0      -32.147146    0.104111    0.376606
      2          6           0      -29.774584   -1.927517   -1.054216
      3          6           0      -32.764917    1.474273   -2.848396
      4          6           0      -34.107133    2.524244    1.692311
      5          6           0      -31.325759   -0.952795    3.452141
      6          7           0      -31.345429   -0.199828   -1.716482
      7          6           0      -30.356190   -1.097180   -2.017357
      8          6           0      -30.107772   -1.156558   -3.526232
      9          6           0      -30.959672    0.103435   -4.017197
     10          6           0      -31.740243    0.494294   -2.796500
     11          6           0      -30.099219    1.251496   -4.661616
     12          6           0      -30.592056   -2.519514   -4.202691
     13          6           0      -29.768585   -3.254978   -5.232438
     14          1           0      -29.172178   -2.475311   -6.350016
     15          7           0      -33.345024    1.765867   -0.447793
     16          6           0      -33.595643    2.027369   -1.749523
     17          6           0      -34.615082    3.011535   -1.896525
     18          6           0      -35.059051    3.322323   -0.572536
     19          6           0      -34.098536    2.566280    0.285454
     20          6           0      -34.947268    3.498743   -3.269951
     21          6           0      -36.079556    4.356875   -0.129588
     22          8           0      -36.176366    4.730448    1.043506
     23          6           0      -37.016762    4.989761   -1.143161
     24          7           0      -32.546247    0.822506    2.341450
     25          6           0      -33.495705    1.754223    2.619752
     26          6           0      -33.760410    1.823141    4.122819
     27          6           0      -32.977643    0.563205    4.655374
     28          6           0      -32.239289    0.101922    3.414322
     29          6           0      -33.508843    3.132001    4.928297
     30          6           0      -33.835783   -0.557106    5.378499
     31          6           0      -34.381021   -1.731529    4.593775
     32          7           0      -30.780029   -1.083778    1.099418
     33          6           0      -30.600441   -1.577772    2.366539
     34          6           0      -29.529108   -2.500690    2.464996
     35          6           0      -29.195759   -2.715150    1.131297
     36          6           0      -29.998093   -1.849975    0.343692
     37          6           0      -28.898396   -3.245930    3.634081
     38          6           0      -28.358033   -3.403192    0.249850
     39          8           0      -27.465880   -4.187163    0.516688
     40          6           0      -28.652226   -2.924277   -1.280779
     41          6           0      -27.422106   -2.351920   -1.813753
     42          8           0      -26.859571   -1.316835   -1.404928
     43          8           0      -26.869714   -3.090973   -2.812009
     44          6           0      -25.487644   -2.812512   -3.218329
     45          1           0      -32.927603    1.754150   -3.890948
     46          1           0      -34.934943    3.091424    2.122519
     47          1           0      -31.293873   -1.567910    4.353033
     48          1           0      -29.031611   -1.113358   -3.698691
     49          1           0      -31.643348   -0.168175   -4.821684
     50          1           0      -30.452874    1.395702   -5.681938
     51          1           0      -29.067859    0.918637   -4.543708
     52          1           0      -30.249116    2.243025   -4.233335
     53          1           0      -31.529498   -2.203599   -4.660741
     54          1           0      -30.976309   -3.211609   -3.454132
     55          1           0      -30.320083   -4.119532   -5.601823
     56          1           0      -28.884868   -3.603007   -4.698848
     57          1           0      -36.036066    3.510015   -3.304052
     58          1           0      -34.624106    2.780822   -4.024187
     59          1           0      -34.552636    4.477755   -3.543933
     60          1           0      -37.430367    4.285597   -1.865696
     61          1           0      -36.566159    5.900672   -1.539620
     62          1           0      -37.870477    5.313499   -0.547023
     63          1           0      -34.845782    1.739778    4.182642
     64          1           0      -32.307616    0.800951    5.480741
     65          1           0      -32.643792    3.013377    5.580608
     66          1           0      -34.395561    3.284764    5.543289
     67          1           0      -33.370893    3.914091    4.182509
     68          1           0      -34.682961   -0.047354    5.835330
     69          1           0      -33.250529   -1.008416    6.180003
     70          1           0      -35.452984   -1.858948    4.746470
     71          1           0      -33.891194   -2.677855    4.827030
     72          1           0      -34.177115   -1.486343    3.551450
     73          1           0      -29.440118   -2.998255    4.547736
     74          1           0      -27.846859   -2.967901    3.709626
     75          1           0      -28.966923   -4.315654    3.438365
     76          1           0      -28.830559   -3.891711   -1.751110
     77          1           0      -24.986746   -3.654614   -3.696090
     78          1           0      -24.857058   -2.353801   -2.457312
     79          1           0      -25.579117   -2.131092   -4.064284
     80         12           0       32.037772    0.503010   -0.407012
     81          6           0       29.464644   -1.788536   -0.167721
     82          6           0       29.696754    3.014015   -0.152422
     83          6           0       34.605768    2.754854   -0.041228
     84          6           0       34.325845   -2.065556   -0.542577
     85          7           0       29.881342    0.602120    0.012050
     86          6           0       29.039286   -0.492292   -0.004912
     87          6           0       27.576687   -0.087299    0.158171
     88          6           0       27.648327    1.447813   -0.183039
     89          6           0       29.142406    1.706792   -0.055576
     90          6           0       26.978078    1.927338   -1.549440
     91          6           0       26.906980   -0.437759    1.525143
     92          6           0       25.522082   -1.044231    1.442591
     93          1           0       24.449294   -0.095577    1.954437
     94          7           0       32.097868    2.560701   -0.123630
     95          6           0       31.057722    3.400586   -0.074866
     96          6           0       31.510646    4.777850    0.015821
     97          6           0       32.893995    4.826345    0.060038
     98          6           0       33.281656    3.351142    0.017213
     99          6           0       30.497206    6.012035    0.149218
    100          6           0       33.795201    6.107047    0.071100
    101          8           0       33.237282    7.239279    0.129291
    102          6           0       35.273716    6.025824    0.066854
    103          7           0       34.240742    0.355964   -0.055026
    104          6           0       35.049787    1.388640   -0.113363
    105          6           0       36.489947    0.993726   -0.365192
    106          6           0       36.515366   -0.570149   -0.450207
    107          6           0       34.932112   -0.822710   -0.426027
    108          6           0       37.349941    1.790856   -1.397276
    109          6           0       37.251483   -1.409388    0.634078
    110          6           0       37.536311   -2.829474    0.190662
    111          7           0       31.929202   -1.559838   -0.352320
    112          6           0       32.962229   -2.513368   -0.504949
    113          6           0       32.353814   -3.813713   -0.578369
    114          6           0       30.956330   -3.603848   -0.485023
    115          6           0       30.802606   -2.231350   -0.310109
    116          6           0       33.043068   -5.116743   -0.955026
    117          6           0       29.753258   -4.275407   -0.512183
    118          8           0       29.414709   -5.427497   -0.523971
    119          6           0       28.681269   -3.120486   -0.151926
    120          6           0       28.376541   -3.352158    1.327269
    121          8           0       29.069091   -2.991725    2.259493
    122          8           0       27.186331   -4.059313    1.382925
    123          6           0       26.759988   -4.485944    2.711781
    124          1           0       29.002990    3.847981   -0.276210
    125          1           0       35.371884    3.525317    0.065022
    126          1           0       34.917512   -2.965929   -0.720586
    127          1           0       27.017182   -0.557227   -0.650151
    128          1           0       27.265395    1.977133    0.690236
    129          1           0       27.522802    2.850603   -1.746515
    130          1           0       25.947717    2.268917   -1.447468
    131          1           0       27.018726    1.232485   -2.388153
    132          1           0       26.864119    0.526142    2.032658
    133          1           0       27.517465   -0.973604    2.251679
    134          1           0       25.537033   -1.964134    2.027548
    135          1           0       25.236837   -1.296637    0.421113
    136          1           0       29.441316    5.743055    0.200450
    137          1           0       30.627069    6.705022   -0.682721
    138          1           0       30.596107    6.546276    1.093139
    139          1           0       35.606673    5.505079   -0.830402
    140          1           0       35.658784    5.658301    1.018129
    141          1           0       35.589587    7.042803   -0.162359
    142          1           0       37.158302    1.083081    0.491454
    143          1           0       36.709234   -0.930107   -1.460902
    144          1           0       36.782280    2.694785   -1.622393
    145          1           0       37.654336    1.204066   -2.264714
    146          1           0       38.301516    2.149534   -1.004636
    147          1           0       36.638382   -1.341911    1.532673
    148          1           0       38.152272   -0.834831    0.849623
    149          1           0       38.458249   -3.145869    0.679181
    150          1           0       37.677928   -2.964137   -0.882332
    151          1           0       36.772678   -3.489061    0.602945
    152          1           0       32.355494   -5.940620   -1.146471
    153          1           0       33.739835   -5.363201   -0.154903
    154          1           0       33.646952   -4.998911   -1.854842
    155          1           0       27.839645   -3.128851   -0.845215
    156          1           0       27.471911   -5.211354    3.105887
    157          1           0       25.743263   -4.877302    2.705272
    158          1           0       26.802346   -3.638220    3.395064
 ---------------------------------------------------------------------

 SCF Done:  E(RwB97XD) =  -4070.63294573     A.U. after   19 cycles

 Excitation energies and oscillator strengths:

 Excited State   1:      Singlet-A      1.6605 eV  746.69 nm  f=0.4151  <S**2>=0.000
     310 -> 316       -0.18408
     312 -> 313        0.68432
     310 <- 316       -0.11635
 This state for optimization and/or second-order correction.
 Total Energy, E(TD-HF/TD-DFT) =  -4070.57192507
 Copying the excited state density for this state as the 1-particle RhoCI density.

 Excited State   2:      Singlet-A      1.8712 eV  662.61 nm  f=0.3747  <S**2>=0.000
     309 -> 315        0.14187
     311 -> 314        0.68597

 Excited State   3:      Singlet-A      2.1344 eV  580.90 nm  f=0.1705  <S**2>=0.000
     310 -> 313        0.66027
     312 -> 316        0.24162

 Excited State   4:      Singlet-A      2.2254 eV  557.13 nm  f=0.1259  <S**2>=0.000
     309 -> 314        0.64385
     311 -> 315       -0.24647
     311 -> 317        0.10814

 Excited State   5:      Singlet-A      3.4419 eV  360.22 nm  f=0.0031  <S**2>=0.000
     305 -> 318       -0.16883
     306 -> 313        0.65321

 The electronic state is 1-A.
 Alpha  occ. eigenvalues --  -46.95745 -46.95445 -19.30276 -19.29676 -19.25340
 Alpha  occ. eigenvalues --  -19.24721 -19.23927 -19.23647 -19.23474 -19.22643
 Alpha  occ. eigenvalues --  -14.46907 -14.46709 -14.46625 -14.46118 -14.45214
 Alpha  occ. eigenvalues --  -14.44160 -14.44085 -14.43006 -10.42880 -10.42775
 Alpha  occ. eigenvalues --  -10.41096 -10.39357 -10.38532 -10.37338 -10.37283
 Alpha  occ. eigenvalues --  -10.36520 -10.35824 -10.35356 -10.35245 -10.35080
 Alpha  occ. eigenvalues --  -10.34896 -10.34837 -10.34402 -10.34343 -10.34147
 Alpha  occ. eigenvalues --  -10.34125 -10.34118 -10.34077 -10.33887 -10.33763
 Alpha  occ. eigenvalues --  -10.33382 -10.32991 -10.32528 -10.32525 -10.32524
 Alpha  occ. eigenvalues --  -10.32484 -10.32408 -10.32315 -10.32295 -10.32231
 Alpha  occ. eigenvalues --  -10.32204 -10.32113 -10.32112 -10.32088 -10.32044
 Alpha  occ. eigenvalues --  -10.31779 -10.31598 -10.31559 -10.31545 -10.31355
 Alpha  occ. eigenvalues --  -10.31354 -10.31172 -10.31100 -10.31050 -10.31031
 Alpha  occ. eigenvalues --  -10.30938 -10.30860 -10.30819 -10.30809 -10.30779
 Alpha  occ. eigenvalues --  -10.30774 -10.30762 -10.30647 -10.30483 -10.30287
 Alpha  occ. eigenvalues --  -10.30150 -10.30060 -10.29925 -10.29872 -10.29626
 Alpha  occ. eigenvalues --  -10.29565 -10.29239 -10.29076 -10.28837 -10.28637
 Alpha  occ. eigenvalues --  -10.26985  -3.21640  -3.21496  -1.95209  -1.95069
 Alpha  occ. eigenvalues --   -1.94764  -1.94610  -1.94582  -1.94511  -1.18024
 Alpha  occ. eigenvalues --   -1.17543  -1.12122  -1.11925  -1.11692  -1.11436
 Alpha  occ. eigenvalues --   -1.10021  -1.08019  -1.07397  -1.06694  -1.06601
 Alpha  occ. eigenvalues --   -1.06160  -1.05865  -1.05505  -1.05275  -1.04535
 Alpha  occ. eigenvalues --   -0.94585  -0.93460  -0.91026  -0.90949  -0.90344
 Alpha  occ. eigenvalues --   -0.90106  -0.90057  -0.89945  -0.89722  -0.89367
 Alpha  occ. eigenvalues --   -0.88997  -0.88694  -0.88368  -0.87709  -0.86400
 Alpha  occ. eigenvalues --   -0.86214  -0.85655  -0.85539  -0.85121  -0.84564
 Alpha  occ. eigenvalues --   -0.83984  -0.83772  -0.83109  -0.82611  -0.82277
 Alpha  occ. eigenvalues --   -0.82144  -0.80354  -0.79584  -0.79402  -0.79094
 Alpha  occ. eigenvalues --   -0.79031  -0.78634  -0.78160  -0.77428  -0.77254
 Alpha  occ. eigenvalues --   -0.77082  -0.75532  -0.74347  -0.73670  -0.73522
 Alpha  occ. eigenvalues --   -0.71656  -0.71545  -0.71210  -0.71093  -0.70091
 Alpha  occ. eigenvalues --   -0.69839  -0.69362  -0.69122  -0.67554  -0.67540
 Alpha  occ. eigenvalues --   -0.67389  -0.67105  -0.66724  -0.66692  -0.66202
 Alpha  occ. eigenvalues --   -0.66021  -0.64232  -0.63660  -0.62200  -0.62027
 Alpha  occ. eigenvalues --   -0.61802  -0.61418  -0.61060  -0.61028  -0.60462
 Alpha  occ. eigenvalues --   -0.60269  -0.59876  -0.59753  -0.59315  -0.59275
 Alpha  occ. eigenvalues --   -0.58456  -0.58235  -0.57398  -0.57328  -0.56996
 Alpha  occ. eigenvalues --   -0.56959  -0.56774  -0.56079  -0.55986  -0.55910
 Alpha  occ. eigenvalues --   -0.55655  -0.55263  -0.55224  -0.55103  -0.55089
 Alpha  occ. eigenvalues --   -0.54742  -0.54690  -0.54481  -0.54167  -0.54014
 Alpha  occ. eigenvalues --   -0.53940  -0.53490  -0.53395  -0.52965  -0.52682
 Alpha  occ. eigenvalues --   -0.52659  -0.52523  -0.52488  -0.52189  -0.52124
 Alpha  occ. eigenvalues --   -0.51953  -0.51796  -0.51734  -0.51459  -0.51397
 Alpha  occ. eigenvalues --   -0.51159  -0.51005  -0.50974  -0.50727  -0.50668
 Alpha  occ. eigenvalues --   -0.50603  -0.50499  -0.50390  -0.50164  -0.50119
 Alpha  occ. eigenvalues --   -0.49772  -0.49513  -0.49498  -0.49271  -0.49159
 Alpha  occ. eigenvalues --   -0.49091  -0.48795  -0.48494  -0.48421  -0.48109
 Alpha  occ. eigenvalues --   -0.48090  -0.48028  -0.47909  -0.47882  -0.47798
 Alpha  occ. eigenvalues --   -0.47230  -0.47118  -0.47101  -0.46953  -0.46951
 Alpha  occ. eigenvalues --   -0.46788  -0.46591  -0.46451  -0.46249  -0.45856
 Alpha  occ. eigenvalues --   -0.45840  -0.45827  -0.45550  -0.45496  -0.45303
 Alpha  occ. eigenvalues --   -0.45287  -0.45164  -0.45076  -0.44923  -0.44763
 Alpha  occ. eigenvalues --   -0.44446  -0.44437  -0.44182  -0.44078  -0.43967
 Alpha  occ. eigenvalues --   -0.43904  -0.43788  -0.43491  -0.43451  -0.43226
 Alpha  occ. eigenvalues --   -0.43029  -0.42638  -0.42490  -0.42325  -0.42071
 Alpha  occ. eigenvalues --   -0.41920  -0.41755  -0.41752  -0.41450  -0.41219
 Alpha  occ. eigenvalues --   -0.40873  -0.40406  -0.40145  -0.39994  -0.39271
 Alpha  occ. eigenvalues --   -0.39263  -0.38656  -0.38588  -0.38305  -0.38039
 Alpha  occ. eigenvalues --   -0.37672  -0.37266  -0.36544  -0.36376  -0.36132
 Alpha  occ. eigenvalues --   -0.35415  -0.35326  -0.35076  -0.34469  -0.34119
 Alpha  occ. eigenvalues --   -0.33533  -0.33243  -0.33056  -0.33027  -0.32445
 Alpha  occ. eigenvalues --   -0.32251  -0.31591  -0.31147  -0.26041  -0.25742
 Alpha  occ. eigenvalues --   -0.23341  -0.23270
 Alpha virt. eigenvalues --   -0.07456  -0.06727   0.00160   0.00731   0.02191
 Alpha virt. eigenvalues --    0.02317   0.04105   0.04562   0.04942   0.04945
 Alpha virt. eigenvalues --    0.06878   0.07631   0.08195   0.08559   0.08929

 Mulliken charges:
               1
     1  Mg   0.974620
     2  C   -0.004265
     3  C   -0.064851
     4  C   -0.065415
     5  C   -0.074816
     6  N   -0.330648
     7  C    0.000545
     8  C   -0.084458
     9  C   -0.117801
    10  C    0.051533
    11  C    0.025246
    12  C    0.010941
    13  C   -0.102381
    14  H    0.032745
    15  N   -0.356654
    16  C    0.129005
    17  C   -0.163808
    18  C   -0.075512
    19  C    0.100027
    20  C    0.082214
    21  C    0.043268
    22  O   -0.246929
    23  C   -0.016985
    24  N   -0.351567
    25  C    0.050162
    26  C   -0.080609
    27  C   -0.041389
    28  C    0.061439
    29  C    0.035310
    30  C   -0.058023
    31  C   -0.043028
    32  N   -0.478503
    33  C    0.099313
    34  C   -0.189124
    35  C    0.040999
    36  C    0.138157
    37  C    0.096930
    38  C    0.037767
    39  O   -0.207897
    40  C   -0.055954
    41  C    0.260087
    42  O   -0.281289
    43  O   -0.359692
    44  C    0.146644
    45  H   -0.010904
    46  H    0.017293
    47  H   -0.000408
    48  H    0.049054
    49  H    0.042627
    50  H    0.031654
    51  H    0.050433
    52  H    0.040571
    53  H    0.012379
    54  H    0.032267
    55  H    0.056005
    56  H    0.054355
    57  H    0.030619
    58  H    0.036836
    59  H    0.063564
    60  H    0.053780
    61  H    0.071490
    62  H    0.050407
    63  H    0.036339
    64  H    0.036888
    65  H    0.036524
    66  H    0.040349
    67  H    0.051416
    68  H    0.029684
    69  H    0.029350
    70  H    0.038444
    71  H    0.037287
    72  H    0.035896
    73  H    0.026406
    74  H    0.066836
    75  H    0.060972
    76  H    0.060678
    77  H    0.053419
    78  H    0.075500
    79  H    0.036634
    80  Mg   0.966616
    81  C   -0.041442
    82  C   -0.128801
    83  C   -0.109040
    84  C   -0.042059
    85  N   -0.332953
    86  C   -0.011476
    87  C   -0.074691
    88  C   -0.075998
    89  C    0.063473
    90  C    0.034904
    91  C    0.028279
    92  C   -0.107139
    93  H    0.024765
    94  N   -0.466034
    95  C    0.185967
    96  C   -0.153006
    97  C   -0.065448
    98  C    0.142356
    99  C    0.072271
   100  C    0.052343
   101  O   -0.253984
   102  C    0.003686
   103  N   -0.330866
   104  C    0.128488
   105  C   -0.083484
   106  C   -0.090953
   107  C    0.027187
   108  C    0.020533
   109  C    0.009859
   110  C   -0.034575
   111  N   -0.438502
   112  C    0.046261
   113  C   -0.148242
   114  C    0.002686
   115  C    0.157780
   116  C    0.059519
   117  C    0.057960
   118  O   -0.195145
   119  C   -0.117738
   120  C    0.296837
   121  O   -0.238828
   122  O   -0.364151
   123  C    0.141287
   124  H   -0.003487
   125  H   -0.019512
   126  H   -0.016860
   127  H    0.023291
   128  H    0.032782
   129  H    0.025019
   130  H    0.044691
   131  H    0.053881
   132  H    0.020250
   133  H    0.052820
   134  H    0.048256
   135  H    0.048688
   136  H    0.019570
   137  H    0.064647
   138  H    0.059470
   139  H    0.061868
   140  H    0.091273
   141  H    0.055060
   142  H    0.038390
   143  H    0.031576
   144  H    0.030246
   145  H    0.041589
   146  H    0.029143
   147  H    0.042110
   148  H    0.025811
   149  H    0.032463
   150  H    0.043074
   151  H    0.051703
   152  H    0.058574
   153  H    0.038060
   154  H    0.040757
   155  H    0.054837
   156  H    0.058142
   157  H    0.060956
   158  H    0.042362
 Sum of Mulliken charges =  -0.00000

 Dipole moment (field-independent basis, Debye):
    X=             -0.7861    Y=              2.5650    Z=             -4.1289  Tot=              4.9239
 Quadrupole moment (field-independent basis, Debye-Ang):
   XX=            -64.2572   YY=           -560.4188   ZZ=           -471.6237
   XY=            115.9901   XZ=             28.4674   YZ=            -15.2917

 Normal termination of Gaussian 16 at Mon Sep 20 20:12:23 2021.
