 Gaussian 16, Revision A.03,
 Gaussian 16:  ES64L-G16RevA.03 25-Dec-2016

 --------------------------------
 #p wB97XD/Def2SVP td=(nstates=5)
 --------------------------------

 --------------------------------
 TDDFT excited states in gaussian
 --------------------------------
 Symbolic Z-matrix:
 Charge =  0 Multiplicity = 1

                         Standard orientation:
 ---------------------------------------------------------------------
 Center     Atomic      Atomic             Coordinates (Angstroms)
 Number     Number       Type             X           Y           Z
 ---------------------------------------------------------------------
      1         12           0       -4.677964   -0.336574    0.885176
      2          6           0       -5.292295    2.792763   -0.249092
      3          6           0       -2.092746    0.885537    2.856935
      4          6           0       -4.059743   -3.467601    2.014752
      5          6           0       -6.910264   -1.615857   -1.430708
      6          7           0       -3.938267    1.593595    1.286235
      7          6           0       -4.290716    2.766196    0.701278
      8          6           0       -3.649900    3.956457    1.366135
      9          6           0       -2.441345    3.320515    2.152572
     10          6           0       -2.871730    1.817342    2.121018
     11          6           0       -0.949566    3.603292    1.694975
     12          6           0       -4.646937    4.673798    2.383530
     13          6           0       -4.283073    6.169198    2.620629
     14          1           0       -2.842864    6.688009    2.473048
     15          7           0       -3.214318   -1.238553    2.201440
     16          6           0       -2.236397   -0.504560    2.922634
     17          6           0       -1.475290   -1.400634    3.739986
     18          6           0       -2.023840   -2.710938    3.500929
     19          6           0       -3.162158   -2.477882    2.541855
     20          6           0       -0.413434   -0.982525    4.695694
     21          6           0       -1.608368   -4.054473    4.089722
     22          8           0       -2.063500   -5.184313    3.744614
     23          6           0       -0.544324   -4.095484    5.173386
     24          7           0       -5.321268   -2.264968    0.331503
     25          6           0       -5.068367   -3.416688    1.078333
     26          6           0       -6.000945   -4.618853    0.752194
     27          6           0       -6.948726   -3.903655   -0.364937
     28          6           0       -6.413850   -2.524862   -0.497362
     29          6           0       -5.152845   -5.779754    0.216955
     30          6           0       -8.417474   -3.974794   -0.067202
     31          6           0       -9.222869   -4.600225   -1.169985
     32          7           0       -5.778756    0.296902   -0.603901
     33          6           0       -6.683817   -0.290907   -1.478895
     34          6           0       -7.248947    0.690370   -2.328996
     35          6           0       -6.717070    1.949501   -1.941250
     36          6           0       -5.905386    1.687928   -0.817290
     37          6           0       -8.249301    0.526831   -3.408098
     38          6           0       -6.633967    3.352505   -2.283459
     39          8           0       -7.085895    4.050165   -3.170302
     40          6           0       -5.730452    3.942465   -1.099340
     41          6           0       -4.768749    4.969260   -1.578937
     42          8           0       -4.090857    4.911481   -2.572887
     43          8           0       -4.724499    6.060835   -0.799376
     44          6           0       -3.756282    7.100884   -1.249785
     45          1           0       -1.203071    1.341643    3.296427
     46          1           0       -3.761115   -4.481968    2.287089
     47          1           0       -7.708434   -1.921678   -2.110196
     48          1           0       -3.177404    4.628916    0.650337
     49          1           0       -2.527096    3.608967    3.199717
     50          1           0       -0.992823    4.338144    0.891010
     51          1           0       -0.351555    2.754402    1.367317
     52          1           0       -0.423965    3.979579    2.572820
     53          1           0       -4.589307    4.065563    3.286380
     54          1           0       -5.646898    4.605906    1.954903
     55          1           0       -4.630377    6.330064    3.641383
     56          1           0       -4.974681    6.748520    2.009509
     57          1           0       -0.760948   -0.628640    5.666363
     58          1           0        0.160461   -0.220292    4.170172
     59          1           0        0.372376   -1.727563    4.816697
     60          1           0        0.412234   -4.072206    4.651538
     61          1           0       -0.671540   -5.066364    5.651618
     62          1           0       -0.588009   -3.259262    5.871410
     63          1           0       -6.437491   -4.925491    1.702796
     64          1           0       -6.807657   -4.418906   -1.315650
     65          1           0       -4.106103   -5.551592    0.014939
     66          1           0       -5.675608   -6.240556   -0.620851
     67          1           0       -5.100695   -6.505325    1.029213
     68          1           0       -8.878680   -2.995313    0.059995
     69          1           0       -8.670662   -4.503360    0.851914
     70          1           0       -9.908583   -5.369516   -0.816047
     71          1           0       -8.580055   -5.070717   -1.913505
     72          1           0       -9.683049   -3.750911   -1.675816
     73          1           0       -8.227847   -0.424077   -3.941297
     74          1           0       -7.868054    1.175061   -4.197642
     75          1           0       -9.246957    0.746881   -3.027998
     76          1           0       -6.533108    4.466525   -0.579675
     77          1           0       -4.139027    7.681028   -2.090654
     78          1           0       -2.756225    6.691800   -1.394417
     79          1           0       -3.627204    7.816753   -0.437646
     80         12           0        4.077625   -0.790978   -0.969473
     81          6           0        6.821963    1.192514   -0.177142
     82          6           0        2.076865    1.984854   -0.783507
     83          6           0        1.390908   -2.836177   -1.430925
     84          6           0        6.304178   -3.559204   -0.856735
     85          7           0        4.402099    1.326062   -0.499137
     86          6           0        5.634200    1.901139   -0.331828
     87          6           0        5.395540    3.407909   -0.206623
     88          6           0        3.890733    3.579865   -0.100512
     89          6           0        3.419708    2.195006   -0.529783
     90          6           0        3.278785    4.048814    1.192195
     91          6           0        6.090249    4.312793   -1.332149
     92          6           0        5.678033    5.819956   -1.345863
     93          1           0        6.520084    6.826845   -0.519310
     94          7           0        2.051563   -0.426279   -1.231949
     95          6           0        1.418024    0.764494   -1.089706
     96          6           0        0.012683    0.507619   -1.268865
     97          6           0       -0.175889   -0.894138   -1.449774
     98          6           0        1.093900   -1.460502   -1.353770
     99          6           0       -0.974796    1.632754   -1.227196
    100          6           0       -1.540746   -1.635367   -1.551785
    101          8           0       -1.635915   -2.834221   -1.358754
    102          6           0       -2.810284   -0.958148   -1.760401
    103          7           0        3.912188   -2.774141   -1.114474
    104          6           0        2.705771   -3.431836   -1.352647
    105          6           0        2.883215   -4.952812   -1.502175
    106          6           0        4.441762   -5.080367   -1.596348
    107          6           0        4.914284   -3.690038   -1.204464
    108          6           0        2.122709   -5.802011   -0.569761
    109          6           0        5.115888   -5.636863   -2.969662
    110          6           0        5.987609   -6.896133   -2.955833
    111          7           0        6.195997   -1.169492   -0.532134
    112          6           0        6.902207   -2.339517   -0.520146
    113          6           0        8.271997   -2.111774   -0.203952
    114          6           0        8.324532   -0.667654   -0.125085
    115          6           0        6.999253   -0.164151   -0.248717
    116          6           0        9.300709   -3.175050   -0.131409
    117          6           0        9.230480    0.450804    0.001103
    118          8           0       10.439349    0.556407    0.068868
    119          6           0        8.229211    1.749563   -0.020966
    120          6           0        8.489142    2.657072    1.125622
    121          8           0        8.273998    2.360612    2.280418
    122          8           0        8.976247    3.849187    0.739058
    123          6           0        9.038659    4.942877    1.783138
    124          1           0        1.442357    2.873888   -0.778499
    125          1           0        0.512533   -3.469297   -1.571369
    126          1           0        6.820397   -4.520914   -0.894848
    127          1           0        5.889084    3.594572    0.747043
    128          1           0        3.565238    4.341975   -0.808126
    129          1           0        2.839090    3.108974    1.524647
    130          1           0        2.575630    4.869756    1.050998
    131          1           0        4.029946    4.290747    1.944384
    132          1           0        5.750494    3.822071   -2.244458
    133          1           0        7.173824    4.252334   -1.237691
    134          1           0        4.668864    5.964562   -0.962203
    135          1           0        5.670211    6.153033   -2.383688
    136          1           0       -0.594529    2.651362   -1.144089
    137          1           0       -1.546247    1.484270   -0.311553
    138          1           0       -1.704846    1.591238   -2.035772
    139          1           0       -3.071644   -0.089907   -1.156337
    140          1           0       -3.690409   -1.601040   -1.759383
    141          1           0       -2.737073   -0.665639   -2.807654
    142          1           0        2.464841   -5.044530   -2.504870
    143          1           0        4.611020   -5.706691   -0.720612
    144          1           0        1.361696   -6.452765   -1.001280
    145          1           0        1.632638   -5.141958    0.146442
    146          1           0        2.735760   -6.508535   -0.010355
    147          1           0        5.741578   -4.839147   -3.369536
    148          1           0        4.448442   -5.855317   -3.804129
    149          1           0        7.060528   -6.712734   -3.018997
    150          1           0        5.665816   -7.683505   -3.636855
    151          1           0        5.910930   -7.330327   -1.958895
    152          1           0        8.893010   -4.010974    0.436531
    153          1           0       10.246813   -2.818139    0.274648
    154          1           0        9.362206   -3.631712   -1.119748
    155          1           0        8.497355    2.302887   -0.920400
    156          1           0        9.770594    5.624677    1.350690
    157          1           0        9.368557    4.506068    2.725507
    158          1           0        8.053359    5.408740    1.804886
 ---------------------------------------------------------------------

 SCF Done:  E(RwB97XD) =  -4070.63321379     A.U. after   18 cycles

 Excitation energies and oscillator strengths:

 Excited State   1:      Singlet-A      1.5804 eV  784.52 nm  f=0.4432  <S**2>=0.000
     309 -> 315        0.15508
     311 -> 313        0.67609
     309 <- 315        0.10357
 This state for optimization and/or second-order correction.
 Total Energy, E(TD-HF/TD-DFT) =  -4070.57513557
 Copying the excited state density for this state as the 1-particle RhoCI density.

 Excited State   2:      Singlet-A      1.6324 eV  759.51 nm  f=0.3616  <S**2>=0.000
     310 -> 316       -0.16407
     312 -> 314        0.67420
     310 <- 316       -0.10549

 Excited State   3:      Singlet-A      2.1454 eV  577.92 nm  f=0.0329  <S**2>=0.000
     309 -> 313        0.59315
     310 -> 314       -0.23671
     311 -> 315       -0.23389
     311 -> 316        0.12056

 Excited State   4:      Singlet-A      2.1727 eV  570.64 nm  f=0.1284  <S**2>=0.000
     309 -> 313        0.23121
     310 -> 314        0.58174
     311 -> 315       -0.11889
     312 -> 315        0.10756
     312 -> 316        0.26454

 Excited State   5:      Singlet-A      2.5501 eV  486.20 nm  f=0.0001  <S**2>=0.000
     312 -> 313        0.69808

 The electronic state is 1-A.
 Alpha  occ. eigenvalues --  -46.94183 -46.93806 -19.30808 -19.29686 -19.24550
 Alpha  occ. eigenvalues --  -19.24181 -19.23822 -19.23656 -19.23650 -19.23250
 Alpha  occ. eigenvalues --  -14.47814 -14.47271 -14.46607 -14.46451 -14.44295
 Alpha  occ. eigenvalues --  -14.43671 -14.43618 -14.42974 -10.42870 -10.41838
 Alpha  occ. eigenvalues --  -10.39459 -10.39308 -10.39190 -10.38622 -10.36257
 Alpha  occ. eigenvalues --  -10.35935 -10.35797 -10.35628 -10.35251 -10.35081
 Alpha  occ. eigenvalues --  -10.35010 -10.34882 -10.34674 -10.34498 -10.34318
 Alpha  occ. eigenvalues --  -10.34201 -10.33800 -10.33734 -10.33648 -10.33647
 Alpha  occ. eigenvalues --  -10.33234 -10.33084 -10.33059 -10.32869 -10.32734
 Alpha  occ. eigenvalues --  -10.32491 -10.32326 -10.32249 -10.32202 -10.32127
 Alpha  occ. eigenvalues --  -10.32094 -10.32089 -10.32081 -10.32075 -10.32020
 Alpha  occ. eigenvalues --  -10.31874 -10.31785 -10.31632 -10.31600 -10.31592
 Alpha  occ. eigenvalues --  -10.31512 -10.31296 -10.31175 -10.31160 -10.31127
 Alpha  occ. eigenvalues --  -10.31113 -10.31092 -10.30937 -10.30916 -10.30902
 Alpha  occ. eigenvalues --  -10.30869 -10.30276 -10.30201 -10.30061 -10.29929
 Alpha  occ. eigenvalues --  -10.29907 -10.29688 -10.29656 -10.29575 -10.29525
 Alpha  occ. eigenvalues --  -10.29403 -10.29310 -10.29216 -10.29152 -10.29143
 Alpha  occ. eigenvalues --  -10.28994  -3.20261  -3.20060  -1.93874  -1.93661
 Alpha  occ. eigenvalues --   -1.93387  -1.93237  -1.93172  -1.93078  -1.19927
 Alpha  occ. eigenvalues --   -1.18063  -1.12842  -1.12668  -1.11682  -1.09915
 Alpha  occ. eigenvalues --   -1.09706  -1.08973  -1.07233  -1.06871  -1.06066
 Alpha  occ. eigenvalues --   -1.05818  -1.05266  -1.04982  -1.04345  -1.03604
 Alpha  occ. eigenvalues --   -0.95666  -0.94356  -0.91701  -0.91170  -0.90930
 Alpha  occ. eigenvalues --   -0.90788  -0.90472  -0.90227  -0.89796  -0.89429
 Alpha  occ. eigenvalues --   -0.89362  -0.88765  -0.88602  -0.88463  -0.86492
 Alpha  occ. eigenvalues --   -0.86400  -0.85969  -0.85541  -0.84656  -0.84411
 Alpha  occ. eigenvalues --   -0.84189  -0.83797  -0.83297  -0.83253  -0.82680
 Alpha  occ. eigenvalues --   -0.82634  -0.80611  -0.80430  -0.79878  -0.79667
 Alpha  occ. eigenvalues --   -0.79520  -0.79217  -0.78777  -0.77826  -0.77341
 Alpha  occ. eigenvalues --   -0.77014  -0.75110  -0.74685  -0.74023  -0.73774
 Alpha  occ. eigenvalues --   -0.71326  -0.71294  -0.70765  -0.70700  -0.70428
 Alpha  occ. eigenvalues --   -0.70162  -0.68886  -0.68757  -0.68019  -0.67542
 Alpha  occ. eigenvalues --   -0.67498  -0.67280  -0.66996  -0.66638  -0.66351
 Alpha  occ. eigenvalues --   -0.66151  -0.64671  -0.63444  -0.62486  -0.62459
 Alpha  occ. eigenvalues --   -0.62169  -0.61702  -0.61200  -0.60884  -0.60783
 Alpha  occ. eigenvalues --   -0.60577  -0.60264  -0.59955  -0.59873  -0.59214
 Alpha  occ. eigenvalues --   -0.58378  -0.58222  -0.57754  -0.57602  -0.57423
 Alpha  occ. eigenvalues --   -0.57332  -0.57172  -0.56704  -0.56470  -0.56052
 Alpha  occ. eigenvalues --   -0.55803  -0.55713  -0.55229  -0.55106  -0.55006
 Alpha  occ. eigenvalues --   -0.54781  -0.54612  -0.54487  -0.54429  -0.54306
 Alpha  occ. eigenvalues --   -0.54132  -0.54111  -0.53965  -0.53456  -0.53311
 Alpha  occ. eigenvalues --   -0.53256  -0.52929  -0.52713  -0.52470  -0.52265
 Alpha  occ. eigenvalues --   -0.52217  -0.52182  -0.51971  -0.51802  -0.51747
 Alpha  occ. eigenvalues --   -0.51370  -0.51326  -0.51170  -0.51055  -0.51017
 Alpha  occ. eigenvalues --   -0.50883  -0.50564  -0.50475  -0.50369  -0.50023
 Alpha  occ. eigenvalues --   -0.49967  -0.49821  -0.49519  -0.49470  -0.49330
 Alpha  occ. eigenvalues --   -0.49203  -0.49021  -0.48932  -0.48761  -0.48634
 Alpha  occ. eigenvalues --   -0.48460  -0.48424  -0.48379  -0.48188  -0.48073
 Alpha  occ. eigenvalues --   -0.47854  -0.47401  -0.47105  -0.46997  -0.46984
 Alpha  occ. eigenvalues --   -0.46799  -0.46713  -0.46609  -0.46269  -0.46244
 Alpha  occ. eigenvalues --   -0.46127  -0.46059  -0.45796  -0.45713  -0.45592
 Alpha  occ. eigenvalues --   -0.45444  -0.45295  -0.44900  -0.44762  -0.44631
 Alpha  occ. eigenvalues --   -0.44605  -0.44440  -0.44345  -0.43988  -0.43682
 Alpha  occ. eigenvalues --   -0.43655  -0.43578  -0.43483  -0.43264  -0.43077
 Alpha  occ. eigenvalues --   -0.42912  -0.42756  -0.42647  -0.42598  -0.42443
 Alpha  occ. eigenvalues --   -0.42350  -0.42017  -0.41983  -0.41453  -0.41102
 Alpha  occ. eigenvalues --   -0.40659  -0.40515  -0.40092  -0.39875  -0.39792
 Alpha  occ. eigenvalues --   -0.39424  -0.39264  -0.39138  -0.38963  -0.38825
 Alpha  occ. eigenvalues --   -0.38265  -0.38118  -0.36863  -0.36485  -0.36169
 Alpha  occ. eigenvalues --   -0.35999  -0.35801  -0.34993  -0.33933  -0.33131
 Alpha  occ. eigenvalues --   -0.33058  -0.32957  -0.32725  -0.32314  -0.32173
 Alpha  occ. eigenvalues --   -0.31958  -0.31721  -0.31149  -0.26430  -0.26091
 Alpha  occ. eigenvalues --   -0.23096  -0.22853
 Alpha virt. eigenvalues --   -0.07550  -0.07065  -0.00032   0.00087   0.02004
 Alpha virt. eigenvalues --    0.02780   0.04077   0.04953   0.05915   0.06484
 Alpha virt. eigenvalues --    0.07126   0.07253   0.07559   0.07674   0.07817

 Mulliken charges:
               1
     1  Mg   0.909118
     2  C    0.021056
     3  C   -0.089226
     4  C   -0.048726
     5  C   -0.135841
     6  N   -0.375753
     7  C   -0.026104
     8  C   -0.036270
     9  C   -0.115416
    10  C    0.039575
    11  C    0.011830
    12  C    0.005168
    13  C   -0.092233
    14  H    0.042119
    15  N   -0.388507
    16  C    0.166682
    17  C   -0.151834
    18  C   -0.070512
    19  C    0.105731
    20  C    0.063152
    21  C    0.054245
    22  O   -0.272947
    23  C   -0.023117
    24  N   -0.393646
    25  C    0.066710
    26  C   -0.095819
    27  C   -0.026367
    28  C    0.111160
    29  C    0.006485
    30  C   -0.008456
    31  C   -0.062702
    32  N   -0.525375
    33  C    0.185723
    34  C   -0.192710
    35  C   -0.054811
    36  C    0.132236
    37  C    0.074641
    38  C    0.150607
    39  O   -0.182970
    40  C   -0.106292
    41  C    0.224001
    42  O   -0.232612
    43  O   -0.357847
    44  C    0.141638
    45  H   -0.001535
    46  H    0.018034
    47  H   -0.016196
    48  H    0.020608
    49  H    0.037116
    50  H    0.037796
    51  H    0.046560
    52  H    0.040807
    53  H    0.037286
    54  H    0.042522
    55  H    0.045434
    56  H    0.060865
    57  H    0.074159
    58  H    0.038015
    59  H    0.034548
    60  H    0.068337
    61  H    0.059315
    62  H    0.050892
    63  H    0.055722
    64  H    0.035486
    65  H    0.072402
    66  H    0.035972
    67  H    0.039347
    68  H    0.033468
    69  H    0.028463
    70  H    0.043987
    71  H    0.022649
    72  H    0.037004
    73  H    0.026539
    74  H    0.060065
    75  H    0.068707
    76  H    0.069881
    77  H    0.071924
    78  H    0.055382
    79  H    0.041318
    80  Mg   0.967291
    81  C    0.026837
    82  C   -0.090662
    83  C   -0.069634
    84  C   -0.105699
    85  N   -0.332026
    86  C   -0.008064
    87  C   -0.043835
    88  C   -0.152158
    89  C    0.058608
    90  C    0.050272
    91  C    0.000483
    92  C   -0.115228
    93  H    0.028303
    94  N   -0.489079
    95  C    0.171464
    96  C   -0.177249
    97  C   -0.049053
    98  C    0.122263
    99  C    0.075756
   100  C    0.082741
   101  O   -0.229547
   102  C   -0.029296
   103  N   -0.423114
   104  C    0.060765
   105  C   -0.086929
   106  C   -0.052958
   107  C    0.047433
   108  C    0.042732
   109  C   -0.002638
   110  C   -0.068976
   111  N   -0.373664
   112  C    0.158974
   113  C   -0.167831
   114  C   -0.076414
   115  C    0.111927
   116  C    0.102657
   117  C    0.144878
   118  O   -0.193924
   119  C   -0.138524
   120  C    0.241142
   121  O   -0.255569
   122  O   -0.372172
   123  C    0.133608
   124  H   -0.017963
   125  H    0.030462
   126  H    0.001487
   127  H    0.034153
   128  H    0.023200
   129  H    0.035846
   130  H    0.043238
   131  H    0.037829
   132  H    0.035676
   133  H    0.061101
   134  H    0.042397
   135  H    0.060092
   136  H    0.033110
   137  H    0.046332
   138  H    0.059508
   139  H    0.080965
   140  H    0.086659
   141  H    0.059265
   142  H    0.038684
   143  H    0.031235
   144  H    0.041710
   145  H    0.048154
   146  H    0.027846
   147  H    0.036080
   148  H    0.035664
   149  H    0.039144
   150  H    0.045749
   151  H    0.018408
   152  H    0.034141
   153  H    0.072195
   154  H    0.044293
   155  H    0.067486
   156  H    0.062920
   157  H    0.081602
   158  H    0.058777
 Sum of Mulliken charges =  -0.00000

 Dipole moment (field-independent basis, Debye):
    X=             -4.0888    Y=              1.1573    Z=              2.2051  Tot=              4.7875
 Quadrupole moment (field-independent basis, Debye-Ang):
   XX=           -563.7180   YY=           -467.8899   ZZ=           -513.5069
   XY=             11.6916   XZ=            -29.8393   YZ=             36.8824

 Normal termination of Gaussian 16 at Mon Sep 20 00:41:20 2021.
