 Gaussian 16, Revision A.03,
 Gaussian 16:  ES64L-G16RevA.03 25-Dec-2016

 --------------------------------
 #p wB97XD/Def2SVP td=(nstates=5)
 --------------------------------

 --------------------------------
 TDDFT excited states in gaussian
 --------------------------------
 Symbolic Z-matrix:
 Charge =  0 Multiplicity = 1

                         Standard orientation:
 ---------------------------------------------------------------------
 Center     Atomic      Atomic             Coordinates (Angstroms)
 Number     Number       Type             X           Y           Z
 ---------------------------------------------------------------------
      1         12           0       20.572205   -0.850238    0.259891
      2          6           0       19.651818    1.960166   -1.906193
      3          6           0       20.957091    1.518560    2.812653
      4          6           0       21.740270   -3.233394    2.152976
      5          6           0       19.956817   -3.006091   -2.335398
      6          7           0       20.536282    1.458098    0.377794
      7          6           0       20.010362    2.414355   -0.588582
      8          6           0       20.018472    3.874563   -0.087638
      9          6           0       20.661351    3.638857    1.399524
     10          6           0       20.756637    2.111445    1.582546
     11          6           0       21.985519    4.346301    1.612622
     12          6           0       18.587902    4.488853   -0.162738
     13          6           0       18.407006    5.786384    0.566079
     14          1           0       17.643198    6.915615   -0.088981
     15          7           0       21.293664   -0.885219    2.237151
     16          6           0       21.369387    0.182952    3.138186
     17          6           0       21.868242   -0.294442    4.426566
     18          6           0       22.106622   -1.720389    4.262902
     19          6           0       21.717777   -2.042779    2.840240
     20          6           0       22.002138    0.584901    5.723607
     21          6           0       22.663263   -2.737767    5.192462
     22          8           0       22.785055   -3.928651    4.938079
     23          6           0       23.006510   -2.363929    6.574777
     24          7           0       20.724290   -2.792350   -0.001054
     25          6           0       21.353216   -3.583380    0.870165
     26          6           0       21.417569   -5.056026    0.401662
     27          6           0       20.473574   -5.024504   -0.782365
     28          6           0       20.412950   -3.486410   -1.129092
     29          6           0       22.825075   -5.509185    0.031387
     30          6           0       19.083805   -5.604958   -0.737209
     31          6           0       18.157714   -4.927622    0.250261
     32          7           0       20.035773   -0.618754   -1.739211
     33          6           0       19.723659   -1.639335   -2.655428
     34          6           0       19.315759   -1.038493   -3.901407
     35          6           0       19.224232    0.336402   -3.563993
     36          6           0       19.681612    0.558887   -2.251154
     37          6           0       18.876992   -1.713241   -5.168192
     38          6           0       18.779013    1.636846   -4.153682
     39          8           0       18.207595    1.892093   -5.235288
     40          6           0       19.084396    2.695394   -3.096260
     41          6           0       19.985334    3.781646   -3.687598
     42          8           0       21.171549    3.711522   -4.125610
     43          8           0       19.327080    4.966258   -3.536740
     44          6           0       20.066747    6.172379   -3.972656
     45          1           0       20.879105    2.219250    3.645394
     46          1           0       22.186939   -4.033828    2.746398
     47          1           0       19.767067   -3.629100   -3.212062
     48          1           0       20.621199    4.418799   -0.814647
     49          1           0       19.923754    3.923930    2.149741
     50          1           0       21.882726    5.023554    2.460963
     51          1           0       22.170075    4.927309    0.709732
     52          1           0       22.891389    3.741261    1.581604
     53          1           0       17.911034    3.684105    0.126286
     54          1           0       18.344102    4.667630   -1.210045
     55          1           0       19.310637    6.330331    0.840202
     56          1           0       17.806861    5.613320    1.458911
     57          1           0       21.317418    0.126894    6.437977
     58          1           0       21.708850    1.624155    5.575945
     59          1           0       23.043343    0.505069    6.036309
     60          1           0       23.538882   -1.416044    6.656141
     61          1           0       23.653910   -3.176074    6.903655
     62          1           0       22.038841   -2.172443    7.037513
     63          1           0       21.067846   -5.668879    1.232525
     64          1           0       20.875951   -5.562098   -1.641421
     65          1           0       22.968044   -6.524403    0.399710
     66          1           0       23.579056   -4.867188    0.485609
     67          1           0       22.912579   -5.620472   -1.049980
     68          1           0       19.176143   -6.679901   -0.579635
     69          1           0       18.553248   -5.419889   -1.671063
     70          1           0       17.601922   -5.647958    0.849399
     71          1           0       17.381623   -4.336809   -0.236795
     72          1           0       18.661539   -4.279171    0.967151
     73          1           0       17.910745   -1.315797   -5.477878
     74          1           0       18.772298   -2.797170   -5.214872
     75          1           0       19.615460   -1.462479   -5.929981
     76          1           0       18.151949    3.202580   -2.846821
     77          1           0       20.493350    6.675717   -3.105286
     78          1           0       19.257196    6.681449   -4.495721
     79          1           0       20.804083    5.952538   -4.745800
     80         12           0      -20.820594   -0.648346   -0.133102
     81          6           0      -18.850997    2.372340    0.291310
     82          6           0      -23.405115    1.151540    1.069208
     83          6           0      -22.519993   -3.333363   -0.457928
     84          6           0      -17.857890   -2.358734   -1.046245
     85          7           0      -21.072789    1.634621    0.593538
     86          6           0      -20.176921    2.636588    0.575204
     87          6           0      -20.864494    3.972415    0.916355
     88          6           0      -22.181860    3.360258    1.585937
     89          6           0      -22.261600    2.007455    1.013984
     90          6           0      -22.392515    3.559557    3.077538
     91          6           0      -21.057986    4.774593   -0.382101
     92          6           0      -21.136854    6.310524   -0.138528
     93          1           0      -20.749832    6.996387    1.252415
     94          7           0      -22.763660   -1.064226    0.210729
     95          6           0      -23.691383   -0.224962    0.797332
     96          6           0      -24.933136   -0.974358    0.962521
     97          6           0      -24.711889   -2.274827    0.445763
     98          6           0      -23.276201   -2.252967    0.046238
     99          6           0      -26.151487   -0.430875    1.565178
    100          6           0      -25.737287   -3.513567    0.272155
    101          8           0      -25.435292   -4.496895   -0.346931
    102          6           0      -27.230261   -3.376590    0.620746
    103          7           0      -20.186707   -2.634424   -0.419585
    104          6           0      -21.136297   -3.532998   -0.667245
    105          6           0      -20.623071   -4.861719   -1.153426
    106          6           0      -19.248087   -4.405731   -1.699848
    107          6           0      -19.042377   -3.098160   -0.860145
    108          6           0      -20.467218   -5.966611   -0.007544
    109          6           0      -19.150983   -4.205258   -3.270406
    110          6           0      -20.047108   -5.054400   -4.218268
    111          7           0      -18.773810   -0.187836   -0.240340
    112          6           0      -17.707766   -0.908586   -0.667918
    113          6           0      -16.566040   -0.121468   -0.794471
    114          6           0      -16.971154    1.116699   -0.384719
    115          6           0      -18.315082    1.078724   -0.069643
    116          6           0      -15.216148   -0.577392   -1.341542
    117          6           0      -16.455124    2.483545   -0.216855
    118          8           0      -15.328304    2.956083   -0.221761
    119          6           0      -17.733279    3.352434    0.160592
    120          6           0      -17.409681    4.104690    1.360165
    121          8           0      -17.389763    3.681206    2.520242
    122          8           0      -16.879202    5.277590    0.955539
    123          6           0      -16.169454    5.964028    2.020031
    124          1           0      -24.181800    1.681288    1.624849
    125          1           0      -23.122758   -4.241305   -0.518402
    126          1           0      -16.992621   -2.906449   -1.424936
    127          1           0      -20.328406    4.511905    1.697264
    128          1           0      -23.013100    3.917344    1.155899
    129          1           0      -23.236098    4.216085    3.288543
    130          1           0      -21.495883    3.981312    3.531320
    131          1           0      -22.534672    2.633302    3.634311
    132          1           0      -22.039544    4.514206   -0.778762
    133          1           0      -20.336925    4.535973   -1.163698
    134          1           0      -22.092809    6.722167   -0.463849
    135          1           0      -20.544716    6.694687   -0.969007
    136          1           0      -26.187447    0.656045    1.494737
    137          1           0      -26.123198   -0.759012    2.604370
    138          1           0      -27.072811   -0.782614    1.100394
    139          1           0      -27.768586   -2.674465   -0.015863
    140          1           0      -27.241826   -3.188869    1.694622
    141          1           0      -27.715435   -4.350848    0.555841
    142          1           0      -21.381183   -5.161261   -1.876663
    143          1           0      -18.438908   -5.089867   -1.445502
    144          1           0      -20.916376   -6.837624   -0.484169
    145          1           0      -21.007437   -5.741166    0.912604
    146          1           0      -19.444887   -6.227942    0.262992
    147          1           0      -18.108414   -4.306124   -3.568669
    148          1           0      -19.553488   -3.196602   -3.365403
    149          1           0      -21.015795   -4.574537   -4.355707
    150          1           0      -20.050456   -6.036494   -3.744137
    151          1           0      -19.582200   -5.215227   -5.190327
    152          1           0      -15.462815   -1.371653   -2.046502
    153          1           0      -14.578138   -1.034759   -0.585892
    154          1           0      -14.740136    0.274360   -1.827040
    155          1           0      -17.910092    4.019504   -0.684061
    156          1           0      -15.715821    6.902484    1.702532
    157          1           0      -15.499604    5.358242    2.630520
    158          1           0      -16.871136    6.319092    2.775584
 ---------------------------------------------------------------------

 SCF Done:  E(RwB97XD) =  -4070.59517759     A.U. after   19 cycles

 Excitation energies and oscillator strengths:

 Excited State   1:      Singlet-A      1.6109 eV  769.67 nm  f=0.3988  <S**2>=0.000
     309 -> 315       -0.17049
     311 -> 313        0.68653
     309 <- 315       -0.11383
 This state for optimization and/or second-order correction.
 Total Energy, E(TD-HF/TD-DFT) =  -4070.53597915
 Copying the excited state density for this state as the 1-particle RhoCI density.

 Excited State   2:      Singlet-A      1.7990 eV  689.19 nm  f=0.3720  <S**2>=0.000
     310 -> 316        0.19145
     312 -> 314        0.67946
     310 <- 316        0.11149

 Excited State   3:      Singlet-A      2.1162 eV  585.89 nm  f=0.1328  <S**2>=0.000
     309 -> 313        0.64978
     311 -> 315        0.25751

 Excited State   4:      Singlet-A      2.1925 eV  565.48 nm  f=0.1526  <S**2>=0.000
     310 -> 314        0.65250
     312 -> 316       -0.25642

 Excited State   5:      Singlet-A      3.2644 eV  379.81 nm  f=0.0056  <S**2>=0.000
     304 -> 313       -0.31788
     308 -> 313        0.60995

 The electronic state is 1-A.
 Alpha  occ. eigenvalues --  -46.95679 -46.94071 -19.30944 -19.30090 -19.25582
 Alpha  occ. eigenvalues --  -19.24569 -19.23847 -19.23820 -19.23685 -19.23453
 Alpha  occ. eigenvalues --  -14.47108 -14.46740 -14.46064 -14.45651 -14.44578
 Alpha  occ. eigenvalues --  -14.44553 -14.43390 -14.43193 -10.43785 -10.42017
 Alpha  occ. eigenvalues --  -10.41016 -10.38787 -10.38704 -10.38606 -10.35976
 Alpha  occ. eigenvalues --  -10.35605 -10.35538 -10.35479 -10.35412 -10.35118
 Alpha  occ. eigenvalues --  -10.34847 -10.34837 -10.34766 -10.34709 -10.34687
 Alpha  occ. eigenvalues --  -10.34561 -10.34247 -10.33644 -10.33556 -10.33551
 Alpha  occ. eigenvalues --  -10.33193 -10.33178 -10.32994 -10.32956 -10.32871
 Alpha  occ. eigenvalues --  -10.32842 -10.32701 -10.32585 -10.32567 -10.32557
 Alpha  occ. eigenvalues --  -10.32411 -10.32345 -10.32038 -10.31973 -10.31652
 Alpha  occ. eigenvalues --  -10.31624 -10.31579 -10.31527 -10.31526 -10.31439
 Alpha  occ. eigenvalues --  -10.31423 -10.31384 -10.31295 -10.31270 -10.31117
 Alpha  occ. eigenvalues --  -10.31040 -10.30973 -10.30957 -10.30749 -10.30503
 Alpha  occ. eigenvalues --  -10.30119 -10.30108 -10.29940 -10.29862 -10.29760
 Alpha  occ. eigenvalues --  -10.29756 -10.29703 -10.29519 -10.29453 -10.29447
 Alpha  occ. eigenvalues --  -10.29414 -10.29351 -10.29028 -10.28661 -10.28323
 Alpha  occ. eigenvalues --  -10.27671  -3.21633  -3.20227  -1.95223  -1.94774
 Alpha  occ. eigenvalues --   -1.94583  -1.93826  -1.93364  -1.93205  -1.18638
 Alpha  occ. eigenvalues --   -1.18142  -1.14877  -1.12617  -1.11631  -1.09955
 Alpha  occ. eigenvalues --   -1.08788  -1.07913  -1.07789  -1.07215  -1.07019
 Alpha  occ. eigenvalues --   -1.06716  -1.05408  -1.04770  -1.04320  -1.02577
 Alpha  occ. eigenvalues --   -0.94280  -0.94213  -0.91516  -0.91164  -0.90786
 Alpha  occ. eigenvalues --   -0.90599  -0.90521  -0.89942  -0.89493  -0.89228
 Alpha  occ. eigenvalues --   -0.88961  -0.88815  -0.87759  -0.87473  -0.86640
 Alpha  occ. eigenvalues --   -0.86284  -0.85893  -0.84989  -0.84824  -0.84249
 Alpha  occ. eigenvalues --   -0.84246  -0.83876  -0.83331  -0.82651  -0.82053
 Alpha  occ. eigenvalues --   -0.82007  -0.80616  -0.80493  -0.79151  -0.78721
 Alpha  occ. eigenvalues --   -0.78672  -0.78518  -0.77852  -0.77627  -0.77414
 Alpha  occ. eigenvalues --   -0.77186  -0.74700  -0.74700  -0.73884  -0.73620
 Alpha  occ. eigenvalues --   -0.72176  -0.71583  -0.71370  -0.70700  -0.69590
 Alpha  occ. eigenvalues --   -0.69560  -0.69132  -0.68805  -0.67383  -0.67034
 Alpha  occ. eigenvalues --   -0.67005  -0.66625  -0.66599  -0.66239  -0.65769
 Alpha  occ. eigenvalues --   -0.65649  -0.63878  -0.63765  -0.62863  -0.62214
 Alpha  occ. eigenvalues --   -0.61464  -0.61214  -0.61113  -0.61043  -0.60359
 Alpha  occ. eigenvalues --   -0.60256  -0.59842  -0.59636  -0.59461  -0.59354
 Alpha  occ. eigenvalues --   -0.58575  -0.58266  -0.57833  -0.57426  -0.57388
 Alpha  occ. eigenvalues --   -0.57185  -0.57133  -0.56679  -0.56510  -0.56196
 Alpha  occ. eigenvalues --   -0.55973  -0.55754  -0.55535  -0.55399  -0.55006
 Alpha  occ. eigenvalues --   -0.54938  -0.54843  -0.54667  -0.54362  -0.54169
 Alpha  occ. eigenvalues --   -0.54055  -0.53661  -0.53200  -0.53052  -0.53043
 Alpha  occ. eigenvalues --   -0.52764  -0.52668  -0.52623  -0.52397  -0.52259
 Alpha  occ. eigenvalues --   -0.52066  -0.51922  -0.51660  -0.51634  -0.51492
 Alpha  occ. eigenvalues --   -0.51050  -0.50870  -0.50713  -0.50688  -0.50686
 Alpha  occ. eigenvalues --   -0.50511  -0.50507  -0.50386  -0.50264  -0.49996
 Alpha  occ. eigenvalues --   -0.49784  -0.49629  -0.49505  -0.49408  -0.49304
 Alpha  occ. eigenvalues --   -0.48920  -0.48886  -0.48661  -0.48654  -0.48400
 Alpha  occ. eigenvalues --   -0.48147  -0.48054  -0.47895  -0.47665  -0.47550
 Alpha  occ. eigenvalues --   -0.47347  -0.47339  -0.46803  -0.46789  -0.46541
 Alpha  occ. eigenvalues --   -0.46439  -0.46428  -0.46233  -0.46210  -0.46072
 Alpha  occ. eigenvalues --   -0.45979  -0.45839  -0.45819  -0.45735  -0.45346
 Alpha  occ. eigenvalues --   -0.45244  -0.45171  -0.45121  -0.44885  -0.44575
 Alpha  occ. eigenvalues --   -0.44562  -0.44427  -0.44366  -0.44206  -0.44089
 Alpha  occ. eigenvalues --   -0.43974  -0.43811  -0.43687  -0.43336  -0.43210
 Alpha  occ. eigenvalues --   -0.43193  -0.42790  -0.42362  -0.42276  -0.41840
 Alpha  occ. eigenvalues --   -0.41617  -0.41216  -0.41116  -0.40962  -0.40759
 Alpha  occ. eigenvalues --   -0.40587  -0.40153  -0.39996  -0.39399  -0.39274
 Alpha  occ. eigenvalues --   -0.39105  -0.38754  -0.38645  -0.38441  -0.38070
 Alpha  occ. eigenvalues --   -0.37897  -0.37632  -0.36266  -0.36135  -0.36025
 Alpha  occ. eigenvalues --   -0.35653  -0.35263  -0.34680  -0.33951  -0.33734
 Alpha  occ. eigenvalues --   -0.33690  -0.33225  -0.32825  -0.32552  -0.32299
 Alpha  occ. eigenvalues --   -0.32255  -0.31579  -0.31256  -0.26145  -0.25295
 Alpha  occ. eigenvalues --   -0.23246  -0.23203
 Alpha virt. eigenvalues --   -0.07615  -0.06581   0.00292   0.00846   0.02408
 Alpha virt. eigenvalues --    0.02625   0.04335   0.04773   0.05579   0.06293
 Alpha virt. eigenvalues --    0.06722   0.06770   0.07732   0.07921   0.08650

 Mulliken charges:
               1
     1  Mg   0.975012
     2  C   -0.025758
     3  C   -0.091640
     4  C   -0.091482
     5  C   -0.077699
     6  N   -0.366201
     7  C   -0.005846
     8  C   -0.064759
     9  C   -0.111810
    10  C    0.088887
    11  C    0.051903
    12  C   -0.005943
    13  C   -0.128140
    14  H    0.029189
    15  N   -0.467338
    16  C    0.163141
    17  C   -0.170331
    18  C   -0.057448
    19  C    0.152390
    20  C    0.067166
    21  C    0.022012
    22  O   -0.243533
    23  C    0.001912
    24  N   -0.422454
    25  C    0.103959
    26  C   -0.088145
    27  C   -0.066056
    28  C    0.109719
    29  C    0.042986
    30  C    0.010200
    31  C   -0.067743
    32  N   -0.449725
    33  C    0.078880
    34  C   -0.151466
    35  C   -0.101713
    36  C    0.167267
    37  C    0.064804
    38  C    0.158605
    39  O   -0.236379
    40  C   -0.063642
    41  C    0.279055
    42  O   -0.286841
    43  O   -0.366273
    44  C    0.125398
    45  H   -0.007288
    46  H    0.021579
    47  H    0.001315
    48  H    0.051978
    49  H    0.035135
    50  H    0.045584
    51  H    0.021876
    52  H    0.048070
    53  H    0.034868
    54  H    0.058199
    55  H    0.052474
    56  H    0.055276
    57  H    0.061445
    58  H    0.044228
    59  H    0.067005
    60  H    0.027167
    61  H    0.066522
    62  H    0.059767
    63  H    0.041424
    64  H    0.013841
    65  H    0.035624
    66  H    0.048257
    67  H    0.036520
    68  H    0.035141
    69  H    0.029079
    70  H    0.029080
    71  H    0.034991
    72  H    0.040785
    73  H    0.061526
    74  H    0.026463
    75  H    0.055462
    76  H    0.079677
    77  H    0.065851
    78  H    0.060843
    79  H    0.076118
    80  Mg   0.962955
    81  C   -0.002571
    82  C   -0.069615
    83  C   -0.087040
    84  C   -0.078714
    85  N   -0.252462
    86  C   -0.062731
    87  C   -0.061825
    88  C   -0.089038
    89  C    0.000229
    90  C    0.039658
    91  C    0.010059
    92  C   -0.092272
    93  H    0.048489
    94  N   -0.472783
    95  C    0.161533
    96  C   -0.161871
    97  C   -0.088136
    98  C    0.121978
    99  C    0.059501
   100  C    0.076590
   101  O   -0.197388
   102  C   -0.024119
   103  N   -0.321402
   104  C    0.065054
   105  C   -0.102313
   106  C   -0.113803
   107  C    0.058340
   108  C    0.030246
   109  C   -0.010535
   110  C   -0.053034
   111  N   -0.409929
   112  C    0.090396
   113  C   -0.219036
   114  C   -0.051405
   115  C    0.154787
   116  C    0.095842
   117  C    0.138574
   118  O   -0.197779
   119  C   -0.092946
   120  C    0.252626
   121  O   -0.272164
   122  O   -0.331220
   123  C    0.153316
   124  H   -0.010577
   125  H    0.011918
   126  H    0.003419
   127  H    0.040463
   128  H    0.017728
   129  H    0.039837
   130  H    0.042811
   131  H    0.036610
   132  H    0.031803
   133  H    0.048046
   134  H    0.038524
   135  H    0.037356
   136  H    0.044154
   137  H    0.065919
   138  H    0.040914
   139  H    0.086398
   140  H    0.045194
   141  H    0.050809
   142  H    0.043771
   143  H    0.017535
   144  H    0.041944
   145  H    0.045885
   146  H    0.042516
   147  H    0.037421
   148  H    0.027791
   149  H    0.050460
   150  H    0.034841
   151  H    0.039917
   152  H    0.025466
   153  H    0.053042
   154  H    0.055830
   155  H    0.073341
   156  H    0.049843
   157  H    0.060886
   158  H    0.024143
 Sum of Mulliken charges =  -0.00000

 Dipole moment (field-independent basis, Debye):
    X=             -6.4190    Y=              1.5547    Z=              4.5270  Tot=              8.0071
 Quadrupole moment (field-independent basis, Debye-Ang):
   XX=           -265.9443   YY=           -465.8683   ZZ=           -518.3181
   XY=              9.3969   XZ=            109.7482   YZ=             31.1880

 Normal termination of Gaussian 16 at Sun Sep 19 02:14:09 2021.
