 Gaussian 16, Revision A.03,
 Gaussian 16:  ES64L-G16RevA.03 25-Dec-2016

 --------------------------------
 #p wB97XD/Def2SVP td=(nstates=5)
 --------------------------------

 --------------------------------
 TDDFT excited states in gaussian
 --------------------------------
 Symbolic Z-matrix:
 Charge =  0 Multiplicity = 1

                         Standard orientation:
 ---------------------------------------------------------------------
 Center     Atomic      Atomic             Coordinates (Angstroms)
 Number     Number       Type             X           Y           Z
 ---------------------------------------------------------------------
      1         12           0      -20.342423   -0.426089    0.143768
      2          6           0      -19.854256    2.748778   -1.201388
      3          6           0      -20.045518    0.894951    3.306291
      4          6           0      -20.552877   -3.600184    1.276544
      5          6           0      -20.233253   -1.730031   -3.181517
      6          7           0      -19.884395    1.559084    0.905868
      7          6           0      -19.750478    2.714943    0.200543
      8          6           0      -19.624095    3.927812    1.131489
      9          6           0      -19.547399    3.225886    2.558988
     10          6           0      -19.866873    1.767466    2.214272
     11          6           0      -18.168439    3.364621    3.192698
     12          6           0      -20.852646    4.905406    1.156335
     13          6           0      -20.582877    6.347491    1.499175
     14          1           0      -19.307711    6.718406    2.113261
     15          7           0      -20.393753   -1.205902    2.000802
     16          6           0      -20.243879   -0.476495    3.197247
     17          6           0      -20.512387   -1.400721    4.267644
     18          6           0      -20.716275   -2.698628    3.734587
     19          6           0      -20.554741   -2.550175    2.267222
     20          6           0      -20.343229   -1.046289    5.729546
     21          6           0      -21.058963   -3.973044    4.384905
     22          8           0      -21.007571   -5.044371    3.819237
     23          6           0      -21.359793   -4.023743    5.926800
     24          7           0      -20.563143   -2.444375   -0.807300
     25          6           0      -20.600789   -3.543678   -0.115330
     26          6           0      -20.648865   -4.797495   -1.039545
     27          6           0      -20.624593   -4.231985   -2.447941
     28          6           0      -20.407408   -2.697261   -2.191275
     29          6           0      -19.492060   -5.830259   -0.641528
     30          6           0      -21.885683   -4.584615   -3.264760
     31          6           0      -21.799505   -5.834526   -4.218273
     32          7           0      -20.362895    0.284834   -1.752540
     33          6           0      -20.315705   -0.350430   -3.018321
     34          6           0      -20.300182    0.597038   -4.066833
     35          6           0      -20.031001    1.841817   -3.353920
     36          6           0      -20.124253    1.546802   -1.963700
     37          6           0      -20.152272    0.288865   -5.545609
     38          6           0      -19.730856    3.201176   -3.615172
     39          8           0      -19.630792    3.836273   -4.657434
     40          6           0      -19.686157    3.906697   -2.104808
     41          6           0      -18.371324    4.627587   -2.049143
     42          8           0      -17.269791    4.085337   -2.187121
     43          8           0      -18.523704    6.042704   -1.953819
     44          6           0      -17.253197    6.831835   -1.905401
     45          1           0      -19.938918    1.381918    4.278607
     46          1           0      -20.429881   -4.591580    1.716700
     47          1           0      -20.245940   -2.069455   -4.219003
     48          1           0      -18.686317    4.416397    0.866058
     49          1           0      -20.252282    3.645248    3.276766
     50          1           0      -17.577105    4.128127    2.687969
     51          1           0      -17.640223    2.413623    3.266405
     52          1           0      -18.184387    3.806553    4.188988
     53          1           0      -21.584106    4.492435    1.850098
     54          1           0      -21.348284    4.801606    0.190857
     55          1           0      -21.310826    6.632142    2.258570
     56          1           0      -20.691074    6.952710    0.599081
     57          1           0      -19.519336   -1.576358    6.207263
     58          1           0      -21.291380   -1.237820    6.233708
     59          1           0      -20.099603   -0.006304    5.946157
     60          1           0      -20.386180   -4.046121    6.417056
     61          1           0      -21.800552   -4.985058    6.191171
     62          1           0      -21.894082   -3.130761    6.248884
     63          1           0      -21.609373   -5.247183   -0.787244
     64          1           0      -19.714357   -4.506694   -2.978731
     65          1           0      -18.857210   -6.044854   -1.501077
     66          1           0      -19.864421   -6.818350   -0.370394
     67          1           0      -18.922725   -5.313659    0.132282
     68          1           0      -22.102453   -3.706603   -3.874225
     69          1           0      -22.698466   -4.697006   -2.547072
     70          1           0      -21.377230   -5.497174   -5.165493
     71          1           0      -22.694527   -6.434058   -4.385496
     72          1           0      -21.009463   -6.400580   -3.725953
     73          1           0      -21.176291    0.087024   -5.858757
     74          1           0      -19.542559   -0.599093   -5.708346
     75          1           0      -19.563755    0.995264   -6.132465
     76          1           0      -20.548833    4.565954   -2.000871
     77          1           0      -16.675567    6.719130   -2.822160
     78          1           0      -16.560145    6.649827   -1.083596
     79          1           0      -17.679379    7.834842   -1.884371
     80         12           0       19.627328   -0.751897   -0.165432
     81          6           0       21.458709    2.197817   -0.288389
     82          6           0       17.178311    1.075853    1.475094
     83          6           0       18.045516   -3.704583    0.422580
     84          6           0       22.265210   -2.416300   -1.657824
     85          7           0       19.382715    1.383829    0.561243
     86          6           0       20.250054    2.448511    0.369435
     87          6           0       19.772931    3.790504    1.051550
     88          6           0       18.539034    3.249732    1.872976
     89          6           0       18.354622    1.791839    1.311383
     90          6           0       18.571145    3.194630    3.403152
     91          6           0       19.470576    4.867280   -0.006640
     92          6           0       20.447256    6.007687   -0.123788
     93          1           0       19.858132    7.397194   -0.425071
     94          7           0       17.782534   -1.268231    0.627516
     95          6           0       16.937126   -0.345460    1.159922
     96          6           0       15.766438   -1.111079    1.630784
     97          6           0       16.015969   -2.479425    1.442233
     98          6           0       17.276733   -2.563476    0.813543
     99          6           0       14.542049   -0.423573    2.081996
    100          6           0       15.194116   -3.674700    1.826700
    101          8           0       15.488335   -4.856921    1.495944
    102          6           0       14.015471   -3.606458    2.632060
    103          7           0       20.035701   -2.712057   -0.619144
    104          6           0       19.226737   -3.760408   -0.304370
    105          6           0       19.764835   -5.071019   -0.725559
    106          6           0       21.099102   -4.676705   -1.454993
    107          6           0       21.158169   -3.221765   -1.176647
    108          6           0       19.994698   -6.255689    0.258438
    109          6           0       21.201403   -5.123610   -2.996501
    110          6           0       20.609604   -4.283000   -4.166665
    111          7           0       21.500440   -0.295690   -0.816286
    112          6           0       22.448396   -1.058478   -1.435373
    113          6           0       23.481961   -0.248230   -1.913339
    114          6           0       23.143879    1.055425   -1.381396
    115          6           0       21.918505    0.963453   -0.751959
    116          6           0       24.666154   -0.652925   -2.789319
    117          6           0       23.571928    2.424190   -1.423165
    118          8           0       24.465615    3.021442   -1.987929
    119          6           0       22.573511    3.191891   -0.487525
    120          6           0       23.247140    3.554899    0.775055
    121          8           0       22.992687    3.098343    1.911305
    122          8           0       24.246631    4.453443    0.638312
    123          6           0       24.851372    5.084802    1.860594
    124          1           0       16.440652    1.641786    2.046722
    125          1           0       17.606677   -4.686472    0.612694
    126          1           0       23.057816   -2.834022   -2.282915
    127          1           0       20.417127    4.080434    1.882303
    128          1           0       17.690540    3.853764    1.551717
    129          1           0       18.612920    2.158951    3.741218
    130          1           0       17.583195    3.509378    3.736046
    131          1           0       19.367002    3.769271    3.878223
    132          1           0       18.527713    5.315215    0.309331
    133          1           0       19.287357    4.366131   -0.957103
    134          1           0       21.137619    5.763058   -0.931470
    135          1           0       21.105000    6.154107    0.733085
    136          1           0       13.773516   -0.734049    1.375314
    137          1           0       14.529995    0.664540    2.157056
    138          1           0       14.263953   -0.787081    3.071218
    139          1           0       14.267264   -2.930588    3.448890
    140          1           0       13.635563   -4.604146    2.848221
    141          1           0       13.221460   -3.061979    2.120929
    142          1           0       18.990930   -5.351785   -1.439346
    143          1           0       21.942671   -5.113047   -0.921410
    144          1           0       19.336968   -7.098408    0.045374
    145          1           0       19.772973   -5.963513    1.285434
    146          1           0       21.029361   -6.596764    0.291766
    147          1           0       20.641422   -6.059011   -2.996135
    148          1           0       22.271922   -5.313670   -3.075207
    149          1           0       20.255767   -3.288621   -3.895658
    150          1           0       19.897029   -4.796395   -4.812863
    151          1           0       21.452971   -4.170901   -4.846771
    152          1           0       25.620626   -0.403035   -2.324846
    153          1           0       24.615292   -0.059240   -3.701892
    154          1           0       24.653146   -1.692562   -3.117616
    155          1           0       22.382096    4.162090   -0.946296
    156          1           0       25.359969    5.900208    1.346066
    157          1           0       25.527435    4.443886    2.425560
    158          1           0       24.059293    5.420717    2.530544
 ---------------------------------------------------------------------

 SCF Done:  E(RwB97XD) =  -4070.64256523     A.U. after   19 cycles

 Excitation energies and oscillator strengths:

 Excited State   1:      Singlet-A      1.6445 eV  753.93 nm  f=0.3842  <S**2>=0.000
     310 -> 316       -0.18306
     312 -> 314        0.68258
     310 <- 316       -0.11719
 This state for optimization and/or second-order correction.
 Total Energy, E(TD-HF/TD-DFT) =  -4070.58213102
 Copying the excited state density for this state as the 1-particle RhoCI density.

 Excited State   2:      Singlet-A      1.6919 eV  732.79 nm  f=0.3738  <S**2>=0.000
     309 -> 315       -0.17801
     311 -> 313        0.68409
     309 <- 315       -0.11255

 Excited State   3:      Singlet-A      2.1515 eV  576.26 nm  f=0.1352  <S**2>=0.000
     310 -> 314        0.64867
     312 -> 316        0.26446

 Excited State   4:      Singlet-A      2.1734 eV  570.47 nm  f=0.1448  <S**2>=0.000
     309 -> 313        0.64711
     311 -> 315        0.26328

 Excited State   5:      Singlet-A      3.3480 eV  370.32 nm  f=0.0040  <S**2>=0.000
     304 -> 314       -0.19149
     308 -> 314        0.65688

 The electronic state is 1-A.
 Alpha  occ. eigenvalues --  -46.94365 -46.93871 -19.29383 -19.29256 -19.24398
 Alpha  occ. eigenvalues --  -19.24387 -19.23265 -19.23231 -19.23187 -19.22990
 Alpha  occ. eigenvalues --  -14.47308 -14.46600 -14.46442 -14.46268 -14.44880
 Alpha  occ. eigenvalues --  -14.44146 -14.43936 -14.42943 -10.42933 -10.42351
 Alpha  occ. eigenvalues --  -10.39538 -10.38461 -10.38328 -10.38178 -10.35906
 Alpha  occ. eigenvalues --  -10.35744 -10.35731 -10.35365 -10.34995 -10.34943
 Alpha  occ. eigenvalues --  -10.34893 -10.34861 -10.34787 -10.34694 -10.34662
 Alpha  occ. eigenvalues --  -10.34480 -10.34124 -10.34075 -10.33995 -10.32869
 Alpha  occ. eigenvalues --  -10.32837 -10.32812 -10.32530 -10.32504 -10.32422
 Alpha  occ. eigenvalues --  -10.32263 -10.32228 -10.32212 -10.32082 -10.32081
 Alpha  occ. eigenvalues --  -10.32024 -10.31894 -10.31876 -10.31865 -10.31856
 Alpha  occ. eigenvalues --  -10.31807 -10.31702 -10.31689 -10.31544 -10.31529
 Alpha  occ. eigenvalues --  -10.31411 -10.31345 -10.31320 -10.31114 -10.31080
 Alpha  occ. eigenvalues --  -10.30831 -10.30827 -10.30806 -10.30806 -10.30790
 Alpha  occ. eigenvalues --  -10.30767 -10.30487 -10.30307 -10.30302 -10.30186
 Alpha  occ. eigenvalues --  -10.29950 -10.29908 -10.29844 -10.29773 -10.29767
 Alpha  occ. eigenvalues --  -10.29704 -10.29627 -10.29524 -10.29507 -10.28647
 Alpha  occ. eigenvalues --  -10.28521  -3.20472  -3.19999  -1.94081  -1.93604
 Alpha  occ. eigenvalues --   -1.93595  -1.93462  -1.93133  -1.92978  -1.17280
 Alpha  occ. eigenvalues --   -1.15593  -1.13442  -1.11752  -1.10826  -1.10140
 Alpha  occ. eigenvalues --   -1.08027  -1.07250  -1.07229  -1.06873  -1.06108
 Alpha  occ. eigenvalues --   -1.05971  -1.05421  -1.05243  -1.04567  -1.04275
 Alpha  occ. eigenvalues --   -0.95061  -0.94057  -0.91243  -0.90878  -0.90866
 Alpha  occ. eigenvalues --   -0.90377  -0.90324  -0.90194  -0.89814  -0.89528
 Alpha  occ. eigenvalues --   -0.89429  -0.88922  -0.88215  -0.88037  -0.86272
 Alpha  occ. eigenvalues --   -0.86265  -0.85554  -0.84906  -0.84723  -0.84333
 Alpha  occ. eigenvalues --   -0.84167  -0.83472  -0.82917  -0.82487  -0.82358
 Alpha  occ. eigenvalues --   -0.82006  -0.80824  -0.80514  -0.79413  -0.79204
 Alpha  occ. eigenvalues --   -0.78793  -0.78767  -0.78123  -0.77820  -0.77223
 Alpha  occ. eigenvalues --   -0.77022  -0.75139  -0.75081  -0.73632  -0.73306
 Alpha  occ. eigenvalues --   -0.72013  -0.71590  -0.70930  -0.70715  -0.69975
 Alpha  occ. eigenvalues --   -0.69957  -0.69337  -0.69096  -0.67745  -0.67207
 Alpha  occ. eigenvalues --   -0.67125  -0.67010  -0.66989  -0.66640  -0.66615
 Alpha  occ. eigenvalues --   -0.66360  -0.63466  -0.63408  -0.62454  -0.61948
 Alpha  occ. eigenvalues --   -0.61627  -0.61599  -0.61355  -0.61135  -0.60580
 Alpha  occ. eigenvalues --   -0.60565  -0.59766  -0.59716  -0.59336  -0.59281
 Alpha  occ. eigenvalues --   -0.58308  -0.58142  -0.57548  -0.57026  -0.56864
 Alpha  occ. eigenvalues --   -0.56590  -0.56335  -0.55979  -0.55762  -0.55405
 Alpha  occ. eigenvalues --   -0.55180  -0.55176  -0.54914  -0.54831  -0.54463
 Alpha  occ. eigenvalues --   -0.54443  -0.54369  -0.54303  -0.54251  -0.53976
 Alpha  occ. eigenvalues --   -0.53953  -0.53800  -0.53513  -0.52996  -0.52925
 Alpha  occ. eigenvalues --   -0.52785  -0.52534  -0.52284  -0.52163  -0.52082
 Alpha  occ. eigenvalues --   -0.51795  -0.51707  -0.51669  -0.51559  -0.51515
 Alpha  occ. eigenvalues --   -0.51358  -0.51232  -0.51032  -0.50901  -0.50707
 Alpha  occ. eigenvalues --   -0.50604  -0.50350  -0.50329  -0.50084  -0.50082
 Alpha  occ. eigenvalues --   -0.49824  -0.49696  -0.49624  -0.49446  -0.49226
 Alpha  occ. eigenvalues --   -0.49164  -0.49093  -0.48868  -0.48686  -0.48639
 Alpha  occ. eigenvalues --   -0.48451  -0.48153  -0.47912  -0.47775  -0.47600
 Alpha  occ. eigenvalues --   -0.47296  -0.47174  -0.47079  -0.47061  -0.46963
 Alpha  occ. eigenvalues --   -0.46692  -0.46680  -0.46525  -0.46252  -0.46166
 Alpha  occ. eigenvalues --   -0.46107  -0.45889  -0.45840  -0.45811  -0.45690
 Alpha  occ. eigenvalues --   -0.45342  -0.45308  -0.44972  -0.44846  -0.44829
 Alpha  occ. eigenvalues --   -0.44681  -0.44592  -0.44530  -0.44386  -0.43952
 Alpha  occ. eigenvalues --   -0.43786  -0.43512  -0.43483  -0.43402  -0.43210
 Alpha  occ. eigenvalues --   -0.43024  -0.42711  -0.42680  -0.42227  -0.42202
 Alpha  occ. eigenvalues --   -0.42000  -0.41803  -0.41583  -0.41350  -0.40819
 Alpha  occ. eigenvalues --   -0.40571  -0.40125  -0.39832  -0.39800  -0.39273
 Alpha  occ. eigenvalues --   -0.38991  -0.38839  -0.38531  -0.38380  -0.38130
 Alpha  occ. eigenvalues --   -0.37799  -0.37600  -0.36480  -0.36296  -0.35937
 Alpha  occ. eigenvalues --   -0.35577  -0.35440  -0.34750  -0.33875  -0.33206
 Alpha  occ. eigenvalues --   -0.33186  -0.32775  -0.32538  -0.32149  -0.31919
 Alpha  occ. eigenvalues --   -0.31773  -0.31620  -0.31479  -0.26168  -0.25545
 Alpha  occ. eigenvalues --   -0.23413  -0.22908
 Alpha virt. eigenvalues --   -0.07442  -0.07037   0.00228   0.00619   0.02216
 Alpha virt. eigenvalues --    0.02759   0.04464   0.04468   0.06641   0.06816
 Alpha virt. eigenvalues --    0.06870   0.07499   0.07863   0.08095   0.08427

 Mulliken charges:
               1
     1  Mg   0.981192
     2  C   -0.071263
     3  C   -0.108042
     4  C   -0.077248
     5  C   -0.077010
     6  N   -0.334147
     7  C    0.003380
     8  C   -0.040014
     9  C   -0.140310
    10  C    0.072959
    11  C    0.018715
    12  C    0.018246
    13  C   -0.105789
    14  H    0.036482
    15  N   -0.531737
    16  C    0.234347
    17  C   -0.151150
    18  C   -0.045573
    19  C    0.152435
    20  C    0.052121
    21  C    0.017233
    22  O   -0.224847
    23  C   -0.005417
    24  N   -0.320979
    25  C    0.055778
    26  C   -0.094093
    27  C   -0.043744
    28  C    0.027536
    29  C    0.014736
    30  C   -0.005386
    31  C   -0.042800
    32  N   -0.449258
    33  C    0.124990
    34  C   -0.138734
    35  C   -0.084736
    36  C    0.187872
    37  C    0.059630
    38  C    0.113481
    39  O   -0.211588
    40  C   -0.083673
    41  C    0.288657
    42  O   -0.260500
    43  O   -0.404762
    44  C    0.141026
    45  H    0.004083
    46  H    0.032134
    47  H    0.000489
    48  H    0.043782
    49  H    0.038832
    50  H    0.033301
    51  H    0.049244
    52  H    0.023043
    53  H    0.024376
    54  H    0.025378
    55  H    0.048844
    56  H    0.067393
    57  H    0.063436
    58  H    0.049928
    59  H    0.030806
    60  H    0.053348
    61  H    0.056049
    62  H    0.038252
    63  H    0.048315
    64  H    0.027358
    65  H    0.030055
    66  H    0.045695
    67  H    0.051178
    68  H    0.026156
    69  H    0.026680
    70  H    0.037035
    71  H    0.054604
    72  H    0.027402
    73  H    0.054163
    74  H    0.037468
    75  H    0.064156
    76  H    0.072258
    77  H    0.058583
    78  H    0.054386
    79  H    0.053777
    80  Mg   0.984073
    81  C   -0.026444
    82  C   -0.064924
    83  C   -0.072248
    84  C   -0.099228
    85  N   -0.335724
    86  C   -0.019266
    87  C   -0.045864
    88  C   -0.130753
    89  C    0.025579
    90  C    0.037451
    91  C    0.055277
    92  C   -0.144178
    93  H    0.038430
    94  N   -0.481588
    95  C    0.183273
    96  C   -0.191668
    97  C   -0.022523
    98  C    0.131640
    99  C    0.056923
   100  C    0.038511
   101  O   -0.281115
   102  C    0.024502
   103  N   -0.375191
   104  C    0.076373
   105  C   -0.094240
   106  C   -0.055014
   107  C    0.063496
   108  C    0.027620
   109  C   -0.032317
   110  C   -0.043685
   111  N   -0.452837
   112  C    0.130564
   113  C   -0.169501
   114  C   -0.056353
   115  C    0.215871
   116  C    0.092246
   117  C    0.091533
   118  O   -0.190070
   119  C   -0.123647
   120  C    0.263012
   121  O   -0.290756
   122  O   -0.356949
   123  C    0.146679
   124  H   -0.009055
   125  H    0.021557
   126  H   -0.013513
   127  H    0.038416
   128  H    0.026777
   129  H    0.047584
   130  H    0.032113
   131  H    0.052261
   132  H    0.035809
   133  H    0.047043
   134  H    0.065160
   135  H    0.052650
   136  H    0.057313
   137  H    0.043333
   138  H    0.035623
   139  H    0.042626
   140  H    0.066626
   141  H    0.043769
   142  H    0.047320
   143  H    0.036176
   144  H    0.044664
   145  H    0.039192
   146  H    0.036219
   147  H    0.035243
   148  H    0.040150
   149  H    0.056351
   150  H    0.040442
   151  H    0.028978
   152  H    0.060703
   153  H    0.053791
   154  H    0.024492
   155  H    0.056519
   156  H    0.066029
   157  H    0.067006
   158  H    0.053662
 Sum of Mulliken charges =  -0.00000

 Dipole moment (field-independent basis, Debye):
    X=             -3.9493    Y=             -0.3212    Z=              6.5802  Tot=              7.6811
 Quadrupole moment (field-independent basis, Debye-Ang):
   XX=           -569.4325   YY=           -495.5714   ZZ=           -493.6664
   XY=             -1.6153   XZ=            -91.9103   YZ=             59.8486

 Normal termination of Gaussian 16 at Mon Sep 20 08:53:39 2021.
