 Gaussian 16, Revision A.03,
 Gaussian 16:  ES64L-G16RevA.03 25-Dec-2016

 --------------------------------
 #p wB97XD/Def2SVP td=(nstates=5)
 --------------------------------

 --------------------------------
 TDDFT excited states in gaussian
 --------------------------------
 Symbolic Z-matrix:
 Charge =  0 Multiplicity = 1

                         Standard orientation:
 ---------------------------------------------------------------------
 Center     Atomic      Atomic             Coordinates (Angstroms)
 Number     Number       Type             X           Y           Z
 ---------------------------------------------------------------------
      1         12           0       30.679819    0.430789   -0.357527
      2          6           0       27.806329   -1.584296   -0.538319
      3          6           0       28.660645    3.204075   -0.589846
      4          6           0       33.304472    2.217428    0.572350
      5          6           0       32.619993   -2.503427    0.136383
      6          7           0       28.496329    0.757634   -0.285109
      7          6           0       27.475029   -0.223780   -0.368027
      8          6           0       26.166779    0.342060   -0.739960
      9          6           0       26.491153    1.894328   -0.849716
     10          6           0       27.988171    1.973015   -0.595108
     11          6           0       25.967676    2.519252   -2.165566
     12          6           0       25.097265    0.181638    0.297022
     13          6           0       25.532411    0.309593    1.764481
     14          1           0       24.591462    0.968442    2.846942
     15          7           0       30.994026    2.464951   -0.073140
     16          6           0       30.072973    3.409924   -0.342120
     17          6           0       30.698982    4.702864   -0.222203
     18          6           0       32.068987    4.457375    0.042127
     19          6           0       32.204805    2.997266    0.167364
     20          6           0       30.004013    6.033748   -0.327228
     21          6           0       33.156197    5.523429    0.174453
     22          8           0       32.892368    6.704964    0.065677
     23          6           0       34.593529    5.317839    0.551202
     24          7           0       32.590861   -0.061746    0.508714
     25          6           0       33.547281    0.883801    0.766703
     26          6           0       34.952679    0.232413    0.983595
     27          6           0       34.591426   -1.276189    1.136074
     28          6           0       33.198390   -1.295755    0.545928
     29          6           0       35.967252    0.439899   -0.166755
     30          6           0       34.400869   -1.805976    2.635214
     31          6           0       35.065821   -3.088318    2.983188
     32          7           0       30.380752   -1.569194   -0.321942
     33          6           0       31.261977   -2.578351   -0.305762
     34          6           0       30.609755   -3.844736   -0.811483
     35          6           0       29.245225   -3.437505   -0.955237
     36          6           0       29.134722   -2.091024   -0.506406
     37          6           0       31.195733   -5.226126   -1.065763
     38          6           0       27.931680   -3.954231   -1.210783
     39          8           0       27.560859   -5.086078   -1.479035
     40          6           0       26.943742   -2.741324   -0.975162
     41          6           0       26.101874   -3.087650    0.235390
     42          8           0       26.456038   -3.174591    1.364548
     43          8           0       24.789126   -3.182118   -0.175088
     44          6           0       23.827647   -3.228094    0.931152
     45          1           0       28.043452    4.062957   -0.860900
     46          1           0       34.223422    2.790086    0.708266
     47          1           0       33.306178   -3.352512    0.161581
     48          1           0       25.849247   -0.141694   -1.663672
     49          1           0       26.146031    2.514978   -0.022866
     50          1           0       25.465289    3.404557   -1.775362
     51          1           0       25.296770    1.789213   -2.618510
     52          1           0       26.767254    2.849368   -2.829040
     53          1           0       24.450125   -0.680801    0.135120
     54          1           0       24.303625    0.927807    0.252842
     55          1           0       26.481956    0.844545    1.726500
     56          1           0       25.772028   -0.723028    2.018816
     57          1           0       30.308055    6.699151    0.481474
     58          1           0       28.925389    5.884773   -0.375492
     59          1           0       30.355257    6.439091   -1.276438
     60          1           0       34.765617    4.960043    1.565813
     61          1           0       34.948891    6.347982    0.580347
     62          1           0       35.185729    4.864937   -0.244676
     63          1           0       35.381894    0.665872    1.886826
     64          1           0       35.254230   -1.939048    0.579226
     65          1           0       36.147190   -0.521855   -0.646785
     66          1           0       36.818041    1.044154    0.147677
     67          1           0       35.501245    1.063569   -0.928787
     68          1           0       33.344921   -1.866395    2.897688
     69          1           0       34.827741   -1.009987    3.245603
     70          1           0       35.735785   -3.002839    3.838473
     71          1           0       35.612651   -3.534931    2.152438
     72          1           0       34.345844   -3.846681    3.289599
     73          1           0       30.636816   -5.917171   -0.434734
     74          1           0       32.277903   -5.153727   -0.950495
     75          1           0       30.910585   -5.477609   -2.087225
     76          1           0       26.327822   -2.533241   -1.849773
     77          1           0       24.170172   -2.692287    1.816307
     78          1           0       23.737915   -4.293676    1.142534
     79          1           0       22.868875   -2.941545    0.499861
     80         12           0      -30.528349    0.355527    0.403179
     81          6           0      -28.259161   -1.683585   -1.325281
     82          6           0      -30.825953    2.267328   -2.444742
     83          6           0      -32.637450    2.277910    2.060834
     84          6           0      -29.976006   -1.616946    3.257468
     85          7           0      -29.684902    0.197500   -1.639136
     86          6           0      -28.750111   -0.697644   -2.159613
     87          6           0      -28.634717   -0.635084   -3.733282
     88          6           0      -29.331409    0.692093   -3.963339
     89          6           0      -30.013164    1.097447   -2.591609
     90          6           0      -28.270916    1.834111   -4.313210
     91          6           0      -29.545600   -1.842010   -4.234922
     92          6           0      -28.992241   -2.712448   -5.447452
     93          1           0      -28.191701   -1.836513   -6.376935
     94          7           0      -31.437577    2.073845   -0.072884
     95          6           0      -31.450754    2.708101   -1.241922
     96          6           0      -32.292669    3.875024   -1.229810
     97          6           0      -32.978904    3.816312   -0.000658
     98          6           0      -32.309560    2.702958    0.771851
     99          6           0      -32.447318    4.854842   -2.334684
    100          6           0      -34.189517    4.585145    0.487175
    101          8           0      -34.837998    4.253073    1.485975
    102          6           0      -34.591429    5.892739   -0.200763
    103          7           0      -31.167686    0.341604    2.426346
    104          6           0      -32.128398    1.254442    2.792697
    105          6           0      -32.608882    0.910294    4.200911
    106          6           0      -31.831465   -0.445447    4.570907
    107          6           0      -30.975106   -0.651537    3.349221
    108          6           0      -32.411601    2.146460    5.147801
    109          6           0      -32.683689   -1.645633    4.952584
    110          6           0      -32.273754   -2.302111    6.308004
    111          7           0      -29.345898   -1.288747    0.880721
    112          6           0      -29.205362   -1.990315    2.119142
    113          6           0      -28.250793   -3.032794    1.990618
    114          6           0      -27.865989   -2.934571    0.642839
    115          6           0      -28.524659   -1.835653    0.053282
    116          6           0      -27.774359   -4.047825    2.979132
    117          6           0      -27.048184   -3.506997   -0.378184
    118          8           0      -26.253711   -4.417795   -0.379801
    119          6           0      -27.370530   -2.772032   -1.709985
    120          6           0      -26.095482   -2.399312   -2.375034
    121          8           0      -25.292222   -1.538336   -2.027290
    122          8           0      -26.002281   -3.147673   -3.478512
    123          6           0      -24.869172   -2.900135   -4.345199
    124          1           0      -31.117184    2.872326   -3.305762
    125          1           0      -33.334099    2.959036    2.555983
    126          1           0      -29.820699   -2.293252    4.100721
    127          1           0      -27.582826   -0.825627   -3.943911
    128          1           0      -30.097037    0.587144   -4.731312
    129          1           0      -27.244427    1.467251   -4.298280
    130          1           0      -28.373473    2.632047   -3.578016
    131          1           0      -28.573648    2.179729   -5.301705
    132          1           0      -30.533367   -1.526170   -4.569268
    133          1           0      -29.721602   -2.469907   -3.361107
    134          1           0      -29.807311   -3.014445   -6.105249
    135          1           0      -28.596573   -3.669198   -5.105621
    136          1           0      -33.461759    4.732649   -2.716699
    137          1           0      -31.758760    4.645559   -3.152150
    138          1           0      -32.305912    5.888269   -2.019645
    139          1           0      -35.203303    6.330389    0.587681
    140          1           0      -35.123091    5.752922   -1.142719
    141          1           0      -33.809686    6.635449   -0.358880
    142          1           0      -33.673399    0.697050    4.297600
    143          1           0      -31.159968   -0.237228    5.403976
    144          1           0      -33.342023    2.237280    5.708421
    145          1           0      -32.146394    3.066316    4.626524
    146          1           0      -31.743243    1.907228    5.975785
    147          1           0      -32.715851   -2.430803    4.197873
    148          1           0      -33.657724   -1.211348    5.182266
    149          1           0      -31.511077   -1.706430    6.809854
    150          1           0      -31.737362   -3.238475    6.155702
    151          1           0      -33.132149   -2.411776    6.971070
    152          1           0      -28.629992   -4.722597    3.017085
    153          1           0      -27.526955   -3.501773    3.889207
    154          1           0      -26.929040   -4.626273    2.609056
    155          1           0      -27.803923   -3.560356   -2.326910
    156          1           0      -23.942464   -2.967910   -3.774671
    157          1           0      -24.803702   -1.910214   -4.797979
    158          1           0      -24.897168   -3.678887   -5.107555
 ---------------------------------------------------------------------

 SCF Done:  E(RwB97XD) =  -4070.62622293     A.U. after   19 cycles

 Excitation energies and oscillator strengths:

 Excited State   1:      Singlet-A      1.6067 eV  771.69 nm  f=0.3720  <S**2>=0.000
     309 -> 315        0.17859
     312 -> 313        0.68544
     309 <- 315        0.11728
 This state for optimization and/or second-order correction.
 Total Energy, E(TD-HF/TD-DFT) =  -4070.56717937
 Copying the excited state density for this state as the 1-particle RhoCI density.

 Excited State   2:      Singlet-A      1.6810 eV  737.57 nm  f=0.3829  <S**2>=0.000
     310 -> 316       -0.16572
     311 -> 314        0.68558
     310 <- 316       -0.10525

 Excited State   3:      Singlet-A      2.2111 eV  560.73 nm  f=0.0985  <S**2>=0.000
     309 -> 313        0.62754
     312 -> 315       -0.31205

 Excited State   4:      Singlet-A      2.2342 eV  554.94 nm  f=0.1200  <S**2>=0.000
     310 -> 314        0.63518
     311 -> 316        0.28430

 Excited State   5:      Singlet-A      3.4112 eV  363.46 nm  f=0.0005  <S**2>=0.000
     301 -> 313        0.11538
     305 -> 313       -0.17731
     306 -> 313        0.64846

 The electronic state is 1-A.
 Alpha  occ. eigenvalues --  -46.94926 -46.94106 -19.30435 -19.29829 -19.25322
 Alpha  occ. eigenvalues --  -19.25007 -19.24170 -19.23716 -19.23238 -19.22370
 Alpha  occ. eigenvalues --  -14.46981 -14.46844 -14.46476 -14.46217 -14.44849
 Alpha  occ. eigenvalues --  -14.44165 -14.44099 -14.43020 -10.43068 -10.42130
 Alpha  occ. eigenvalues --  -10.40268 -10.38995 -10.38552 -10.37088 -10.35994
 Alpha  occ. eigenvalues --  -10.35231 -10.35186 -10.35140 -10.35077 -10.34960
 Alpha  occ. eigenvalues --  -10.34823 -10.34738 -10.34737 -10.34643 -10.34589
 Alpha  occ. eigenvalues --  -10.34496 -10.34451 -10.34047 -10.33982 -10.33312
 Alpha  occ. eigenvalues --  -10.33284 -10.32960 -10.32857 -10.32852 -10.32549
 Alpha  occ. eigenvalues --  -10.32540 -10.32497 -10.32444 -10.32387 -10.32279
 Alpha  occ. eigenvalues --  -10.32166 -10.32160 -10.32093 -10.31869 -10.31864
 Alpha  occ. eigenvalues --  -10.31814 -10.31626 -10.31600 -10.31509 -10.31419
 Alpha  occ. eigenvalues --  -10.31116 -10.31094 -10.31089 -10.31057 -10.30845
 Alpha  occ. eigenvalues --  -10.30679 -10.30587 -10.30547 -10.30528 -10.30479
 Alpha  occ. eigenvalues --  -10.30410 -10.30353 -10.30290 -10.30152 -10.30129
 Alpha  occ. eigenvalues --  -10.29945 -10.29943 -10.29901 -10.29608 -10.29581
 Alpha  occ. eigenvalues --  -10.29423 -10.29354 -10.29229 -10.29170 -10.29144
 Alpha  occ. eigenvalues --  -10.27534  -3.20996  -3.20224  -1.94549  -1.94126
 Alpha  occ. eigenvalues --   -1.93985  -1.93831  -1.93334  -1.93228  -1.19394
 Alpha  occ. eigenvalues --   -1.19255  -1.12622  -1.12598  -1.12179  -1.11526
 Alpha  occ. eigenvalues --   -1.11145  -1.09237  -1.07074  -1.06579  -1.06021
 Alpha  occ. eigenvalues --   -1.05891  -1.05317  -1.04908  -1.04638  -1.04348
 Alpha  occ. eigenvalues --   -0.95146  -0.94586  -0.91730  -0.91606  -0.91299
 Alpha  occ. eigenvalues --   -0.90407  -0.90285  -0.90281  -0.89887  -0.89437
 Alpha  occ. eigenvalues --   -0.88931  -0.88576  -0.88271  -0.87742  -0.86634
 Alpha  occ. eigenvalues --   -0.86040  -0.85868  -0.85413  -0.84618  -0.84251
 Alpha  occ. eigenvalues --   -0.83763  -0.83588  -0.83203  -0.82805  -0.82454
 Alpha  occ. eigenvalues --   -0.82308  -0.80905  -0.79871  -0.79428  -0.79327
 Alpha  occ. eigenvalues --   -0.78766  -0.78665  -0.77966  -0.77495  -0.77081
 Alpha  occ. eigenvalues --   -0.76904  -0.75076  -0.74679  -0.73641  -0.73380
 Alpha  occ. eigenvalues --   -0.71544  -0.71164  -0.70798  -0.70781  -0.70559
 Alpha  occ. eigenvalues --   -0.69601  -0.69322  -0.69077  -0.67778  -0.67362
 Alpha  occ. eigenvalues --   -0.67156  -0.67061  -0.66987  -0.66508  -0.66477
 Alpha  occ. eigenvalues --   -0.66355  -0.64419  -0.64084  -0.62821  -0.61964
 Alpha  occ. eigenvalues --   -0.61529  -0.61413  -0.61141  -0.60993  -0.60912
 Alpha  occ. eigenvalues --   -0.60594  -0.60092  -0.59698  -0.59384  -0.59270
 Alpha  occ. eigenvalues --   -0.58657  -0.58523  -0.58004  -0.57564  -0.57349
 Alpha  occ. eigenvalues --   -0.57294  -0.57041  -0.56548  -0.56349  -0.56011
 Alpha  occ. eigenvalues --   -0.55741  -0.55489  -0.55143  -0.54978  -0.54791
 Alpha  occ. eigenvalues --   -0.54544  -0.54469  -0.54287  -0.54196  -0.54049
 Alpha  occ. eigenvalues --   -0.54006  -0.53667  -0.53518  -0.53328  -0.53208
 Alpha  occ. eigenvalues --   -0.53064  -0.53015  -0.52859  -0.52681  -0.52331
 Alpha  occ. eigenvalues --   -0.52211  -0.52086  -0.51942  -0.51538  -0.51536
 Alpha  occ. eigenvalues --   -0.51324  -0.51200  -0.51193  -0.50832  -0.50675
 Alpha  occ. eigenvalues --   -0.50603  -0.50538  -0.50481  -0.50434  -0.50271
 Alpha  occ. eigenvalues --   -0.49797  -0.49551  -0.49451  -0.49450  -0.49116
 Alpha  occ. eigenvalues --   -0.49090  -0.49031  -0.48811  -0.48724  -0.48638
 Alpha  occ. eigenvalues --   -0.48450  -0.48302  -0.48297  -0.47996  -0.47935
 Alpha  occ. eigenvalues --   -0.47810  -0.47411  -0.47202  -0.47154  -0.46924
 Alpha  occ. eigenvalues --   -0.46615  -0.46589  -0.46470  -0.46378  -0.46283
 Alpha  occ. eigenvalues --   -0.46223  -0.46010  -0.45822  -0.45655  -0.45589
 Alpha  occ. eigenvalues --   -0.45522  -0.45137  -0.44975  -0.44891  -0.44683
 Alpha  occ. eigenvalues --   -0.44531  -0.44508  -0.44367  -0.44265  -0.44099
 Alpha  occ. eigenvalues --   -0.44068  -0.43849  -0.43777  -0.43536  -0.43044
 Alpha  occ. eigenvalues --   -0.43010  -0.42691  -0.42660  -0.42293  -0.42282
 Alpha  occ. eigenvalues --   -0.41969  -0.41750  -0.41613  -0.41019  -0.40714
 Alpha  occ. eigenvalues --   -0.40395  -0.40183  -0.39796  -0.39604  -0.39358
 Alpha  occ. eigenvalues --   -0.39300  -0.39061  -0.38878  -0.38460  -0.38441
 Alpha  occ. eigenvalues --   -0.38313  -0.37696  -0.37034  -0.36215  -0.36202
 Alpha  occ. eigenvalues --   -0.35866  -0.35284  -0.34954  -0.34302  -0.33568
 Alpha  occ. eigenvalues --   -0.33564  -0.33110  -0.33105  -0.32452  -0.32058
 Alpha  occ. eigenvalues --   -0.31811  -0.31667  -0.31295  -0.26214  -0.26042
 Alpha  occ. eigenvalues --   -0.22867  -0.22837
 Alpha virt. eigenvalues --   -0.07106  -0.06917   0.00142   0.00241   0.02312
 Alpha virt. eigenvalues --    0.02545   0.04506   0.04666   0.04974   0.06466
 Alpha virt. eigenvalues --    0.07593   0.07788   0.08125   0.08170   0.08444

 Mulliken charges:
               1
     1  Mg   0.971410
     2  C   -0.073634
     3  C   -0.088618
     4  C   -0.070254
     5  C   -0.087593
     6  N   -0.366489
     7  C    0.021445
     8  C   -0.041450
     9  C   -0.131900
    10  C    0.060055
    11  C    0.036732
    12  C   -0.026094
    13  C   -0.106245
    14  H    0.042098
    15  N   -0.438638
    16  C    0.155064
    17  C   -0.199062
    18  C   -0.050457
    19  C    0.165496
    20  C    0.110639
    21  C    0.017497
    22  O   -0.237359
    23  C   -0.009464
    24  N   -0.357142
    25  C    0.045705
    26  C   -0.080072
    27  C   -0.111529
    28  C    0.037535
    29  C    0.042917
    30  C    0.014707
    31  C   -0.045856
    32  N   -0.434689
    33  C    0.147822
    34  C   -0.205227
    35  C   -0.044319
    36  C    0.163239
    37  C    0.102101
    38  C    0.124285
    39  O   -0.206569
    40  C   -0.072791
    41  C    0.257796
    42  O   -0.210080
    43  O   -0.374933
    44  C    0.128924
    45  H   -0.001806
    46  H   -0.030312
    47  H    0.001592
    48  H    0.040557
    49  H    0.052537
    50  H    0.037921
    51  H    0.045552
    52  H    0.046123
    53  H    0.018127
    54  H    0.023469
    55  H    0.051735
    56  H    0.057199
    57  H    0.065787
    58  H    0.021460
    59  H    0.056295
    60  H    0.066092
    61  H    0.044672
    62  H    0.054436
    63  H    0.033922
    64  H    0.029520
    65  H    0.040556
    66  H    0.046093
    67  H    0.027741
    68  H    0.057246
    69  H    0.024516
    70  H    0.038658
    71  H    0.024901
    72  H    0.035860
    73  H    0.069387
    74  H    0.037733
    75  H    0.057391
    76  H    0.064959
    77  H    0.073178
    78  H    0.055950
    79  H    0.055952
    80  Mg   0.983806
    81  C    0.006485
    82  C   -0.113473
    83  C   -0.075858
    84  C   -0.074269
    85  N   -0.350890
    86  C   -0.049178
    87  C   -0.050188
    88  C   -0.097903
    89  C    0.098209
    90  C    0.023327
    91  C    0.001736
    92  C   -0.115020
    93  H    0.031951
    94  N   -0.466404
    95  C    0.153972
    96  C   -0.174380
    97  C   -0.070250
    98  C    0.137953
    99  C    0.078127
   100  C    0.062918
   101  O   -0.243539
   102  C   -0.045811
   103  N   -0.389959
   104  C    0.116118
   105  C   -0.106905
   106  C   -0.048775
   107  C    0.073248
   108  C    0.009946
   109  C    0.001435
   110  C   -0.071389
   111  N   -0.414090
   112  C    0.082265
   113  C   -0.193365
   114  C   -0.037964
   115  C    0.139089
   116  C    0.088175
   117  C    0.083163
   118  O   -0.205366
   119  C   -0.073965
   120  C    0.226018
   121  O   -0.256814
   122  O   -0.333931
   123  C    0.142524
   124  H   -0.000092
   125  H    0.028422
   126  H   -0.008048
   127  H    0.049746
   128  H    0.040035
   129  H    0.051991
   130  H    0.043573
   131  H    0.040177
   132  H    0.030980
   133  H    0.043343
   134  H    0.042793
   135  H    0.062654
   136  H    0.053117
   137  H    0.041026
   138  H    0.058400
   139  H    0.058610
   140  H    0.065502
   141  H    0.052983
   142  H    0.043228
   143  H    0.032378
   144  H    0.027649
   145  H    0.060862
   146  H    0.025934
   147  H    0.049346
   148  H    0.028160
   149  H    0.020865
   150  H    0.037412
   151  H    0.045761
   152  H    0.054230
   153  H    0.052867
   154  H    0.061487
   155  H    0.067049
   156  H    0.054647
   157  H    0.045140
   158  H    0.056995
 Sum of Mulliken charges =  -0.00000

 Dipole moment (field-independent basis, Debye):
    X=             -2.3632    Y=              3.4356    Z=             -3.6695  Tot=              5.5545
 Quadrupole moment (field-independent basis, Debye-Ang):
   XX=           -140.3153   YY=           -548.4374   ZZ=           -472.2784
   XY=            -91.8889   XZ=             49.0462   YZ=            -17.4363

 Normal termination of Gaussian 16 at Sat Sep 18 16:25:38 2021.
