 Gaussian 16, Revision A.03,
 Gaussian 16:  ES64L-G16RevA.03 25-Dec-2016

 --------------------------------
 #p wB97XD/Def2SVP td=(nstates=5)
 --------------------------------

 --------------------------------
 TDDFT excited states in gaussian
 --------------------------------
 Symbolic Z-matrix:
 Charge =  0 Multiplicity = 1

                         Standard orientation:
 ---------------------------------------------------------------------
 Center     Atomic      Atomic             Coordinates (Angstroms)
 Number     Number       Type             X           Y           Z
 ---------------------------------------------------------------------
      1         12           0       22.469849   -0.750302    0.367117
      2          6           0       21.926648    2.141404   -1.819288
      3          6           0       22.193655    1.490865    3.046075
      4          6           0       23.296275   -3.193606    2.360824
      5          6           0       22.521702   -2.783673   -2.394159
      6          7           0       22.314203    1.546420    0.577947
      7          6           0       21.971658    2.536001   -0.436101
      8          6           0       21.810732    3.967265    0.119600
      9          6           0       22.124651    3.672923    1.699258
     10          6           0       22.240734    2.141571    1.829843
     11          6           0       23.340731    4.408000    2.228522
     12          6           0       20.406519    4.540939   -0.239019
     13          6           0       20.018495    5.792046    0.490127
     14          1           0       19.369250    6.930603   -0.264751
     15          7           0       22.745772   -0.867808    2.450706
     16          6           0       22.580089    0.153056    3.393559
     17          6           0       22.806636   -0.376392    4.737079
     18          6           0       23.133347   -1.783799    4.565611
     19          6           0       23.076159   -2.042210    3.079321
     20          6           0       22.619511    0.436833    6.070172
     21          6           0       23.516360   -2.831509    5.547748
     22          8           0       23.739378   -4.003036    5.272909
     23          6           0       23.535715   -2.520998    6.987046
     24          7           0       22.754760   -2.670393    0.058740
     25          6           0       23.211617   -3.486898    1.010003
     26          6           0       23.436687   -4.930091    0.501220
     27          6           0       22.771703   -4.864718   -0.858031
     28          6           0       22.724516   -3.313001   -1.140120
     29          6           0       24.908438   -5.320096    0.427915
     30          6           0       21.430363   -5.488684   -1.144213
     31          6           0       20.284946   -4.892918   -0.353891
     32          7           0       22.371035   -0.429886   -1.688442
     33          6           0       22.307504   -1.409625   -2.695680
     34          6           0       22.155380   -0.756437   -3.972418
     35          6           0       21.936284    0.595289   -3.601753
     36          6           0       22.088261    0.761867   -2.212005
     37          6           0       22.030177   -1.376305   -5.333533
     38          6           0       21.576520    1.910961   -4.215502
     39          8           0       21.243469    2.205544   -5.383337
     40          6           0       21.601277    2.920929   -3.070392
     41          6           0       22.563587    4.063773   -3.400817
     42          8           0       23.818449    4.052951   -3.571350
     43          8           0       21.840089    5.218220   -3.344555
     44          6           0       22.606445    6.467598   -3.553386
     45          1           0       21.908011    2.143873    3.872207
     46          1           0       23.636059   -4.010350    3.001007
     47          1           0       22.552560   -3.364954   -3.318196
     48          1           0       22.533957    4.567215   -0.432685
     49          1           0       21.230713    3.895417    2.281935
     50          1           0       23.028471    5.036038    3.063378
     51          1           0       23.692777    5.041251    1.414951
     52          1           0       24.255858    3.833234    2.369308
     53          1           0       19.716771    3.701857   -0.141584
     54          1           0       20.388696    4.767331   -1.305171
     55          1           0       20.817913    6.347934    0.979504
     56          1           0       19.246518    5.553892    1.221296
     57          1           0       21.815512   -0.078871    6.596073
     58          1           0       22.322738    1.473052    5.908783
     59          1           0       23.570407    0.372242    6.599215
     60          1           0       23.998255   -1.563009    7.225456
     61          1           0       24.129170   -3.329354    7.412765
     62          1           0       22.483636   -2.383710    7.234955
     63          1           0       22.940498   -5.596336    1.207013
     64          1           0       23.372721   -5.343692   -1.631499
     65          1           0       25.009724   -6.348551    0.772577
     66          1           0       25.518777   -4.680402    1.064502
     67          1           0       25.233066   -5.371368   -0.611981
     68          1           0       21.530469   -6.567151   -1.018738
     69          1           0       21.107984   -5.270716   -2.162244
     70          1           0       19.642499   -5.660457    0.076109
     71          1           0       19.609421   -4.301030   -0.971902
     72          1           0       20.594033   -4.268260    0.484278
     73          1           0       21.138658   -0.992575   -5.828958
     74          1           0       21.982821   -2.458930   -5.450669
     75          1           0       22.905418   -1.063323   -5.903211
     76          1           0       20.616850    3.385673   -3.008492
     77          1           0       22.813531    6.937115   -2.591960
     78          1           0       21.909468    6.978782   -4.217491
     79          1           0       23.502420    6.311418   -4.155534
     80         12           0      -21.942993   -0.817476   -0.143683
     81          6           0      -23.250528    2.008123    1.533008
     82          6           0      -20.070367    1.310469   -2.065713
     83          6           0      -21.231144   -3.379555   -2.117726
     84          6           0      -24.271745   -2.789771    1.570500
     85          7           0      -21.816656    1.424546   -0.357054
     86          6           0      -22.372798    2.350245    0.529810
     87          6           0      -21.718708    3.738450    0.321729
     88          6           0      -20.710802    3.488309   -0.858945
     89          6           0      -20.808259    1.960695   -1.126119
     90          6           0      -20.783451    4.434633   -2.044567
     91          6           0      -21.055296    4.375738    1.552582
     92          6           0      -21.576533    5.801534    1.881981
     93          1           0      -20.518341    6.879807    1.956356
     94          7           0      -20.725560   -0.995894   -1.814084
     95          6           0      -20.056341   -0.022735   -2.496380
     96          6           0      -19.229457   -0.670997   -3.486228
     97          6           0      -19.676245   -2.055490   -3.613531
     98          6           0      -20.598644   -2.150225   -2.492443
     99          6           0      -18.236177    0.150469   -4.460454
    100          6           0      -19.542011   -3.031280   -4.702128
    101          8           0      -19.938821   -4.161513   -4.721324
    102          6           0      -18.825415   -2.536756   -5.955107
    103          7           0      -22.832770   -2.774018   -0.371227
    104          6           0      -22.298138   -3.662157   -1.231795
    105          6           0      -22.830053   -5.070512   -0.956257
    106          6           0      -23.497414   -4.918291    0.420038
    107          6           0      -23.518226   -3.416708    0.599435
    108          6           0      -23.862895   -5.534877   -2.082860
    109          6           0      -22.544253   -5.599862    1.528403
    110          6           0      -21.240799   -4.825131    1.864599
    111          7           0      -23.407149   -0.569841    1.364612
    112          6           0      -24.237421   -1.450972    1.945526
    113          6           0      -25.031879   -0.746465    2.915596
    114          6           0      -24.645929    0.577396    2.820387
    115          6           0      -23.686276    0.677928    1.809374
    116          6           0      -26.101797   -1.282074    3.847893
    117          6           0      -24.977749    1.891100    3.378397
    118          8           0      -25.781585    2.372001    4.126426
    119          6           0      -24.033589    2.865903    2.626255
    120          6           0      -24.924548    3.850680    1.963855
    121          8           0      -25.812271    3.500042    1.227681
    122          8           0      -24.683845    5.160072    2.347884
    123          6           0      -25.723982    6.170443    1.959281
    124          1           0      -19.331353    1.972044   -2.522741
    125          1           0      -20.943400   -4.282576   -2.660856
    126          1           0      -24.868891   -3.348138    2.294486
    127          1           0      -22.469141    4.419924   -0.079491
    128          1           0      -19.708781    3.719092   -0.496762
    129          1           0      -21.719941    4.990410   -2.048119
    130          1           0      -20.649516    3.942671   -3.008295
    131          1           0      -20.006712    5.180085   -1.875919
    132          1           0      -19.977297    4.535264    1.528124
    133          1           0      -21.200216    3.752256    2.434543
    134          1           0      -22.227242    5.796851    2.756366
    135          1           0      -22.210964    6.116194    1.054353
    136          1           0      -17.270789   -0.355449   -4.453447
    137          1           0      -18.012578    1.175711   -4.167958
    138          1           0      -18.538331    0.320710   -5.493782
    139          1           0      -17.825346   -2.297974   -5.592485
    140          1           0      -19.381264   -1.650397   -6.259248
    141          1           0      -18.709517   -3.285200   -6.739620
    142          1           0      -22.044693   -5.817724   -0.837455
    143          1           0      -24.525970   -5.245807    0.573008
    144          1           0      -23.798526   -6.621788   -2.140095
    145          1           0      -23.719780   -5.175778   -3.102572
    146          1           0      -24.834683   -5.245324   -1.683299
    147          1           0      -22.275390   -6.626417    1.280178
    148          1           0      -23.033630   -5.560619    2.501676
    149          1           0      -20.520745   -5.364465    2.479106
    150          1           0      -21.526502   -3.930150    2.417537
    151          1           0      -20.786406   -4.523496    0.920296
    152          1           0      -25.741167   -2.008306    4.575985
    153          1           0      -26.798053   -1.782245    3.175230
    154          1           0      -26.672951   -0.490217    4.332471
    155          1           0      -23.488352    3.354605    3.433514
    156          1           0      -25.060750    6.964307    1.615769
    157          1           0      -26.312888    6.524394    2.805252
    158          1           0      -26.468839    5.929348    1.201298
 ---------------------------------------------------------------------

 SCF Done:  E(RwB97XD) =  -4070.63034113     A.U. after   19 cycles

 Excitation energies and oscillator strengths:

 Excited State   1:      Singlet-A      1.6109 eV  769.67 nm  f=0.3916  <S**2>=0.000
     309 -> 315       -0.17047
     312 -> 313        0.68648
     309 <- 315       -0.11382
 This state for optimization and/or second-order correction.
 Total Energy, E(TD-HF/TD-DFT) =  -4070.57114263
 Copying the excited state density for this state as the 1-particle RhoCI density.

 Excited State   2:      Singlet-A      1.6442 eV  754.06 nm  f=0.4076  <S**2>=0.000
     310 -> 316        0.18144
     311 -> 314        0.68500
     310 <- 316        0.11693

 Excited State   3:      Singlet-A      2.1161 eV  585.90 nm  f=0.1318  <S**2>=0.000
     309 -> 313        0.64981
     312 -> 315        0.25743

 Excited State   4:      Singlet-A      2.1359 eV  580.49 nm  f=0.1362  <S**2>=0.000
     310 -> 314        0.65463
     311 -> 316       -0.25214

 Excited State   5:      Singlet-A      3.2645 eV  379.80 nm  f=0.0055  <S**2>=0.000
     303 -> 313       -0.31853
     308 -> 313        0.60978

 The electronic state is 1-A.
 Alpha  occ. eigenvalues --  -46.95894 -46.94132 -19.31004 -19.30383 -19.24670
 Alpha  occ. eigenvalues --  -19.24629 -19.24225 -19.23876 -19.23513 -19.23419
 Alpha  occ. eigenvalues --  -14.47168 -14.46801 -14.46735 -14.46532 -14.44636
 Alpha  occ. eigenvalues --  -14.44375 -14.43836 -14.43449 -10.43844 -10.42653
 Alpha  occ. eigenvalues --  -10.39196 -10.38761 -10.38666 -10.38319 -10.36036
 Alpha  occ. eigenvalues --  -10.35665 -10.35599 -10.35592 -10.35578 -10.35539
 Alpha  occ. eigenvalues --  -10.35178 -10.34825 -10.34809 -10.34785 -10.34774
 Alpha  occ. eigenvalues --  -10.34768 -10.34620 -10.34274 -10.33991 -10.33826
 Alpha  occ. eigenvalues --  -10.33381 -10.33237 -10.33207 -10.33055 -10.33016
 Alpha  occ. eigenvalues --  -10.32937 -10.32903 -10.32837 -10.32645 -10.32625
 Alpha  occ. eigenvalues --  -10.32616 -10.32471 -10.32277 -10.32108 -10.32070
 Alpha  occ. eigenvalues --  -10.32043 -10.31953 -10.31926 -10.31639 -10.31587
 Alpha  occ. eigenvalues --  -10.31557 -10.31442 -10.31372 -10.31091 -10.31032
 Alpha  occ. eigenvalues --  -10.31015 -10.31009 -10.30814 -10.30690 -10.30586
 Alpha  occ. eigenvalues --  -10.30488 -10.30368 -10.30166 -10.30090 -10.29836
 Alpha  occ. eigenvalues --  -10.29821 -10.29820 -10.29815 -10.29758 -10.29579
 Alpha  occ. eigenvalues --  -10.29508 -10.29475 -10.29116 -10.28935 -10.28720
 Alpha  occ. eigenvalues --  -10.28387  -3.21758  -3.20286  -1.95325  -1.94892
 Alpha  occ. eigenvalues --   -1.94717  -1.93886  -1.93424  -1.93265  -1.18202
 Alpha  occ. eigenvalues --   -1.17860  -1.13938  -1.13286  -1.12674  -1.10015
 Alpha  occ. eigenvalues --   -1.09839  -1.07972  -1.07221  -1.07078  -1.06346
 Alpha  occ. eigenvalues --   -1.05882  -1.04829  -1.04380  -1.04020  -1.02637
 Alpha  occ. eigenvalues --   -0.94360  -0.94274  -0.91575  -0.90845  -0.90787
 Alpha  occ. eigenvalues --   -0.90688  -0.90583  -0.90166  -0.89688  -0.89288
 Alpha  occ. eigenvalues --   -0.89020  -0.88525  -0.88285  -0.87818  -0.86700
 Alpha  occ. eigenvalues --   -0.86352  -0.85952  -0.85407  -0.84885  -0.84407
 Alpha  occ. eigenvalues --   -0.84303  -0.83391  -0.83162  -0.82833  -0.82125
 Alpha  occ. eigenvalues --   -0.82067  -0.80551  -0.80337  -0.79367  -0.79210
 Alpha  occ. eigenvalues --   -0.78732  -0.78718  -0.78092  -0.77912  -0.77472
 Alpha  occ. eigenvalues --   -0.77169  -0.75115  -0.74759  -0.73943  -0.73760
 Alpha  occ. eigenvalues --   -0.72236  -0.71431  -0.71299  -0.71217  -0.70074
 Alpha  occ. eigenvalues --   -0.69651  -0.69252  -0.69191  -0.67435  -0.67301
 Alpha  occ. eigenvalues --   -0.67156  -0.67065  -0.66684  -0.66467  -0.66300
 Alpha  occ. eigenvalues --   -0.65829  -0.64299  -0.63938  -0.62430  -0.62272
 Alpha  occ. eigenvalues --   -0.61706  -0.61299  -0.61172  -0.61103  -0.60745
 Alpha  occ. eigenvalues --   -0.60316  -0.60113  -0.59695  -0.59552  -0.59413
 Alpha  occ. eigenvalues --   -0.58325  -0.57995  -0.57893  -0.57484  -0.57354
 Alpha  occ. eigenvalues --   -0.57244  -0.57177  -0.56739  -0.56603  -0.56257
 Alpha  occ. eigenvalues --   -0.56126  -0.55456  -0.55376  -0.55065  -0.54942
 Alpha  occ. eigenvalues --   -0.54727  -0.54615  -0.54422  -0.54346  -0.54115
 Alpha  occ. eigenvalues --   -0.54077  -0.53843  -0.53483  -0.53228  -0.53103
 Alpha  occ. eigenvalues --   -0.52823  -0.52728  -0.52696  -0.52320  -0.52124
 Alpha  occ. eigenvalues --   -0.52012  -0.51755  -0.51720  -0.51549  -0.51449
 Alpha  occ. eigenvalues --   -0.51309  -0.51247  -0.50987  -0.50773  -0.50747
 Alpha  occ. eigenvalues --   -0.50565  -0.50445  -0.50354  -0.50207  -0.50056
 Alpha  occ. eigenvalues --   -0.49884  -0.49688  -0.49565  -0.49544  -0.49420
 Alpha  occ. eigenvalues --   -0.48972  -0.48949  -0.48720  -0.48459  -0.48381
 Alpha  occ. eigenvalues --   -0.48113  -0.48079  -0.48057  -0.47956  -0.47834
 Alpha  occ. eigenvalues --   -0.47610  -0.47503  -0.47406  -0.47249  -0.47057
 Alpha  occ. eigenvalues --   -0.46849  -0.46497  -0.46490  -0.46293  -0.46132
 Alpha  occ. eigenvalues --   -0.46007  -0.45878  -0.45610  -0.45406  -0.45371
 Alpha  occ. eigenvalues --   -0.45297  -0.45180  -0.45005  -0.44855  -0.44622
 Alpha  occ. eigenvalues --   -0.44487  -0.44404  -0.44310  -0.44148  -0.44041
 Alpha  occ. eigenvalues --   -0.43955  -0.43869  -0.43747  -0.43382  -0.43312
 Alpha  occ. eigenvalues --   -0.43253  -0.42848  -0.42809  -0.42422  -0.42242
 Alpha  occ. eigenvalues --   -0.41902  -0.41657  -0.41177  -0.41021  -0.40996
 Alpha  occ. eigenvalues --   -0.40819  -0.40242  -0.40028  -0.39821  -0.39334
 Alpha  occ. eigenvalues --   -0.39165  -0.39161  -0.38815  -0.38501  -0.38366
 Alpha  occ. eigenvalues --   -0.38227  -0.38133  -0.36415  -0.36326  -0.36085
 Alpha  occ. eigenvalues --   -0.36051  -0.35659  -0.35323  -0.33841  -0.33750
 Alpha  occ. eigenvalues --   -0.33281  -0.33259  -0.32611  -0.32570  -0.32386
 Alpha  occ. eigenvalues --   -0.32315  -0.32228  -0.31316  -0.26204  -0.26116
 Alpha  occ. eigenvalues --   -0.23406  -0.23306
 Alpha virt. eigenvalues --   -0.07675  -0.07546   0.00233   0.00470   0.02348
 Alpha virt. eigenvalues --    0.02583   0.04275   0.04567   0.04788   0.06231
 Alpha virt. eigenvalues --    0.06662   0.07544   0.07671   0.07900   0.08586

 Mulliken charges:
               1
     1  Mg   0.975092
     2  C   -0.025873
     3  C   -0.091738
     4  C   -0.091497
     5  C   -0.077663
     6  N   -0.366337
     7  C   -0.005709
     8  C   -0.064824
     9  C   -0.111866
    10  C    0.088937
    11  C    0.051905
    12  C   -0.005959
    13  C   -0.128090
    14  H    0.029114
    15  N   -0.467406
    16  C    0.163209
    17  C   -0.170362
    18  C   -0.057365
    19  C    0.152339
    20  C    0.067106
    21  C    0.021984
    22  O   -0.243510
    23  C    0.002067
    24  N   -0.422628
    25  C    0.104117
    26  C   -0.088171
    27  C   -0.066068
    28  C    0.109772
    29  C    0.042974
    30  C    0.010242
    31  C   -0.067768
    32  N   -0.449715
    33  C    0.078780
    34  C   -0.151479
    35  C   -0.101655
    36  C    0.167343
    37  C    0.064796
    38  C    0.158579
    39  O   -0.236415
    40  C   -0.063541
    41  C    0.279099
    42  O   -0.286781
    43  O   -0.366324
    44  C    0.125320
    45  H   -0.007292
    46  H    0.021609
    47  H    0.001318
    48  H    0.052045
    49  H    0.035078
    50  H    0.045581
    51  H    0.021901
    52  H    0.048127
    53  H    0.034807
    54  H    0.058194
    55  H    0.052525
    56  H    0.055211
    57  H    0.061427
    58  H    0.044230
    59  H    0.067077
    60  H    0.027144
    61  H    0.066573
    62  H    0.059689
    63  H    0.041427
    64  H    0.013887
    65  H    0.035663
    66  H    0.048287
    67  H    0.036558
    68  H    0.035171
    69  H    0.029062
    70  H    0.029055
    71  H    0.034925
    72  H    0.040788
    73  H    0.061472
    74  H    0.026469
    75  H    0.055508
    76  H    0.079571
    77  H    0.065870
    78  H    0.060820
    79  H    0.076193
    80  Mg   0.945782
    81  C   -0.040853
    82  C   -0.093371
    83  C   -0.065201
    84  C   -0.068523
    85  N   -0.371823
    86  C    0.009208
    87  C   -0.037798
    88  C   -0.103102
    89  C    0.075138
    90  C    0.021452
    91  C    0.015493
    92  C   -0.142078
    93  H    0.025730
    94  N   -0.445215
    95  C    0.174742
    96  C   -0.128396
    97  C   -0.081883
    98  C    0.149669
    99  C    0.018183
   100  C    0.023484
   101  O   -0.210408
   102  C   -0.006097
   103  N   -0.331070
   104  C    0.048420
   105  C   -0.089152
   106  C   -0.066789
   107  C    0.055855
   108  C    0.021701
   109  C   -0.041407
   110  C   -0.066557
   111  N   -0.411856
   112  C    0.080727
   113  C   -0.175973
   114  C   -0.085122
   115  C    0.178206
   116  C    0.073499
   117  C    0.147733
   118  O   -0.174261
   119  C   -0.066682
   120  C    0.252364
   121  O   -0.231224
   122  O   -0.382099
   123  C    0.126243
   124  H   -0.009987
   125  H    0.025904
   126  H   -0.003891
   127  H    0.040947
   128  H    0.033958
   129  H    0.030252
   130  H    0.043357
   131  H    0.031374
   132  H    0.042734
   133  H    0.032971
   134  H    0.067817
   135  H    0.036405
   136  H    0.048951
   137  H    0.027004
   138  H    0.053842
   139  H    0.041807
   140  H    0.056577
   141  H    0.049692
   142  H    0.042161
   143  H    0.039949
   144  H    0.039830
   145  H    0.057677
   146  H    0.036736
   147  H    0.045246
   148  H    0.027644
   149  H    0.048321
   150  H    0.041040
   151  H    0.039468
   152  H    0.051859
   153  H    0.041794
   154  H    0.060826
   155  H    0.062938
   156  H    0.052996
   157  H    0.061572
   158  H    0.073541
 Sum of Mulliken charges =  -0.00000

 Dipole moment (field-independent basis, Debye):
    X=              1.8992    Y=              1.5720    Z=              5.3082  Tot=              5.8528
 Quadrupole moment (field-independent basis, Debye-Ang):
   XX=           -724.8241   YY=           -463.4671   ZZ=           -527.2605
   XY=             26.2097   XZ=            114.7166   YZ=              7.1480

 Normal termination of Gaussian 16 at Sun Sep 19 02:25:40 2021.
