 Gaussian 16, Revision A.03,
 Gaussian 16:  ES64L-G16RevA.03 25-Dec-2016

 --------------------------------
 #p wB97XD/Def2SVP td=(nstates=5)
 --------------------------------

 --------------------------------
 TDDFT excited states in gaussian
 --------------------------------
 Symbolic Z-matrix:
 Charge =  0 Multiplicity = 1

                         Standard orientation:
 ---------------------------------------------------------------------
 Center     Atomic      Atomic             Coordinates (Angstroms)
 Number     Number       Type             X           Y           Z
 ---------------------------------------------------------------------
      1         12           0       20.477270   -0.558007    0.306404
      2          6           0       19.390968    1.948451   -1.714268
      3          6           0       21.375359    1.590018    2.852479
      4          6           0       21.691841   -3.224840    2.077332
      5          6           0       19.990684   -2.857611   -2.444222
      6          7           0       20.576399    1.529308    0.435005
      7          6           0       19.824569    2.393578   -0.429677
      8          6           0       19.656027    3.729518    0.175799
      9          6           0       20.654666    3.639711    1.415500
     10          6           0       20.919204    2.164639    1.619878
     11          6           0       22.031752    4.439671    1.179091
     12          6           0       18.176058    4.146593    0.437174
     13          6           0       17.825991    5.542711    0.033718
     14          1           0       18.917376    6.645650    0.329166
     15          7           0       21.341357   -0.793407    2.237856
     16          6           0       21.616548    0.246338    3.075452
     17          6           0       22.171638   -0.299300    4.266414
     18          6           0       22.209445   -1.742402    4.135088
     19          6           0       21.655370   -2.028405    2.769414
     20          6           0       22.709984    0.592590    5.406472
     21          6           0       22.623242   -2.843901    5.060192
     22          8           0       22.719878   -4.052838    4.821039
     23          6           0       22.924626   -2.396213    6.540452
     24          7           0       20.908796   -2.774457   -0.155648
     25          6           0       21.298448   -3.620400    0.765256
     26          6           0       21.148990   -5.074246    0.321825
     27          6           0       20.602917   -4.934648   -1.127904
     28          6           0       20.503782   -3.417695   -1.276345
     29          6           0       22.523299   -5.915547    0.387862
     30          6           0       19.183676   -5.651574   -1.211537
     31          6           0       17.959908   -5.092387   -0.444586
     32          7           0       19.977097   -0.468080   -1.736374
     33          6           0       19.777450   -1.471677   -2.665433
     34          6           0       19.181340   -0.826208   -3.852788
     35          6           0       18.977448    0.494361   -3.586205
     36          6           0       19.495770    0.659894   -2.250693
     37          6           0       19.001625   -1.502073   -5.168346
     38          6           0       18.483828    1.778760   -4.082354
     39          8           0       17.997948    2.092251   -5.156169
     40          6           0       18.756138    2.762004   -2.860701
     41          6           0       19.724375    3.775733   -3.326030
     42          8           0       20.852205    3.589509   -3.815203
     43          8           0       19.084063    4.977781   -3.102570
     44          6           0       19.925041    6.162771   -3.316582
     45          1           0       21.623658    2.230201    3.701402
     46          1           0       21.985314   -4.041761    2.740867
     47          1           0       19.764063   -3.548282   -3.258360
     48          1           0       20.042512    4.416633   -0.577999
     49          1           0       20.138058    4.035511    2.289363
     50          1           0       21.997370    5.128955    0.335404
     51          1           0       22.759147    3.694915    0.856387
     52          1           0       22.254636    4.851798    2.162378
     53          1           0       17.951454    4.055159    1.499894
     54          1           0       17.618351    3.436898   -0.173725
     55          1           0       16.965212    5.938681    0.571140
     56          1           0       17.514526    5.782264   -0.983087
     57          1           0       21.956697    1.049093    6.048445
     58          1           0       23.325130    1.311504    4.865562
     59          1           0       23.271681    0.033694    6.154651
     60          1           0       23.876192   -1.864952    6.561575
     61          1           0       22.778652   -3.260299    7.188381
     62          1           0       22.159443   -1.745502    6.964233
     63          1           0       20.391873   -5.548882    0.945545
     64          1           0       21.246033   -5.387521   -1.882551
     65          1           0       22.424987   -6.577572    1.248934
     66          1           0       23.366789   -5.244606    0.553729
     67          1           0       22.791387   -6.577750   -0.434386
     68          1           0       19.191682   -6.717857   -0.986117
     69          1           0       18.942320   -5.504125   -2.264707
     70          1           0       17.290308   -4.799750   -1.253470
     71          1           0       18.220652   -4.272660    0.223689
     72          1           0       17.463494   -5.825935    0.190651
     73          1           0       18.108847   -1.017601   -5.562539
     74          1           0       18.877429   -2.581341   -5.077771
     75          1           0       19.771260   -1.117047   -5.836037
     76          1           0       17.768801    3.216022   -2.780496
     77          1           0       19.205590    6.974309   -3.203720
     78          1           0       20.232827    6.123574   -4.361493
     79          1           0       20.839070    6.209240   -2.724199
     80         12           0      -20.878608   -0.598369   -0.152094
     81          6           0      -18.778562    2.267584    0.067441
     82          6           0      -23.474836    1.318754    1.034002
     83          6           0      -22.657586   -3.375051   -0.362231
     84          6           0      -17.979701   -2.589509   -0.894404
     85          7           0      -21.105700    1.602703    0.568017
     86          6           0      -20.104238    2.547569    0.439116
     87          6           0      -20.737457    3.913823    0.873226
     88          6           0      -22.285360    3.600475    1.237643
     89          6           0      -22.283956    2.096266    0.946712
     90          6           0      -22.753104    4.031098    2.643439
     91          6           0      -20.510710    5.151740   -0.089551
     92          6           0      -19.822065    6.335779    0.524510
     93          1           0      -19.891041    6.674529    1.990215
     94          7           0      -22.921835   -0.960798    0.174025
     95          6           0      -23.795837   -0.043383    0.666230
     96          6           0      -25.096778   -0.656191    0.585161
     97          6           0      -24.881438   -2.019768    0.290360
     98          6           0      -23.420143   -2.227353    0.027936
     99          6           0      -26.350452    0.144877    0.975100
    100          6           0      -25.887223   -3.128954    0.355776
    101          8           0      -25.555499   -4.326339    0.187023
    102          6           0      -27.299028   -2.812344    0.684422
    103          7           0      -20.309174   -2.714679   -0.519703
    104          6           0      -21.233356   -3.604863   -0.625023
    105          6           0      -20.772774   -5.093051   -1.072606
    106          6           0      -19.267875   -4.820127   -1.217326
    107          6           0      -19.154429   -3.353808   -0.879069
    108          6           0      -21.165899   -6.125309    0.046785
    109          6           0      -18.618105   -5.150095   -2.607002
    110          6           0      -18.965274   -4.198677   -3.776618
    111          7           0      -18.861525   -0.275078   -0.240738
    112          6           0      -17.830286   -1.200000   -0.528282
    113          6           0      -16.568998   -0.451926   -0.619183
    114          6           0      -16.897572    0.907654   -0.401371
    115          6           0      -18.319951    0.973253   -0.216308
    116          6           0      -15.174057   -1.067247   -0.940315
    117          6           0      -16.334128    2.151188   -0.349523
    118          8           0      -15.183605    2.530782   -0.429485
    119          6           0      -17.503083    3.145268   -0.102483
    120          6           0      -17.182594    3.949644    1.053972
    121          8           0      -17.447185    3.643326    2.222020
    122          8           0      -16.329914    4.994944    0.679627
    123          6           0      -15.782775    5.774219    1.817808
    124          1           0      -24.294524    1.733682    1.624904
    125          1           0      -23.224028   -4.303877   -0.267128
    126          1           0      -17.068109   -3.146509   -1.120480
    127          1           0      -20.079466    4.124161    1.715387
    128          1           0      -22.925270    4.182198    0.575647
    129          1           0      -23.621397    4.687819    2.576179
    130          1           0      -22.010092    4.504993    3.284665
    131          1           0      -23.035105    3.092875    3.121268
    132          1           0      -21.462561    5.475758   -0.510833
    133          1           0      -19.845369    4.786612   -0.871960
    134          1           0      -20.373606    7.215777    0.191684
    135          1           0      -18.781132    6.317953    0.203588
    136          1           0      -26.163181    1.218798    0.991023
    137          1           0      -26.699979   -0.175623    1.955693
    138          1           0      -27.078733   -0.101019    0.202952
    139          1           0      -27.645778   -2.101931   -0.066054
    140          1           0      -27.380915   -2.317726    1.653039
    141          1           0      -27.891823   -3.723748    0.750891
    142          1           0      -21.211070   -5.372868   -2.030890
    143          1           0      -18.733600   -5.279879   -0.385579
    144          1           0      -21.152719   -5.599764    1.001590
    145          1           0      -20.392541   -6.893276    0.085399
    146          1           0      -22.127570   -6.631912   -0.038704
    147          1           0      -18.759285   -6.205266   -2.838919
    148          1           0      -17.537121   -5.130103   -2.472103
    149          1           0      -19.956056   -3.745723   -3.763771
    150          1           0      -18.760685   -4.723284   -4.710595
    151          1           0      -18.211171   -3.413156   -3.730294
    152          1           0      -14.642431   -0.535638   -1.729600
    153          1           0      -15.216549   -2.128247   -1.183837
    154          1           0      -14.483477   -0.815086   -0.135176
    155          1           0      -17.475029    3.742880   -1.013029
    156          1           0      -15.075790    5.173113    2.389029
    157          1           0      -16.528150    6.096473    2.543999
    158          1           0      -15.436696    6.720467    1.401588
 ---------------------------------------------------------------------

 SCF Done:  E(RwB97XD) =  -4070.60595211     A.U. after   19 cycles

 Excitation energies and oscillator strengths:

 Excited State   1:      Singlet-A      1.6460 eV  753.25 nm  f=0.3804  <S**2>=0.000
     309 -> 315       -0.19183
     312 -> 314        0.68167
     309 <- 315       -0.11821
 This state for optimization and/or second-order correction.
 Total Energy, E(TD-HF/TD-DFT) =  -4070.54546330
 Copying the excited state density for this state as the 1-particle RhoCI density.

 Excited State   2:      Singlet-A      1.7179 eV  721.73 nm  f=0.3731  <S**2>=0.000
     310 -> 316        0.19149
     311 -> 313        0.67995
     310 <- 316        0.11530

 Excited State   3:      Singlet-A      2.1592 eV  574.22 nm  f=0.1060  <S**2>=0.000
     310 -> 313        0.63947
     311 -> 316       -0.28252

 Excited State   4:      Singlet-A      2.2138 eV  560.05 nm  f=0.0446  <S**2>=0.000
     309 -> 314        0.60814
     312 -> 315        0.34947

 Excited State   5:      Singlet-A      3.3630 eV  368.67 nm  f=0.3703  <S**2>=0.000
     305 -> 314       -0.18336
     306 -> 314       -0.37546
     309 -> 314       -0.24802
     312 -> 315        0.50159

 The electronic state is 1-A.
 Alpha  occ. eigenvalues --  -46.96158 -46.95579 -19.30848 -19.29447 -19.25185
 Alpha  occ. eigenvalues --  -19.24570 -19.24564 -19.24181 -19.23887 -19.22504
 Alpha  occ. eigenvalues --  -14.47271 -14.46886 -14.46774 -14.46462 -14.44388
 Alpha  occ. eigenvalues --  -14.44249 -14.44096 -14.44051 -10.43353 -10.42411
 Alpha  occ. eigenvalues --  -10.39722 -10.39406 -10.39098 -10.37212 -10.36052
 Alpha  occ. eigenvalues --  -10.35996 -10.35819 -10.35801 -10.35596 -10.35558
 Alpha  occ. eigenvalues --  -10.35112 -10.35063 -10.34878 -10.34503 -10.34413
 Alpha  occ. eigenvalues --  -10.34158 -10.34129 -10.33951 -10.33806 -10.33613
 Alpha  occ. eigenvalues --  -10.33548 -10.33435 -10.33034 -10.32892 -10.32766
 Alpha  occ. eigenvalues --  -10.32724 -10.32447 -10.32435 -10.32377 -10.32191
 Alpha  occ. eigenvalues --  -10.32156 -10.32133 -10.32117 -10.32073 -10.31994
 Alpha  occ. eigenvalues --  -10.31977 -10.31931 -10.31915 -10.31793 -10.31686
 Alpha  occ. eigenvalues --  -10.31638 -10.31520 -10.31477 -10.31474 -10.31441
 Alpha  occ. eigenvalues --  -10.31412 -10.31391 -10.31384 -10.31197 -10.31161
 Alpha  occ. eigenvalues --  -10.31158 -10.30519 -10.30452 -10.30422 -10.30328
 Alpha  occ. eigenvalues --  -10.30272 -10.30223 -10.29882 -10.29807 -10.29742
 Alpha  occ. eigenvalues --  -10.29707 -10.29681 -10.29406 -10.29289 -10.28723
 Alpha  occ. eigenvalues --  -10.27838  -3.21963  -3.21438  -1.95562  -1.95117
 Alpha  occ. eigenvalues --   -1.95028  -1.94883  -1.94548  -1.94406  -1.18107
 Alpha  occ. eigenvalues --   -1.16456  -1.12404  -1.11852  -1.11409  -1.10741
 Alpha  occ. eigenvalues --   -1.09635  -1.08457  -1.08134  -1.07116  -1.05781
 Alpha  occ. eigenvalues --   -1.05765  -1.05078  -1.04938  -1.03716  -1.03681
 Alpha  occ. eigenvalues --   -0.94316  -0.94224  -0.91602  -0.91019  -0.90649
 Alpha  occ. eigenvalues --   -0.90280  -0.89887  -0.89674  -0.89239  -0.89186
 Alpha  occ. eigenvalues --   -0.88831  -0.88710  -0.88215  -0.87412  -0.86564
 Alpha  occ. eigenvalues --   -0.86227  -0.85262  -0.85230  -0.84445  -0.84277
 Alpha  occ. eigenvalues --   -0.84199  -0.83456  -0.83165  -0.82602  -0.82034
 Alpha  occ. eigenvalues --   -0.81915  -0.80337  -0.80034  -0.79472  -0.79267
 Alpha  occ. eigenvalues --   -0.79118  -0.78349  -0.77712  -0.77623  -0.76947
 Alpha  occ. eigenvalues --   -0.76902  -0.74500  -0.74428  -0.74154  -0.73543
 Alpha  occ. eigenvalues --   -0.72358  -0.71776  -0.71204  -0.71029  -0.70305
 Alpha  occ. eigenvalues --   -0.69814  -0.69432  -0.68940  -0.67252  -0.67241
 Alpha  occ. eigenvalues --   -0.66932  -0.66893  -0.66659  -0.66592  -0.66354
 Alpha  occ. eigenvalues --   -0.66217  -0.64492  -0.63389  -0.62310  -0.62276
 Alpha  occ. eigenvalues --   -0.61490  -0.61369  -0.60894  -0.60754  -0.60611
 Alpha  occ. eigenvalues --   -0.60100  -0.59917  -0.59877  -0.59520  -0.59470
 Alpha  occ. eigenvalues --   -0.58220  -0.57992  -0.57891  -0.57460  -0.57206
 Alpha  occ. eigenvalues --   -0.56928  -0.56913  -0.56891  -0.56352  -0.55484
 Alpha  occ. eigenvalues --   -0.55442  -0.55225  -0.55136  -0.55105  -0.54940
 Alpha  occ. eigenvalues --   -0.54798  -0.54496  -0.54291  -0.54184  -0.54071
 Alpha  occ. eigenvalues --   -0.53977  -0.53894  -0.53468  -0.53438  -0.53231
 Alpha  occ. eigenvalues --   -0.52972  -0.52824  -0.52720  -0.52454  -0.51810
 Alpha  occ. eigenvalues --   -0.51746  -0.51556  -0.51477  -0.51210  -0.51192
 Alpha  occ. eigenvalues --   -0.51135  -0.50955  -0.50877  -0.50789  -0.50521
 Alpha  occ. eigenvalues --   -0.50477  -0.50452  -0.50381  -0.50069  -0.49969
 Alpha  occ. eigenvalues --   -0.49882  -0.49604  -0.49429  -0.49295  -0.49233
 Alpha  occ. eigenvalues --   -0.49160  -0.48789  -0.48688  -0.48651  -0.48545
 Alpha  occ. eigenvalues --   -0.48444  -0.48111  -0.48098  -0.47757  -0.47735
 Alpha  occ. eigenvalues --   -0.47497  -0.47428  -0.47101  -0.46837  -0.46686
 Alpha  occ. eigenvalues --   -0.46493  -0.46472  -0.46121  -0.45838  -0.45733
 Alpha  occ. eigenvalues --   -0.45662  -0.45403  -0.45401  -0.45154  -0.45138
 Alpha  occ. eigenvalues --   -0.44927  -0.44860  -0.44715  -0.44676  -0.44381
 Alpha  occ. eigenvalues --   -0.44288  -0.44269  -0.44050  -0.43995  -0.43856
 Alpha  occ. eigenvalues --   -0.43787  -0.43742  -0.43594  -0.43553  -0.43426
 Alpha  occ. eigenvalues --   -0.43382  -0.43188  -0.43025  -0.42675  -0.42494
 Alpha  occ. eigenvalues --   -0.42390  -0.41992  -0.41688  -0.41672  -0.41386
 Alpha  occ. eigenvalues --   -0.41014  -0.39833  -0.39509  -0.39083  -0.38891
 Alpha  occ. eigenvalues --   -0.38698  -0.38653  -0.38438  -0.38337  -0.38254
 Alpha  occ. eigenvalues --   -0.38036  -0.37460  -0.36609  -0.36187  -0.35912
 Alpha  occ. eigenvalues --   -0.35701  -0.35555  -0.35314  -0.33542  -0.33408
 Alpha  occ. eigenvalues --   -0.33195  -0.33108  -0.32952  -0.32520  -0.32508
 Alpha  occ. eigenvalues --   -0.32072  -0.31938  -0.31661  -0.26334  -0.25742
 Alpha  occ. eigenvalues --   -0.23070  -0.22746
 Alpha virt. eigenvalues --   -0.06889  -0.06817  -0.00449   0.00127   0.01820
 Alpha virt. eigenvalues --    0.02196   0.04242   0.04429   0.05075   0.05688
 Alpha virt. eigenvalues --    0.06955   0.07225   0.07464   0.07822   0.08111

 Mulliken charges:
               1
     1  Mg   0.932751
     2  C   -0.004968
     3  C   -0.105792
     4  C   -0.037107
     5  C   -0.077829
     6  N   -0.442562
     7  C   -0.001113
     8  C   -0.039756
     9  C   -0.135980
    10  C    0.130612
    11  C    0.033344
    12  C    0.069880
    13  C   -0.138362
    14  H    0.000453
    15  N   -0.460737
    16  C    0.168840
    17  C   -0.150503
    18  C   -0.078153
    19  C    0.134169
    20  C    0.056739
    21  C    0.061893
    22  O   -0.237580
    23  C   -0.054794
    24  N   -0.260653
    25  C    0.017967
    26  C   -0.075277
    27  C   -0.047595
    28  C    0.027336
    29  C   -0.001696
    30  C   -0.063186
    31  C   -0.056313
    32  N   -0.406578
    33  C    0.141318
    34  C   -0.240968
    35  C   -0.006208
    36  C    0.119965
    37  C    0.082663
    38  C    0.139216
    39  O   -0.194686
    40  C   -0.109506
    41  C    0.275706
    42  O   -0.259113
    43  O   -0.369963
    44  C    0.139965
    45  H    0.001502
    46  H    0.024213
    47  H    0.003052
    48  H    0.030687
    49  H    0.027205
    50  H    0.043612
    51  H    0.045643
    52  H    0.050278
    53  H    0.039626
    54  H    0.041803
    55  H    0.043965
    56  H    0.061552
    57  H    0.055363
    58  H    0.062167
    59  H    0.016755
    60  H    0.079272
    61  H    0.051754
    62  H    0.041998
    63  H    0.050172
    64  H    0.039044
    65  H    0.042685
    66  H    0.048623
    67  H    0.040701
    68  H    0.041641
    69  H    0.020563
    70  H    0.044593
    71  H    0.039798
    72  H    0.038702
    73  H    0.047167
    74  H    0.040285
    75  H    0.066222
    76  H    0.068488
    77  H    0.059508
    78  H    0.056194
    79  H    0.059327
    80  Mg   0.949180
    81  C    0.012656
    82  C   -0.090558
    83  C   -0.048282
    84  C   -0.087848
    85  N   -0.314481
    86  C   -0.013186
    87  C   -0.056148
    88  C   -0.105101
    89  C    0.077736
    90  C    0.018409
    91  C    0.000175
    92  C   -0.139671
    93  H    0.031610
    94  N   -0.486190
    95  C    0.140138
    96  C   -0.180255
    97  C   -0.072256
    98  C    0.161282
    99  C    0.072802
   100  C    0.036446
   101  O   -0.261871
   102  C    0.006573
   103  N   -0.272013
   104  C    0.015838
   105  C   -0.110012
   106  C    0.029233
   107  C   -0.040229
   108  C   -0.003656
   109  C   -0.032838
   110  C   -0.036077
   111  N   -0.476778
   112  C    0.148704
   113  C   -0.175995
   114  C    0.006758
   115  C    0.138582
   116  C    0.087112
   117  C    0.031554
   118  O   -0.201465
   119  C   -0.063131
   120  C    0.267071
   121  O   -0.263284
   122  O   -0.379042
   123  C    0.150045
   124  H    0.007867
   125  H    0.029032
   126  H   -0.009072
   127  H    0.057265
   128  H    0.044923
   129  H    0.035061
   130  H    0.051789
   131  H    0.033488
   132  H    0.031621
   133  H    0.036283
   134  H    0.048476
   135  H    0.062272
   136  H    0.047844
   137  H    0.064219
   138  H    0.046345
   139  H    0.050911
   140  H    0.050371
   141  H    0.058531
   142  H    0.052406
   143  H    0.036459
   144  H    0.045555
   145  H    0.037060
   146  H    0.064072
   147  H    0.030906
   148  H    0.025086
   149  H    0.049789
   150  H    0.041232
   151  H    0.038629
   152  H    0.043756
   153  H    0.031550
   154  H    0.051124
   155  H    0.073544
   156  H    0.064624
   157  H    0.041710
   158  H    0.053733
 Sum of Mulliken charges =  -0.00000

 Dipole moment (field-independent basis, Debye):
    X=             -5.8815    Y=              1.1731    Z=              3.0492  Tot=              6.7280
 Quadrupole moment (field-independent basis, Debye-Ang):
   XX=           -381.6867   YY=           -466.9082   ZZ=           -524.1103
   XY=              3.1256   XZ=             98.9418   YZ=             37.3382

 Normal termination of Gaussian 16 at Sat Sep 18 07:09:37 2021.
