 Gaussian 16, Revision A.03,
 Gaussian 16:  ES64L-G16RevA.03 25-Dec-2016

 --------------------------------
 #p wB97XD/Def2SVP td=(nstates=5)
 --------------------------------

 --------------------------------
 TDDFT excited states in gaussian
 --------------------------------
 Symbolic Z-matrix:
 Charge =  0 Multiplicity = 1

                         Standard orientation:
 ---------------------------------------------------------------------
 Center     Atomic      Atomic             Coordinates (Angstroms)
 Number     Number       Type             X           Y           Z
 ---------------------------------------------------------------------
      1         12           0        8.656630    0.535910    0.111748
      2          6           0        7.076648   -1.644604   -2.146396
      3          6           0        7.603284    3.179865   -1.817530
      4          6           0        9.490947    2.500644    2.639451
      5          6           0        9.454875   -2.263921    2.146839
      6          7           0        7.276958    0.740258   -1.601275
      7          6           0        6.731970   -0.300015   -2.397469
      8          6           0        6.233794    0.177009   -3.699120
      9          6           0        6.507309    1.740410   -3.610983
     10          6           0        7.208903    1.913094   -2.273064
     11          6           0        7.235051    2.287897   -4.862650
     12          6           0        4.762273   -0.007505   -3.912442
     13          6           0        3.855519    0.196499   -2.689601
     14          1           0        2.420210    0.838337   -2.827877
     15          7           0        8.606924    2.593395    0.397581
     16          6           0        8.258348    3.474363   -0.559525
     17          6           0        8.532910    4.804260   -0.075839
     18          6           0        9.152070    4.646605    1.188611
     19          6           0        9.143807    3.201899    1.469339
     20          6           0        8.187907    6.088907   -0.780055
     21          6           0        9.696995    5.776816    2.061358
     22          8           0        9.616558    6.936862    1.707399
     23          6           0       10.267043    5.666753    3.444492
     24          7           0        9.124949    0.183713    2.185797
     25          6           0        9.491487    1.190658    3.038482
     26          6           0       10.172443    0.628361    4.329456
     27          6           0        9.842322   -0.892071    4.234889
     28          6           0        9.470489   -1.011635    2.773161
     29          6           0       11.700759    0.852723    4.427571
     30          6           0        8.536340   -1.378844    5.023477
     31          6           0        8.669354   -2.608229    5.847228
     32          7           0        8.460378   -1.475368    0.028770
     33          6           0        8.986671   -2.431527    0.805941
     34          6           0        9.003422   -3.749976    0.066828
     35          6           0        8.290481   -3.426393   -1.131276
     36          6           0        7.857479   -2.073448   -1.037876
     37          6           0        9.569087   -5.103845    0.470966
     38          6           0        7.703360   -4.025722   -2.294807
     39          8           0        7.700180   -5.185570   -2.675972
     40          6           0        6.910666   -2.863497   -3.018377
     41          6           0        5.439685   -3.214441   -2.933687
     42          8           0        4.754851   -3.241348   -1.965046
     43          8           0        4.973745   -3.397857   -4.218204
     44          6           0        3.511621   -3.459598   -4.311508
     45          1           0        7.440592    3.992162   -2.528714
     46          1           0        9.934479    3.129112    3.413524
     47          1           0        9.855055   -3.071153    2.763818
     48          1           0        6.780789   -0.356195   -4.476667
     49          1           0        5.636030    2.369075   -3.427541
     50          1           0        6.614833    3.156327   -5.085304
     51          1           0        7.195012    1.505382   -5.620474
     52          1           0        8.244774    2.639481   -4.649704
     53          1           0        4.505611   -0.910544   -4.466924
     54          1           0        4.312921    0.690256   -4.619405
     55          1           0        4.456312    0.782977   -1.993654
     56          1           0        3.804410   -0.811231   -2.276953
     57          1           0        7.723204    6.798544   -0.094732
     58          1           0        7.575305    5.877162   -1.656318
     59          1           0        9.153752    6.479985   -1.100798
     60          1           0        9.565139    5.355207    4.217367
     61          1           0       10.452004    6.715844    3.675847
     62          1           0       11.261924    5.220616    3.464895
     63          1           0        9.709598    1.117021    5.186732
     64          1           0       10.690824   -1.535276    4.469627
     65          1           0       12.198109   -0.113499    4.344896
     66          1           0       11.960681    1.515109    5.253112
     67          1           0       12.022080    1.421690    3.555878
     68          1           0        7.689342   -1.490021    4.346864
     69          1           0        8.303020   -0.538888    5.678022
     70          1           0        8.392470   -2.454747    6.890037
     71          1           0        9.664548   -3.051900    5.810117
     72          1           0        7.994938   -3.395116    5.510565
     73          1           0        8.733008   -5.802989    0.453701
     74          1           0       10.130950   -4.965948    1.395582
     75          1           0       10.212028   -5.406890   -0.355306
     76          1           0        7.233722   -2.721677   -4.049455
     77          1           0        3.010114   -2.874389   -3.540837
     78          1           0        3.295855   -4.520473   -4.184281
     79          1           0        3.273779   -3.243430   -5.352694
     80         12           0       -8.682815    0.167577   -0.069433
     81          6           0       -6.133242   -2.193960   -0.248383
     82          6           0       -6.735742    2.414411   -1.654385
     83          6           0      -11.038553    2.509570    0.555907
     84          6           0      -10.412230   -2.015508    1.963558
     85          7           0       -6.610560    0.082574   -0.850388
     86          6           0       -5.850026   -1.049949   -0.993686
     87          6           0       -4.618746   -0.750981   -1.761331
     88          6           0       -4.720001    0.716854   -2.192116
     89          6           0       -6.112926    1.155528   -1.565004
     90          6           0       -3.569514    1.659104   -1.873600
     91          6           0       -4.418734   -1.796425   -2.999532
     92          6           0       -3.156980   -2.690914   -2.988190
     93          1           0       -2.401425   -2.979509   -4.262062
     94          7           0       -8.920445    2.141913   -0.590746
     95          6           0       -7.983549    2.925907   -1.247116
     96          6           0       -8.471896    4.251608   -1.364909
     97          6           0       -9.736577    4.314148   -0.719408
     98          6           0       -9.956553    2.948071   -0.233536
     99          6           0       -7.643868    5.280468   -2.229928
    100          6           0      -10.573665    5.579459   -0.540127
    101          8           0      -11.639566    5.651939    0.089965
    102          6           0      -10.168629    6.816943   -1.212514
    103          7           0      -10.377551    0.372781    1.289065
    104          6           0      -11.244535    1.364106    1.281243
    105          6           0      -12.351570    1.139943    2.335922
    106          6           0      -12.334063   -0.439406    2.322616
    107          6           0      -10.936286   -0.743158    1.792703
    108          6           0      -12.185550    1.682822    3.803569
    109          6           0      -13.468990   -1.172656    1.459070
    110          6           0      -13.536143   -0.888856    0.014419
    111          7           0       -8.392122   -1.771285    0.809101
    112          6           0       -9.219558   -2.561857    1.630528
    113          6           0       -8.563739   -3.799129    1.911301
    114          6           0       -7.343956   -3.696323    1.272715
    115          6           0       -7.333751   -2.475367    0.521869
    116          6           0       -8.969842   -4.786226    2.892834
    117          6           0       -6.226976   -4.425821    0.893759
    118          8           0       -5.848570   -5.563660    1.190690
    119          6           0       -5.320366   -3.487428   -0.026264
    120          6           0       -4.115557   -3.170824    0.796690
    121          8           0       -3.992515   -2.627912    1.874580
    122          8           0       -3.086285   -3.658057    0.101514
    123          6           0       -1.728127   -3.443659    0.700121
    124          1           0       -6.113036    2.966458   -2.361409
    125          1           0      -11.838996    3.250217    0.598136
    126          1           0      -11.000742   -2.720771    2.553721
    127          1           0       -3.807773   -0.886621   -1.046849
    128          1           0       -4.865705    0.757855   -3.271329
    129          1           0       -3.986996    2.043429   -0.943699
    130          1           0       -3.335321    2.397296   -2.640831
    131          1           0       -2.585741    1.252260   -1.641154
    132          1           0       -4.459146   -1.239501   -3.935175
    133          1           0       -5.183757   -2.571929   -3.045001
    134          1           0       -3.496206   -3.680886   -2.681890
    135          1           0       -2.454792   -2.398208   -2.208709
    136          1           0       -7.476463    6.175897   -1.631660
    137          1           0       -8.422127    5.483578   -2.965665
    138          1           0       -6.641172    4.999006   -2.551765
    139          1           0       -9.161327    7.109965   -0.919834
    140          1           0      -10.739204    7.609851   -0.729522
    141          1           0      -10.338862    6.839506   -2.289209
    142          1           0      -13.311557    1.372280    1.874680
    143          1           0      -12.496343   -0.703095    3.367445
    144          1           0      -11.188085    1.592026    4.231911
    145          1           0      -12.927232    1.099095    4.349982
    146          1           0      -12.441633    2.741430    3.854294
    147          1           0      -14.480574   -0.952148    1.800796
    148          1           0      -13.266929   -2.239935    1.369045
    149          1           0      -12.764465   -1.536902   -0.398725
    150          1           0      -13.319658    0.118564   -0.342329
    151          1           0      -14.446939   -1.147986   -0.524398
    152          1           0       -8.585224   -4.384950    3.831220
    153          1           0       -8.568677   -5.788371    2.744370
    154          1           0      -10.042955   -4.980461    2.894466
    155          1           0       -5.102888   -3.918881   -1.003386
    156          1           0       -1.284491   -2.660871    0.084465
    157          1           0       -1.168741   -4.378785    0.685362
    158          1           0       -1.684176   -3.063619    1.721165
 ---------------------------------------------------------------------

 SCF Done:  E(RwB97XD) =  -4070.58005166     A.U. after   20 cycles

 Excitation energies and oscillator strengths:

 Excited State   1:      Singlet-A      1.6060 eV  772.02 nm  f=0.2742  <S**2>=0.000
     309 -> 315       -0.17654
     312 -> 314        0.67907
     309 <- 315       -0.11603
 This state for optimization and/or second-order correction.
 Total Energy, E(TD-HF/TD-DFT) =  -4070.52103318
 Copying the excited state density for this state as the 1-particle RhoCI density.

 Excited State   2:      Singlet-A      1.6474 eV  752.62 nm  f=0.4478  <S**2>=0.000
     310 -> 316       -0.17971
     311 -> 313        0.67717
     310 <- 316       -0.11443

 Excited State   3:      Singlet-A      2.1199 eV  584.86 nm  f=0.1408  <S**2>=0.000
     310 -> 313        0.64936
     311 -> 316        0.26603

 Excited State   4:      Singlet-A      2.2112 eV  560.70 nm  f=0.0969  <S**2>=0.000
     309 -> 314        0.62716
     312 -> 315        0.31236

 Excited State   5:      Singlet-A      3.4355 eV  360.89 nm  f=0.0000  <S**2>=0.000
     312 -> 313        0.70699

 The electronic state is 1-A.
 Alpha  occ. eigenvalues --  -46.95618 -46.95053 -19.30077 -19.30007 -19.25507
 Alpha  occ. eigenvalues --  -19.24293 -19.23869 -19.23650 -19.23344 -19.23230
 Alpha  occ. eigenvalues --  -14.47117 -14.46595 -14.46522 -14.46367 -14.44290
 Alpha  occ. eigenvalues --  -14.44256 -14.44224 -14.43513 -10.43246 -10.42296
 Alpha  occ. eigenvalues --  -10.39121 -10.38990 -10.38656 -10.38112 -10.35406
 Alpha  occ. eigenvalues --  -10.35373 -10.35373 -10.35174 -10.35172 -10.35073
 Alpha  occ. eigenvalues --  -10.34965 -10.34755 -10.34708 -10.34616 -10.34579
 Alpha  occ. eigenvalues --  -10.34242 -10.34111 -10.34045 -10.33755 -10.33441
 Alpha  occ. eigenvalues --  -10.33068 -10.32972 -10.32935 -10.32751 -10.32686
 Alpha  occ. eigenvalues --  -10.32638 -10.32587 -10.32582 -10.32547 -10.32519
 Alpha  occ. eigenvalues --  -10.32350 -10.32258 -10.32231 -10.32179 -10.32039
 Alpha  occ. eigenvalues --  -10.31990 -10.31937 -10.31852 -10.31799 -10.31641
 Alpha  occ. eigenvalues --  -10.31545 -10.31498 -10.31431 -10.31426 -10.31173
 Alpha  occ. eigenvalues --  -10.31137 -10.30964 -10.30646 -10.30572 -10.30519
 Alpha  occ. eigenvalues --  -10.30489 -10.30475 -10.30363 -10.30279 -10.30276
 Alpha  occ. eigenvalues --  -10.30183 -10.30048 -10.29868 -10.29795 -10.29550
 Alpha  occ. eigenvalues --  -10.29442 -10.29410 -10.29293 -10.29193 -10.28639
 Alpha  occ. eigenvalues --  -10.28505  -3.21482  -3.21122  -1.95073  -1.94675
 Alpha  occ. eigenvalues --   -1.94580  -1.94466  -1.94252  -1.94111  -1.19575
 Alpha  occ. eigenvalues --   -1.19008  -1.12702  -1.12303  -1.11325  -1.11288
 Alpha  occ. eigenvalues --   -1.10737  -1.09390  -1.07377  -1.06704  -1.06244
 Alpha  occ. eigenvalues --   -1.06145  -1.05445  -1.05342  -1.04769  -1.04598
 Alpha  occ. eigenvalues --   -0.95285  -0.94120  -0.91923  -0.91398  -0.91069
 Alpha  occ. eigenvalues --   -0.90563  -0.90392  -0.90258  -0.89831  -0.89571
 Alpha  occ. eigenvalues --   -0.89471  -0.88754  -0.88391  -0.87861  -0.86766
 Alpha  occ. eigenvalues --   -0.86501  -0.86139  -0.86099  -0.84915  -0.84775
 Alpha  occ. eigenvalues --   -0.83889  -0.83722  -0.83410  -0.82931  -0.82602
 Alpha  occ. eigenvalues --   -0.82589  -0.80657  -0.79978  -0.79553  -0.79546
 Alpha  occ. eigenvalues --   -0.79231  -0.78929  -0.78110  -0.77805  -0.77214
 Alpha  occ. eigenvalues --   -0.77207  -0.75418  -0.74807  -0.73779  -0.73587
 Alpha  occ. eigenvalues --   -0.71715  -0.71287  -0.70986  -0.70938  -0.70643
 Alpha  occ. eigenvalues --   -0.69679  -0.69208  -0.69119  -0.67877  -0.67673
 Alpha  occ. eigenvalues --   -0.67304  -0.67198  -0.66716  -0.66673  -0.66497
 Alpha  occ. eigenvalues --   -0.65856  -0.64247  -0.63921  -0.62375  -0.62081
 Alpha  occ. eigenvalues --   -0.61842  -0.61534  -0.61242  -0.61149  -0.61037
 Alpha  occ. eigenvalues --   -0.60540  -0.60245  -0.60169  -0.59796  -0.59512
 Alpha  occ. eigenvalues --   -0.58653  -0.58363  -0.58162  -0.57565  -0.57508
 Alpha  occ. eigenvalues --   -0.57426  -0.57192  -0.56912  -0.56714  -0.56683
 Alpha  occ. eigenvalues --   -0.56517  -0.56141  -0.55232  -0.55121  -0.55117
 Alpha  occ. eigenvalues --   -0.54912  -0.54870  -0.54554  -0.54389  -0.54362
 Alpha  occ. eigenvalues --   -0.54092  -0.54076  -0.53776  -0.53624  -0.53472
 Alpha  occ. eigenvalues --   -0.53157  -0.53034  -0.53008  -0.52951  -0.52284
 Alpha  occ. eigenvalues --   -0.52204  -0.51670  -0.51654  -0.51568  -0.51465
 Alpha  occ. eigenvalues --   -0.51334  -0.51332  -0.51082  -0.51005  -0.50855
 Alpha  occ. eigenvalues --   -0.50792  -0.50641  -0.50410  -0.50378  -0.50220
 Alpha  occ. eigenvalues --   -0.49969  -0.49580  -0.49258  -0.49247  -0.49143
 Alpha  occ. eigenvalues --   -0.49032  -0.48926  -0.48845  -0.48669  -0.48525
 Alpha  occ. eigenvalues --   -0.48425  -0.48124  -0.48059  -0.47950  -0.47854
 Alpha  occ. eigenvalues --   -0.47661  -0.47529  -0.47295  -0.47121  -0.46691
 Alpha  occ. eigenvalues --   -0.46486  -0.46404  -0.46316  -0.46138  -0.46029
 Alpha  occ. eigenvalues --   -0.45992  -0.45950  -0.45662  -0.45569  -0.45278
 Alpha  occ. eigenvalues --   -0.45215  -0.45069  -0.44854  -0.44840  -0.44638
 Alpha  occ. eigenvalues --   -0.44506  -0.44343  -0.44255  -0.44167  -0.44094
 Alpha  occ. eigenvalues --   -0.44009  -0.43872  -0.43681  -0.43562  -0.43170
 Alpha  occ. eigenvalues --   -0.42943  -0.42786  -0.42783  -0.42592  -0.42460
 Alpha  occ. eigenvalues --   -0.42006  -0.41847  -0.41357  -0.41116  -0.40799
 Alpha  occ. eigenvalues --   -0.40624  -0.39999  -0.39959  -0.39927  -0.39580
 Alpha  occ. eigenvalues --   -0.39478  -0.39193  -0.38994  -0.38611  -0.38285
 Alpha  occ. eigenvalues --   -0.37997  -0.37884  -0.37213  -0.36416  -0.36346
 Alpha  occ. eigenvalues --   -0.36104  -0.35682  -0.35410  -0.33695  -0.33624
 Alpha  occ. eigenvalues --   -0.33231  -0.32924  -0.32651  -0.32558  -0.32429
 Alpha  occ. eigenvalues --   -0.32177  -0.32082  -0.31931  -0.26342  -0.25870
 Alpha  occ. eigenvalues --   -0.23200  -0.22963
 Alpha virt. eigenvalues --   -0.07282  -0.07230   0.00008   0.00345   0.02192
 Alpha virt. eigenvalues --    0.02396   0.04389   0.04410   0.04549   0.05347
 Alpha virt. eigenvalues --    0.07253   0.07626   0.07794   0.08014   0.08710

 Mulliken charges:
               1
     1  Mg   0.971111
     2  C   -0.073632
     3  C   -0.089240
     4  C   -0.070083
     5  C   -0.087244
     6  N   -0.366473
     7  C    0.020238
     8  C   -0.041276
     9  C   -0.131958
    10  C    0.060015
    11  C    0.036881
    12  C   -0.025731
    13  C   -0.104856
    14  H    0.037933
    15  N   -0.438627
    16  C    0.155353
    17  C   -0.199131
    18  C   -0.050331
    19  C    0.165395
    20  C    0.110582
    21  C    0.017564
    22  O   -0.237250
    23  C   -0.009503
    24  N   -0.356938
    25  C    0.045659
    26  C   -0.080054
    27  C   -0.111638
    28  C    0.037529
    29  C    0.042883
    30  C    0.014678
    31  C   -0.046013
    32  N   -0.434488
    33  C    0.147719
    34  C   -0.204987
    35  C   -0.044272
    36  C    0.162852
    37  C    0.102197
    38  C    0.124277
    39  O   -0.206112
    40  C   -0.072827
    41  C    0.258111
    42  O   -0.211060
    43  O   -0.374669
    44  C    0.129165
    45  H   -0.002035
    46  H   -0.029916
    47  H    0.002079
    48  H    0.040880
    49  H    0.051795
    50  H    0.037557
    51  H    0.045579
    52  H    0.046555
    53  H    0.018453
    54  H    0.023061
    55  H    0.052500
    56  H    0.056902
    57  H    0.065824
    58  H    0.021077
    59  H    0.056508
    60  H    0.066260
    61  H    0.044880
    62  H    0.054589
    63  H    0.034232
    64  H    0.029795
    65  H    0.040745
    66  H    0.046361
    67  H    0.027684
    68  H    0.056978
    69  H    0.024816
    70  H    0.039159
    71  H    0.025020
    72  H    0.036018
    73  H    0.069643
    74  H    0.038008
    75  H    0.057625
    76  H    0.065097
    77  H    0.071605
    78  H    0.056835
    79  H    0.056086
    80  Mg   0.939047
    81  C   -0.014587
    82  C   -0.073722
    83  C   -0.062340
    84  C   -0.108263
    85  N   -0.378529
    86  C    0.014372
    87  C   -0.066536
    88  C   -0.052665
    89  C   -0.019183
    90  C    0.003247
    91  C    0.003560
    92  C   -0.134962
    93  H    0.035234
    94  N   -0.463730
    95  C    0.198232
    96  C   -0.182637
    97  C   -0.073657
    98  C    0.131202
    99  C    0.083060
   100  C    0.052667
   101  O   -0.248205
   102  C   -0.009979
   103  N   -0.296388
   104  C    0.019966
   105  C   -0.042547
   106  C   -0.112575
   107  C    0.095966
   108  C    0.041939
   109  C    0.013698
   110  C   -0.088379
   111  N   -0.408947
   112  C    0.114977
   113  C   -0.133476
   114  C    0.023091
   115  C    0.108352
   116  C    0.062437
   117  C    0.079637
   118  O   -0.226222
   119  C   -0.091432
   120  C    0.269239
   121  O   -0.244437
   122  O   -0.347484
   123  C    0.119834
   124  H   -0.007626
   125  H    0.014520
   126  H   -0.002500
   127  H    0.048296
   128  H    0.033350
   129  H    0.048524
   130  H    0.041244
   131  H    0.041665
   132  H    0.041116
   133  H    0.042608
   134  H    0.058523
   135  H    0.039582
   136  H    0.037930
   137  H    0.060292
   138  H    0.052777
   139  H    0.039090
   140  H    0.045811
   141  H    0.075246
   142  H    0.019621
   143  H    0.022957
   144  H    0.050174
   145  H    0.040441
   146  H    0.051507
   147  H    0.035959
   148  H    0.028664
   149  H    0.022191
   150  H    0.034896
   151  H    0.039407
   152  H    0.074387
   153  H    0.055881
   154  H    0.035828
   155  H    0.056463
   156  H    0.048305
   157  H    0.070079
   158  H    0.073910
 Sum of Mulliken charges =  -0.00000

 Dipole moment (field-independent basis, Debye):
    X=              2.4554    Y=              2.6209    Z=             -2.1680  Tot=              4.1950
 Quadrupole moment (field-independent basis, Debye-Ang):
   XX=           -454.4917   YY=           -573.8051   ZZ=           -470.5833
   XY=              4.3006   XZ=             35.1021   YZ=            -24.0738

 Normal termination of Gaussian 16 at Sat Sep 18 14:11:45 2021.
