 Gaussian 16, Revision A.03,
 Gaussian 16:  ES64L-G16RevA.03 25-Dec-2016

 --------------------------------
 #p wB97XD/Def2SVP td=(nstates=5)
 --------------------------------

 --------------------------------
 TDDFT excited states in gaussian
 --------------------------------
 Symbolic Z-matrix:
 Charge =  0 Multiplicity = 1

                         Standard orientation:
 ---------------------------------------------------------------------
 Center     Atomic      Atomic             Coordinates (Angstroms)
 Number     Number       Type             X           Y           Z
 ---------------------------------------------------------------------
      1         12           0      -29.769349    0.282782   -0.622659
      2          6           0      -29.070548   -2.274774    1.702153
      3          6           0      -29.347232    2.579160    1.899221
      4          6           0      -30.501460    2.771649   -2.755750
      5          6           0      -30.746467   -2.102214   -2.989138
      6          7           0      -29.142966    0.084792    1.462941
      7          6           0      -28.894477   -0.957822    2.250341
      8          6           0      -28.489342   -0.642167    3.705262
      9          6           0      -28.908033    0.907243    3.689820
     10          6           0      -29.201424    1.208857    2.240474
     11          6           0      -30.084613    1.227358    4.579494
     12          6           0      -26.908876   -0.865139    4.024602
     13          6           0      -26.631670   -1.174582    5.498661
     14          1           0      -25.973800   -2.556993    5.743644
     15          7           0      -29.754401    2.437472   -0.517689
     16          6           0      -29.593664    3.178761    0.679075
     17          6           0      -29.442594    4.563511    0.292586
     18          6           0      -29.749573    4.652612   -1.062190
     19          6           0      -30.005430    3.255952   -1.535132
     20          6           0      -29.234353    5.698465    1.277450
     21          6           0      -29.780016    5.830775   -2.008639
     22          8           0      -29.998212    5.652995   -3.171442
     23          6           0      -29.470135    7.222661   -1.555687
     24          7           0      -30.698753    0.357179   -2.508330
     25          6           0      -30.828542    1.508270   -3.229346
     26          6           0      -31.351634    1.088709   -4.631167
     27          6           0      -30.885323   -0.340170   -4.845138
     28          6           0      -30.779210   -0.783703   -3.367035
     29          6           0      -32.879162    1.127394   -4.633151
     30          6           0      -29.626880   -0.473612   -5.620071
     31          6           0      -28.451499    0.403998   -5.267418
     32          7           0      -29.874020   -1.772639   -0.706422
     33          6           0      -30.293181   -2.625347   -1.710252
     34          6           0      -30.146364   -4.013177   -1.244972
     35          6           0      -29.650096   -3.901977    0.065536
     36          6           0      -29.506894   -2.567989    0.333767
     37          6           0      -30.503489   -5.225337   -1.991346
     38          6           0      -29.099924   -4.622096    1.182513
     39          8           0      -28.914623   -5.862105    1.358606
     40          6           0      -28.673540   -3.538580    2.282167
     41          6           0      -29.493525   -3.835417    3.510922
     42          8           0      -30.673667   -4.021573    3.474701
     43          8           0      -28.781677   -3.821621    4.740966
     44          6           0      -29.634744   -3.790836    5.967811
     45          1           0      -29.268567    3.319926    2.696950
     46          1           0      -30.845018    3.545826   -3.445532
     47          1           0      -30.866588   -2.896250   -3.729450
     48          1           0      -29.027147   -1.296254    4.392717
     49          1           0      -28.015346    1.420491    4.049419
     50          1           0      -29.664435    1.610626    5.509224
     51          1           0      -30.768976    0.386752    4.696018
     52          1           0      -30.531159    2.105316    4.112822
     53          1           0      -26.349587    0.035575    3.769702
     54          1           0      -26.495284   -1.646909    3.387196
     55          1           0      -27.626389   -1.067087    5.931678
     56          1           0      -26.046078   -0.391378    5.979711
     57          1           0      -28.864427    5.206618    2.176286
     58          1           0      -30.252215    6.032956    1.475847
     59          1           0      -28.508573    6.430472    0.922590
     60          1           0      -28.396204    7.121872   -1.397863
     61          1           0      -29.939418    7.509654   -0.615060
     62          1           0      -29.713673    7.939851   -2.340292
     63          1           0      -31.053709    1.739388   -5.452605
     64          1           0      -31.572734   -0.976820   -5.401145
     65          1           0      -33.444279    0.199165   -4.548072
     66          1           0      -33.188782    1.621145   -5.554205
     67          1           0      -33.198344    1.780535   -3.820177
     68          1           0      -29.798361   -0.383174   -6.692953
     69          1           0      -29.324551   -1.506390   -5.447672
     70          1           0      -27.699492   -0.266714   -4.850817
     71          1           0      -28.509065    1.241703   -4.571776
     72          1           0      -28.029614    0.790455   -6.195058
     73          1           0      -31.590238   -5.272056   -2.060491
     74          1           0      -30.045981   -6.027995   -1.413073
     75          1           0      -30.140424   -5.183289   -3.019123
     76          1           0      -27.595023   -3.662619    2.381447
     77          1           0      -30.036704   -4.782834    6.173652
     78          1           0      -30.462278   -3.083360    5.898211
     79          1           0      -29.119801   -3.566668    6.901548
     80         12           0       30.052090   -0.772124    0.457920
     81          6           0       27.816783    1.965417    0.786151
     82          6           0       27.382909   -2.602095   -0.843542
     83          6           0       32.311593   -2.752875   -0.886480
     84          6           0       32.674318    1.535011    1.555654
     85          7           0       27.849243   -0.237386   -0.210913
     86          6           0       27.154479    0.818817    0.279853
     87          6           0       25.669516    0.586382    0.066039
     88          6           0       25.519399   -0.933808    0.126949
     89          6           0       27.000162   -1.304592   -0.395411
     90          6           0       25.276243   -1.589913    1.487369
     91          6           0       25.204188    1.307064   -1.273709
     92          6           0       23.936310    2.047524   -1.103020
     93          1           0       22.898434    1.956647   -2.238591
     94          7           0       29.910880   -2.473353   -0.778309
     95          6           0       28.699834   -3.117160   -1.134504
     96          6           0       29.069656   -4.298356   -1.872865
     97          6           0       30.480411   -4.460142   -1.852221
     98          6           0       30.996207   -3.212241   -1.184714
     99          6           0       28.001625   -5.198123   -2.486595
    100          6           0       31.244939   -5.548647   -2.495811
    101          8           0       30.634147   -6.420057   -3.102200
    102          6           0       32.730451   -5.678534   -2.579050
    103          7           0       32.269315   -0.531397    0.285200
    104          6           0       32.897920   -1.640892   -0.151426
    105          6           0       34.416966   -1.528777    0.071674
    106          6           0       34.559911   -0.202773    1.010534
    107          6           0       33.093529    0.301445    1.007407
    108          6           0       35.108759   -2.862644    0.606267
    109          6           0       35.612649    0.847271    0.535942
    110          6           0       35.094283    2.086430   -0.270679
    111          7           0       30.249631    1.233735    1.038746
    112          6           0       31.362904    1.984380    1.513102
    113          6           0       30.849968    3.307975    2.077696
    114          6           0       29.505016    3.297035    1.744204
    115          6           0       29.198577    2.024456    1.141894
    116          6           0       31.552706    4.479247    2.790792
    117          6           0       28.285704    4.034180    1.846634
    118          8           0       28.046234    5.107540    2.402192
    119          6           0       27.274056    3.238928    1.101392
    120          6           0       27.049869    4.075638   -0.178941
    121          8           0       27.772933    4.125577   -1.171742
    122          8           0       25.875089    4.850905    0.027289
    123          6           0       25.519131    5.794306   -0.953337
    124          1           0       26.574958   -3.259938   -1.170920
    125          1           0       32.972323   -3.556836   -1.216796
    126          1           0       33.357381    2.237275    2.036616
    127          1           0       25.053372    0.948957    0.888707
    128          1           0       24.760840   -1.438498   -0.470262
    129          1           0       24.902961   -0.903222    2.246570
    130          1           0       26.108686   -2.230785    1.778956
    131          1           0       24.441681   -2.258229    1.272170
    132          1           0       25.026465    0.545559   -2.033144
    133          1           0       25.982841    1.895399   -1.759277
    134          1           0       24.296808    3.065016   -0.956151
    135          1           0       23.450563    1.687024   -0.196397
    136          1           0       27.858210   -6.125627   -1.932619
    137          1           0       28.243379   -5.359666   -3.536082
    138          1           0       27.034396   -4.695406   -2.479282
    139          1           0       33.110545   -5.877645   -1.576758
    140          1           0       33.260813   -4.821302   -2.995550
    141          1           0       33.024953   -6.609917   -3.061151
    142          1           0       34.788207   -1.269411   -0.919566
    143          1           0       34.746651   -0.523734    2.034777
    144          1           0       34.522363   -3.742210    0.340911
    145          1           0       35.430461   -2.912916    1.647176
    146          1           0       36.102156   -2.804209    0.158717
    147          1           0       36.418908    0.395385   -0.041282
    148          1           0       36.003871    1.218308    1.482933
    149          1           0       35.991364    2.199352   -0.879894
    150          1           0       34.907897    3.012584    0.273451
    151          1           0       34.247969    1.755458   -0.872952
    152          1           0       31.118198    4.655390    3.774185
    153          1           0       31.154773    5.269574    2.155006
    154          1           0       32.626980    4.335083    2.677745
    155          1           0       26.345032    3.208214    1.670777
    156          1           0       24.616472    6.364292   -0.729792
    157          1           0       25.347054    5.249174   -1.880553
    158          1           0       26.374775    6.467091   -1.017656
 ---------------------------------------------------------------------

 SCF Done:  E(RwB97XD) =  -4070.56014620     A.U. after   20 cycles

 Excitation energies and oscillator strengths:

 Excited State   1:      Singlet-A      1.6241 eV  763.42 nm  f=0.3488  <S**2>=0.000
     310 -> 315       -0.20433
     312 -> 314        0.67801
     310 <- 315       -0.12289
 This state for optimization and/or second-order correction.
 Total Energy, E(TD-HF/TD-DFT) =  -4070.50046269
 Copying the excited state density for this state as the 1-particle RhoCI density.

 Excited State   2:      Singlet-A      1.6527 eV  750.19 nm  f=0.3730  <S**2>=0.000
     309 -> 316       -0.17781
     311 -> 313        0.68543
     309 <- 316       -0.11379

 Excited State   3:      Singlet-A      2.1336 eV  581.11 nm  f=0.0549  <S**2>=0.000
     310 -> 314        0.61270
     312 -> 315        0.34218

 Excited State   4:      Singlet-A      2.1347 eV  580.81 nm  f=0.1147  <S**2>=0.000
     309 -> 313        0.64465
     311 -> 316        0.27147

 Excited State   5:      Singlet-A      3.3779 eV  367.05 nm  f=0.0301  <S**2>=0.000
     299 -> 313        0.15952
     304 -> 313        0.38357
     306 -> 313        0.36692
     308 -> 313       -0.34726
     311 -> 316       -0.19121

 The electronic state is 1-A.
 Alpha  occ. eigenvalues --  -46.97667 -46.94954 -19.29965 -19.29713 -19.26357
 Alpha  occ. eigenvalues --  -19.24935 -19.24146 -19.24005 -19.23273 -19.22582
 Alpha  occ. eigenvalues --  -14.48034 -14.47002 -14.46526 -14.45929 -14.44847
 Alpha  occ. eigenvalues --  -14.44355 -14.44342 -14.43621 -10.44515 -10.43236
 Alpha  occ. eigenvalues --  -10.39182 -10.38753 -10.38596 -10.38069 -10.35945
 Alpha  occ. eigenvalues --  -10.35861 -10.35470 -10.35469 -10.35449 -10.35369
 Alpha  occ. eigenvalues --  -10.35365 -10.35099 -10.35062 -10.35058 -10.34875
 Alpha  occ. eigenvalues --  -10.34786 -10.34753 -10.34515 -10.34127 -10.33660
 Alpha  occ. eigenvalues --  -10.33583 -10.33502 -10.33342 -10.32955 -10.32845
 Alpha  occ. eigenvalues --  -10.32780 -10.32583 -10.32518 -10.32467 -10.32453
 Alpha  occ. eigenvalues --  -10.32320 -10.32318 -10.32310 -10.32271 -10.32247
 Alpha  occ. eigenvalues --  -10.32187 -10.32180 -10.31955 -10.31790 -10.31702
 Alpha  occ. eigenvalues --  -10.31656 -10.31623 -10.31468 -10.31185 -10.31175
 Alpha  occ. eigenvalues --  -10.31147 -10.31139 -10.31083 -10.31050 -10.30702
 Alpha  occ. eigenvalues --  -10.30677 -10.30615 -10.30497 -10.30301 -10.30233
 Alpha  occ. eigenvalues --  -10.30180 -10.29664 -10.29634 -10.29521 -10.29291
 Alpha  occ. eigenvalues --  -10.29189 -10.29052 -10.28958 -10.28918 -10.28388
 Alpha  occ. eigenvalues --  -10.28271  -3.23372  -3.20888  -1.96887  -1.96534
 Alpha  occ. eigenvalues --   -1.96283  -1.94501  -1.93988  -1.93875  -1.18001
 Alpha  occ. eigenvalues --   -1.17731  -1.14379  -1.11861  -1.11555  -1.10871
 Alpha  occ. eigenvalues --   -1.09567  -1.08845  -1.07319  -1.06219  -1.05633
 Alpha  occ. eigenvalues --   -1.05453  -1.04919  -1.04877  -1.03759  -1.03306
 Alpha  occ. eigenvalues --   -0.96416  -0.94916  -0.91993  -0.91320  -0.91042
 Alpha  occ. eigenvalues --   -0.90770  -0.90633  -0.89810  -0.89691  -0.89216
 Alpha  occ. eigenvalues --   -0.88849  -0.88798  -0.88107  -0.87515  -0.86703
 Alpha  occ. eigenvalues --   -0.86613  -0.85580  -0.85421  -0.84621  -0.84586
 Alpha  occ. eigenvalues --   -0.84426  -0.83565  -0.83044  -0.82818  -0.82246
 Alpha  occ. eigenvalues --   -0.81868  -0.80928  -0.79995  -0.79256  -0.79203
 Alpha  occ. eigenvalues --   -0.79003  -0.78811  -0.78211  -0.77974  -0.77160
 Alpha  occ. eigenvalues --   -0.76939  -0.74754  -0.74429  -0.73837  -0.73309
 Alpha  occ. eigenvalues --   -0.71846  -0.71606  -0.70847  -0.70728  -0.69820
 Alpha  occ. eigenvalues --   -0.69262  -0.69096  -0.68829  -0.67782  -0.67317
 Alpha  occ. eigenvalues --   -0.66962  -0.66925  -0.66704  -0.66560  -0.66204
 Alpha  occ. eigenvalues --   -0.65335  -0.64229  -0.63755  -0.62418  -0.61933
 Alpha  occ. eigenvalues --   -0.61909  -0.61774  -0.61280  -0.61152  -0.60956
 Alpha  occ. eigenvalues --   -0.60872  -0.60540  -0.60278  -0.59595  -0.59020
 Alpha  occ. eigenvalues --   -0.58422  -0.58106  -0.57945  -0.57757  -0.57628
 Alpha  occ. eigenvalues --   -0.56861  -0.56705  -0.56519  -0.56444  -0.56006
 Alpha  occ. eigenvalues --   -0.55942  -0.55676  -0.55646  -0.55600  -0.55308
 Alpha  occ. eigenvalues --   -0.54988  -0.54983  -0.54579  -0.54357  -0.54101
 Alpha  occ. eigenvalues --   -0.53899  -0.53811  -0.53626  -0.53617  -0.53449
 Alpha  occ. eigenvalues --   -0.53341  -0.53257  -0.52747  -0.52624  -0.52488
 Alpha  occ. eigenvalues --   -0.52199  -0.52095  -0.51913  -0.51910  -0.51626
 Alpha  occ. eigenvalues --   -0.51544  -0.51408  -0.51173  -0.51083  -0.51031
 Alpha  occ. eigenvalues --   -0.50913  -0.50432  -0.50271  -0.50186  -0.50155
 Alpha  occ. eigenvalues --   -0.49711  -0.49683  -0.49588  -0.49408  -0.49123
 Alpha  occ. eigenvalues --   -0.49089  -0.48782  -0.48671  -0.48273  -0.48020
 Alpha  occ. eigenvalues --   -0.47908  -0.47837  -0.47805  -0.47799  -0.47461
 Alpha  occ. eigenvalues --   -0.47370  -0.47332  -0.47239  -0.47112  -0.47070
 Alpha  occ. eigenvalues --   -0.46917  -0.46495  -0.46375  -0.46237  -0.46088
 Alpha  occ. eigenvalues --   -0.46033  -0.45807  -0.45648  -0.45451  -0.45441
 Alpha  occ. eigenvalues --   -0.45219  -0.45134  -0.45039  -0.44997  -0.44777
 Alpha  occ. eigenvalues --   -0.44465  -0.44401  -0.44353  -0.43977  -0.43747
 Alpha  occ. eigenvalues --   -0.43500  -0.43493  -0.43314  -0.42971  -0.42955
 Alpha  occ. eigenvalues --   -0.42896  -0.42881  -0.42335  -0.42287  -0.42160
 Alpha  occ. eigenvalues --   -0.41961  -0.41652  -0.41423  -0.41070  -0.40508
 Alpha  occ. eigenvalues --   -0.40311  -0.40184  -0.39890  -0.39684  -0.39636
 Alpha  occ. eigenvalues --   -0.39286  -0.39091  -0.38606  -0.38381  -0.38324
 Alpha  occ. eigenvalues --   -0.38226  -0.37730  -0.37189  -0.36626  -0.36505
 Alpha  occ. eigenvalues --   -0.36233  -0.35621  -0.35408  -0.33911  -0.33540
 Alpha  occ. eigenvalues --   -0.33376  -0.32990  -0.32721  -0.32338  -0.32149
 Alpha  occ. eigenvalues --   -0.32149  -0.31637  -0.31453  -0.26080  -0.25971
 Alpha  occ. eigenvalues --   -0.23210  -0.22840
 Alpha virt. eigenvalues --   -0.07300  -0.06889  -0.00736   0.00182   0.01845
 Alpha virt. eigenvalues --    0.02477   0.02920   0.04293   0.04308   0.06259
 Alpha virt. eigenvalues --    0.06843   0.07143   0.07563   0.07713   0.08089

 Mulliken charges:
               1
     1  Mg   0.953830
     2  C   -0.042868
     3  C   -0.110212
     4  C   -0.074433
     5  C   -0.071245
     6  N   -0.321077
     7  C   -0.004082
     8  C   -0.076402
     9  C   -0.141339
    10  C    0.116484
    11  C    0.056679
    12  C    0.009218
    13  C   -0.101877
    14  H    0.060731
    15  N   -0.444517
    16  C    0.147113
    17  C   -0.177182
    18  C   -0.058196
    19  C    0.148159
    20  C    0.068383
    21  C    0.023132
    22  O   -0.209939
    23  C   -0.009804
    24  N   -0.406375
    25  C    0.080461
    26  C   -0.094067
    27  C   -0.044129
    28  C    0.108057
    29  C    0.034231
    30  C    0.007511
    31  C   -0.069517
    32  N   -0.442601
    33  C    0.083803
    34  C   -0.209072
    35  C    0.007010
    36  C    0.127264
    37  C    0.079123
    38  C    0.099121
    39  O   -0.251500
    40  C   -0.045878
    41  C    0.263385
    42  O   -0.210402
    43  O   -0.401512
    44  C    0.135717
    45  H    0.006480
    46  H    0.021243
    47  H   -0.000382
    48  H    0.038138
    49  H    0.035957
    50  H    0.032101
    51  H    0.057756
    52  H    0.022848
    53  H    0.027402
    54  H    0.042851
    55  H    0.027503
    56  H    0.044606
    57  H    0.032545
    58  H    0.076067
    59  H    0.059572
    60  H    0.059857
    61  H    0.052691
    62  H    0.061969
    63  H    0.025018
    64  H    0.018254
    65  H    0.044999
    66  H    0.032955
    67  H    0.031275
    68  H    0.032137
    69  H    0.016189
    70  H    0.030678
    71  H    0.056715
    72  H    0.029945
    73  H    0.053938
    74  H    0.066179
    75  H    0.035072
    76  H    0.077691
    77  H    0.056920
    78  H    0.049859
    79  H    0.051782
    80  Mg   0.936575
    81  C    0.010842
    82  C   -0.075308
    83  C   -0.029831
    84  C   -0.064573
    85  N   -0.298195
    86  C   -0.021626
    87  C   -0.051782
    88  C   -0.134217
    89  C    0.044004
    90  C    0.038295
    91  C    0.033624
    92  C   -0.117006
    93  H    0.034885
    94  N   -0.490174
    95  C    0.145822
    96  C   -0.165622
    97  C   -0.025010
    98  C    0.111608
    99  C    0.096418
   100  C   -0.007000
   101  O   -0.246443
   102  C    0.014079
   103  N   -0.325777
   104  C    0.063000
   105  C   -0.098335
   106  C   -0.020458
   107  C    0.007651
   108  C    0.005959
   109  C   -0.047072
   110  C   -0.048109
   111  N   -0.422863
   112  C    0.106718
   113  C   -0.210736
   114  C   -0.023540
   115  C    0.162015
   116  C    0.090955
   117  C    0.075772
   118  O   -0.216296
   119  C   -0.055113
   120  C    0.276500
   121  O   -0.229459
   122  O   -0.374845
   123  C    0.144818
   124  H    0.004569
   125  H   -0.047404
   126  H   -0.000911
   127  H    0.012661
   128  H    0.029582
   129  H    0.042128
   130  H    0.047025
   131  H    0.028406
   132  H    0.032673
   133  H    0.056502
   134  H    0.045294
   135  H    0.046266
   136  H    0.058317
   137  H    0.061320
   138  H    0.009482
   139  H    0.040877
   140  H    0.071632
   141  H    0.046922
   142  H    0.050779
   143  H    0.037822
   144  H    0.052416
   145  H    0.033871
   146  H    0.031538
   147  H    0.040221
   148  H    0.030978
   149  H    0.035613
   150  H    0.046456
   151  H    0.060474
   152  H    0.072920
   153  H    0.067988
   154  H    0.038965
   155  H    0.061007
   156  H    0.058010
   157  H    0.041814
   158  H    0.053638
 Sum of Mulliken charges =  -0.00000

 Dipole moment (field-independent basis, Debye):
    X=              3.0477    Y=              6.1341    Z=              5.0146  Tot=              8.4889
 Quadrupole moment (field-independent basis, Debye-Ang):
   XX=           -418.9854   YY=           -565.0557   ZZ=           -491.4956
   XY=           -224.0301   XZ=             67.1002   YZ=              6.4645

 Normal termination of Gaussian 16 at Sat Sep 18 09:17:25 2021.
