 Gaussian 16, Revision A.03,
 Gaussian 16:  ES64L-G16RevA.03 25-Dec-2016

 --------------------------------
 #p wB97XD/Def2SVP td=(nstates=5)
 --------------------------------

 --------------------------------
 TDDFT excited states in gaussian
 --------------------------------
 Symbolic Z-matrix:
 Charge =  0 Multiplicity = 1

                         Standard orientation:
 ---------------------------------------------------------------------
 Center     Atomic      Atomic             Coordinates (Angstroms)
 Number     Number       Type             X           Y           Z
 ---------------------------------------------------------------------
      1         12           0       25.987368   -0.301235   -0.543549
      2          6           0       24.637986    2.080988    1.633567
      3          6           0       26.253397   -2.443783    1.927982
      4          6           0       27.973317   -2.280663   -2.528914
      5          6           0       26.173248    2.163552   -3.064617
      6          7           0       25.400350   -0.181231    1.476932
      7          6           0       24.806559    0.833197    2.195311
      8          6           0       24.377339    0.368541    3.580978
      9          6           0       25.119220   -1.001813    3.694458
     10          6           0       25.520889   -1.276878    2.287199
     11          6           0       26.216403   -1.176901    4.722101
     12          6           0       22.832961    0.332674    3.813038
     13          6           0       22.393629   -0.107536    5.213742
     14          1           0       21.420040    0.817309    5.929482
     15          7           0       27.077176   -2.177215   -0.289708
     16          6           0       26.916693   -2.966756    0.792691
     17          6           0       27.575928   -4.222502    0.563622
     18          6           0       28.180042   -4.144733   -0.703075
     19          6           0       27.758617   -2.815224   -1.222370
     20          6           0       27.627298   -5.345906    1.577473
     21          6           0       28.967166   -5.169823   -1.451798
     22          8           0       29.601405   -4.984451   -2.524755
     23          6           0       29.019615   -6.608527   -0.952443
     24          7           0       26.939413   -0.072849   -2.466048
     25          6           0       27.751227   -1.004936   -3.017244
     26          6           0       28.092924   -0.590463   -4.548511
     27          6           0       27.101114    0.600970   -4.790971
     28          6           0       26.638493    0.903929   -3.401954
     29          6           0       29.624833   -0.223423   -4.652763
     30          6           0       25.838235    0.122030   -5.596123
     31          6           0       25.061443   -1.091878   -5.110553
     32          7           0       25.448246    1.762592   -0.754522
     33          6           0       25.597568    2.576094   -1.844014
     34          6           0       25.090212    3.820942   -1.494416
     35          6           0       24.695868    3.763066   -0.126696
     36          6           0       24.936512    2.478367    0.284218
     37          6           0       25.048474    5.073982   -2.295964
     38          6           0       24.151615    4.484176    1.046238
     39          8           0       23.826879    5.649246    1.245005
     40          6           0       24.002007    3.365360    2.216875
     41          6           0       24.526226    3.886767    3.507266
     42          8           0       25.525840    4.656206    3.624197
     43          8           0       23.658161    3.535635    4.446395
     44          6           0       23.746852    4.326248    5.659134
     45          1           0       26.262536   -3.234693    2.681025
     46          1           0       28.574309   -2.913051   -3.186698
     47          1           0       26.127980    2.858431   -3.904629
     48          1           0       24.724976    1.161588    4.243313
     49          1           0       24.449413   -1.829327    3.930807
     50          1           0       26.230925   -0.470323    5.551919
     51          1           0       27.181973   -1.173373    4.215659
     52          1           0       26.208528   -2.226479    5.016751
     53          1           0       22.364100   -0.299146    3.058232
     54          1           0       22.424454    1.325778    3.628919
     55          1           0       23.181661    0.060673    5.947566
     56          1           0       22.054876   -1.143979    5.215619
     57          1           0       27.230374   -5.094183    2.560858
     58          1           0       28.623181   -5.649415    1.899351
     59          1           0       27.111867   -6.249551    1.250662
     60          1           0       29.599103   -6.619809   -0.029732
     61          1           0       29.672539   -7.229555   -1.565305
     62          1           0       28.038622   -7.082014   -0.898837
     63          1           0       27.929257   -1.446404   -5.203266
     64          1           0       27.720269    1.401559   -5.195649
     65          1           0       30.207535   -0.537590   -3.786641
     66          1           0       29.822559    0.844853   -4.742521
     67          1           0       30.137016   -0.720716   -5.475202
     68          1           0       26.315138   -0.067726   -6.557768
     69          1           0       25.081939    0.889918   -5.755978
     70          1           0       25.627472   -1.615657   -4.339951
     71          1           0       24.696265   -1.773238   -5.878222
     72          1           0       24.141026   -0.642756   -4.737344
     73          1           0       24.562907    4.970452   -3.266653
     74          1           0       26.092842    5.319228   -2.486794
     75          1           0       24.601665    5.904975   -1.751115
     76          1           0       22.923771    3.243370    2.316673
     77          1           0       22.747044    4.585920    6.009308
     78          1           0       24.266039    5.280814    5.576802
     79          1           0       24.228767    3.684769    6.397666
     80         12           0      -26.241521    0.656301    0.359261
     81          6           0      -24.988458   -2.662610   -0.015375
     82          6           0      -23.471036    1.655388   -1.169867
     83          6           0      -27.725126    3.630111   -0.254640
     84          6           0      -29.382222   -0.882925    1.042616
     85          7           0      -24.453701   -0.336219   -0.355056
     86          6           0      -24.084609   -1.698791   -0.341541
     87          6           0      -22.668969   -1.957076   -0.947021
     88          6           0      -22.202913   -0.505683   -1.254027
     89          6           0      -23.408106    0.356317   -0.822254
     90          6           0      -20.878859   -0.278458   -0.505718
     91          6           0      -22.573037   -2.901664   -2.221930
     92          6           0      -21.840226   -4.225918   -2.040659
     93          1           0      -20.656738   -4.517760   -2.985674
     94          7           0      -25.686733    2.407538   -0.472350
     95          6           0      -24.448156    2.618626   -1.077849
     96          6           0      -24.300867    3.969564   -1.442432
     97          6           0      -25.449213    4.642189   -1.067355
     98          6           0      -26.353963    3.614340   -0.593728
     99          6           0      -23.069052    4.680667   -2.116115
    100          6           0      -25.616634    6.135620   -1.222043
    101          8           0      -24.745298    6.877669   -1.565979
    102          6           0      -27.036400    6.723789   -0.750868
    103          7           0      -28.270771    1.285803    0.314616
    104          6           0      -28.603145    2.589956    0.068093
    105          6           0      -30.184380    2.662906    0.027144
    106          6           0      -30.720452    1.318869    0.547733
    107          6           0      -29.380604    0.492865    0.632101
    108          6           0      -30.777371    3.894426    0.650609
    109          6           0      -31.631984    0.694833   -0.501619
    110          6           0      -32.645142   -0.312124   -0.025667
    111          7           0      -27.004313   -1.352668    0.739244
    112          6           0      -28.274557   -1.793337    1.024734
    113          6           0      -28.271075   -3.194873    1.238721
    114          6           0      -26.969822   -3.649262    0.918584
    115          6           0      -26.287596   -2.470306    0.505053
    116          6           0      -29.424033   -4.059434    1.558059
    117          6           0      -26.030239   -4.768007    0.763655
    118          8           0      -26.202768   -5.964107    1.034026
    119          6           0      -24.686958   -4.189275    0.174319
    120          6           0      -23.658151   -4.271520    1.176545
    121          8           0      -23.635749   -3.480179    2.148785
    122          8           0      -22.871096   -5.318084    0.858604
    123          6           0      -21.608158   -5.517066    1.621107
    124          1           0      -22.554973    2.024394   -1.636570
    125          1           0      -28.154400    4.623450   -0.401900
    126          1           0      -30.288261   -1.396240    1.370340
    127          1           0      -22.017615   -2.388188   -0.186833
    128          1           0      -22.048754   -0.313233   -2.315336
    129          1           0      -20.647959    0.782921   -0.591880
    130          1           0      -20.020698   -0.840465   -0.873998
    131          1           0      -20.953365   -0.524871    0.554042
    132          1           0      -21.926972   -2.349819   -2.904729
    133          1           0      -23.561961   -3.043538   -2.657957
    134          1           0      -22.582211   -5.020205   -2.129209
    135          1           0      -21.410043   -4.261805   -1.039161
    136          1           0      -23.468975    5.188401   -2.994059
    137          1           0      -22.306046    3.967356   -2.427354
    138          1           0      -22.488944    5.340280   -1.470810
    139          1           0      -26.941040    7.807028   -0.819475
    140          1           0      -27.135411    6.335647    0.263139
    141          1           0      -27.716930    6.265218   -1.468225
    142          1           0      -30.399321    2.741177   -1.039167
    143          1           0      -31.259197    1.337233    1.495056
    144          1           0      -31.763168    3.639723    1.038797
    145          1           0      -30.832642    4.634630   -0.147851
    146          1           0      -30.142649    4.373477    1.395174
    147          1           0      -31.084613    0.229590   -1.321910
    148          1           0      -32.187101    1.446275   -1.063080
    149          1           0      -32.741284   -0.337400    1.059638
    150          1           0      -32.323976   -1.294674   -0.372023
    151          1           0      -33.591235   -0.185861   -0.551946
    152          1           0      -30.193672   -3.517939    2.109008
    153          1           0      -29.019773   -4.869807    2.165150
    154          1           0      -29.831263   -4.364760    0.593919
    155          1           0      -24.396905   -4.601683   -0.792072
    156          1           0      -21.553338   -6.606638    1.613598
    157          1           0      -21.617647   -5.077967    2.618272
    158          1           0      -20.735113   -5.248769    1.025249
 ---------------------------------------------------------------------

 SCF Done:  E(RwB97XD) =  -4070.62254804     A.U. after   19 cycles

 Excitation energies and oscillator strengths:

 Excited State   1:      Singlet-A      1.6680 eV  743.32 nm  f=0.3529  <S**2>=0.000
     310 -> 316        0.17087
     311 -> 313        0.68524
     310 <- 316        0.11137
 This state for optimization and/or second-order correction.
 Total Energy, E(TD-HF/TD-DFT) =  -4070.56125068
 Copying the excited state density for this state as the 1-particle RhoCI density.

 Excited State   2:      Singlet-A      1.6724 eV  741.35 nm  f=0.4248  <S**2>=0.000
     309 -> 315        0.17540
     312 -> 314        0.68387
     309 <- 315        0.11198

 Excited State   3:      Singlet-A      2.0911 eV  592.92 nm  f=0.1653  <S**2>=0.000
     310 -> 313        0.66095
     311 -> 316       -0.23073

 Excited State   4:      Singlet-A      2.2043 eV  562.47 nm  f=0.1140  <S**2>=0.000
     309 -> 314        0.63536
     312 -> 315       -0.29115

 Excited State   5:      Singlet-A      3.0723 eV  403.55 nm  f=0.0091  <S**2>=0.000
     308 -> 313        0.67869

 The electronic state is 1-A.
 Alpha  occ. eigenvalues --  -46.95734 -46.94885 -19.31866 -19.31719 -19.24713
 Alpha  occ. eigenvalues --  -19.24604 -19.24240 -19.24033 -19.23786 -19.23474
 Alpha  occ. eigenvalues --  -14.47533 -14.47194 -14.46797 -14.46437 -14.44380
 Alpha  occ. eigenvalues --  -14.44184 -14.43057 -14.42606 -10.43346 -10.43083
 Alpha  occ. eigenvalues --  -10.39820 -10.39494 -10.39419 -10.38842 -10.36597
 Alpha  occ. eigenvalues --  -10.36219 -10.35751 -10.35724 -10.35526 -10.35186
 Alpha  occ. eigenvalues --  -10.35117 -10.35023 -10.34894 -10.34761 -10.34621
 Alpha  occ. eigenvalues --  -10.34533 -10.34071 -10.34019 -10.33714 -10.33235
 Alpha  occ. eigenvalues --  -10.33025 -10.32651 -10.32610 -10.32429 -10.32428
 Alpha  occ. eigenvalues --  -10.32400 -10.32373 -10.32370 -10.32367 -10.32215
 Alpha  occ. eigenvalues --  -10.32155 -10.31988 -10.31984 -10.31906 -10.31835
 Alpha  occ. eigenvalues --  -10.31826 -10.31817 -10.31815 -10.31814 -10.31658
 Alpha  occ. eigenvalues --  -10.31351 -10.31297 -10.31149 -10.31078 -10.31042
 Alpha  occ. eigenvalues --  -10.31003 -10.30980 -10.30515 -10.30462 -10.30432
 Alpha  occ. eigenvalues --  -10.30397 -10.30342 -10.30286 -10.30258 -10.30234
 Alpha  occ. eigenvalues --  -10.30071 -10.30059 -10.29706 -10.29668 -10.29546
 Alpha  occ. eigenvalues --  -10.29279 -10.29261 -10.28984 -10.28869 -10.28717
 Alpha  occ. eigenvalues --  -10.28276  -3.21580  -3.20924  -1.95174  -1.94671
 Alpha  occ. eigenvalues --   -1.94559  -1.94490  -1.94028  -1.93916  -1.20298
 Alpha  occ. eigenvalues --   -1.18821  -1.14242  -1.11004  -1.10890  -1.10660
 Alpha  occ. eigenvalues --   -1.09571  -1.08110  -1.07521  -1.06400  -1.06166
 Alpha  occ. eigenvalues --   -1.05337  -1.05254  -1.04860  -1.04479  -1.03774
 Alpha  occ. eigenvalues --   -0.94176  -0.93802  -0.91528  -0.91504  -0.91226
 Alpha  occ. eigenvalues --   -0.91211  -0.90696  -0.90364  -0.89987  -0.89300
 Alpha  occ. eigenvalues --   -0.89074  -0.88645  -0.88434  -0.87604  -0.86732
 Alpha  occ. eigenvalues --   -0.86729  -0.86140  -0.85684  -0.85200  -0.84784
 Alpha  occ. eigenvalues --   -0.83848  -0.83829  -0.83314  -0.83119  -0.82649
 Alpha  occ. eigenvalues --   -0.82274  -0.80895  -0.79663  -0.79513  -0.79347
 Alpha  occ. eigenvalues --   -0.79273  -0.78626  -0.78180  -0.78072  -0.77198
 Alpha  occ. eigenvalues --   -0.77112  -0.74741  -0.74732  -0.73729  -0.73722
 Alpha  occ. eigenvalues --   -0.71897  -0.71258  -0.71103  -0.70529  -0.70372
 Alpha  occ. eigenvalues --   -0.69729  -0.69701  -0.69251  -0.67668  -0.67508
 Alpha  occ. eigenvalues --   -0.67476  -0.67214  -0.67018  -0.66691  -0.66577
 Alpha  occ. eigenvalues --   -0.66524  -0.64714  -0.64229  -0.63090  -0.62198
 Alpha  occ. eigenvalues --   -0.61757  -0.61624  -0.61401  -0.61238  -0.60551
 Alpha  occ. eigenvalues --   -0.60473  -0.60207  -0.59528  -0.59257  -0.59158
 Alpha  occ. eigenvalues --   -0.58391  -0.58237  -0.58005  -0.57971  -0.57737
 Alpha  occ. eigenvalues --   -0.57394  -0.57301  -0.56978  -0.56637  -0.56354
 Alpha  occ. eigenvalues --   -0.56214  -0.55783  -0.55259  -0.55115  -0.55113
 Alpha  occ. eigenvalues --   -0.54916  -0.54835  -0.54483  -0.54441  -0.54370
 Alpha  occ. eigenvalues --   -0.53660  -0.53641  -0.53530  -0.53406  -0.53157
 Alpha  occ. eigenvalues --   -0.52928  -0.52534  -0.52463  -0.52435  -0.52283
 Alpha  occ. eigenvalues --   -0.52092  -0.52051  -0.51944  -0.51765  -0.51544
 Alpha  occ. eigenvalues --   -0.51182  -0.51088  -0.50897  -0.50834  -0.50510
 Alpha  occ. eigenvalues --   -0.50464  -0.50397  -0.50274  -0.50175  -0.50033
 Alpha  occ. eigenvalues --   -0.49984  -0.49471  -0.49426  -0.49232  -0.49149
 Alpha  occ. eigenvalues --   -0.48904  -0.48708  -0.48461  -0.48378  -0.48301
 Alpha  occ. eigenvalues --   -0.48251  -0.48042  -0.47893  -0.47781  -0.47588
 Alpha  occ. eigenvalues --   -0.47377  -0.47255  -0.47097  -0.47066  -0.46895
 Alpha  occ. eigenvalues --   -0.46695  -0.46635  -0.46367  -0.46255  -0.46221
 Alpha  occ. eigenvalues --   -0.46080  -0.45814  -0.45754  -0.45655  -0.45450
 Alpha  occ. eigenvalues --   -0.45370  -0.45262  -0.45164  -0.45001  -0.44842
 Alpha  occ. eigenvalues --   -0.44727  -0.44582  -0.44527  -0.44331  -0.44238
 Alpha  occ. eigenvalues --   -0.44010  -0.43844  -0.43827  -0.43592  -0.43565
 Alpha  occ. eigenvalues --   -0.43391  -0.43161  -0.42785  -0.42520  -0.42400
 Alpha  occ. eigenvalues --   -0.42118  -0.42011  -0.41534  -0.41151  -0.41102
 Alpha  occ. eigenvalues --   -0.40627  -0.40402  -0.40134  -0.39865  -0.39588
 Alpha  occ. eigenvalues --   -0.39387  -0.39261  -0.38883  -0.38785  -0.38584
 Alpha  occ. eigenvalues --   -0.38351  -0.37947  -0.36248  -0.36156  -0.36140
 Alpha  occ. eigenvalues --   -0.35964  -0.35208  -0.35059  -0.34178  -0.34034
 Alpha  occ. eigenvalues --   -0.33197  -0.32995  -0.32979  -0.32746  -0.32674
 Alpha  occ. eigenvalues --   -0.32091  -0.31074  -0.30646  -0.26222  -0.26005
 Alpha  occ. eigenvalues --   -0.23608  -0.23078
 Alpha virt. eigenvalues --   -0.07737  -0.07105   0.00215   0.00628   0.01968
 Alpha virt. eigenvalues --    0.02642   0.04517   0.04777   0.04927   0.05435
 Alpha virt. eigenvalues --    0.06605   0.06744   0.07129   0.07212   0.08086

 Mulliken charges:
               1
     1  Mg   0.940563
     2  C    0.025391
     3  C   -0.076098
     4  C   -0.054411
     5  C   -0.071347
     6  N   -0.396438
     7  C   -0.020064
     8  C   -0.029756
     9  C   -0.089295
    10  C    0.104711
    11  C    0.044334
    12  C    0.022554
    13  C   -0.128879
    14  H    0.030695
    15  N   -0.379671
    16  C    0.094844
    17  C   -0.112155
    18  C   -0.048679
    19  C    0.101620
    20  C    0.053088
    21  C    0.041110
    22  O   -0.259327
    23  C   -0.008860
    24  N   -0.351631
    25  C    0.069062
    26  C   -0.145136
    27  C   -0.029958
    28  C    0.039095
    29  C    0.014270
    30  C   -0.014289
    31  C   -0.051435
    32  N   -0.418065
    33  C    0.151647
    34  C   -0.204227
    35  C   -0.041235
    36  C    0.088617
    37  C    0.077111
    38  C    0.161924
    39  O   -0.201877
    40  C   -0.129181
    41  C    0.263435
    42  O   -0.280579
    43  O   -0.330291
    44  C    0.127200
    45  H   -0.027676
    46  H    0.024843
    47  H   -0.001110
    48  H    0.031602
    49  H    0.031537
    50  H    0.056329
    51  H    0.033598
    52  H    0.025683
    53  H    0.024418
    54  H    0.044906
    55  H    0.046517
    56  H    0.062177
    57  H    0.028562
    58  H    0.048710
    59  H    0.055118
    60  H    0.043730
    61  H    0.044642
    62  H    0.064146
    63  H    0.043772
    64  H    0.030759
    65  H    0.043547
    66  H    0.032459
    67  H    0.040115
    68  H    0.029598
    69  H    0.030945
    70  H    0.055288
    71  H    0.043821
    72  H    0.033824
    73  H    0.035241
    74  H    0.042869
    75  H    0.057968
    76  H    0.082037
    77  H    0.053489
    78  H    0.078562
    79  H    0.049583
    80  Mg   0.984505
    81  C   -0.043597
    82  C   -0.132095
    83  C   -0.102526
    84  C   -0.063530
    85  N   -0.377709
    86  C    0.011696
    87  C   -0.047413
    88  C   -0.123595
    89  C    0.121157
    90  C    0.014122
    91  C    0.012529
    92  C   -0.135793
    93  H    0.033913
    94  N   -0.504825
    95  C    0.212803
    96  C   -0.172195
    97  C   -0.054734
    98  C    0.149954
    99  C    0.105806
   100  C    0.008088
   101  O   -0.195245
   102  C   -0.027652
   103  N   -0.393524
   104  C    0.110765
   105  C   -0.081232
   106  C   -0.082602
   107  C    0.108126
   108  C    0.029348
   109  C   -0.045312
   110  C   -0.025394
   111  N   -0.385698
   112  C    0.093521
   113  C   -0.223127
   114  C    0.000602
   115  C    0.116395
   116  C    0.079645
   117  C    0.129007
   118  O   -0.222399
   119  C   -0.072436
   120  C    0.292377
   121  O   -0.279925
   122  O   -0.349469
   123  C    0.124685
   124  H   -0.016746
   125  H   -0.040306
   126  H   -0.012826
   127  H    0.028260
   128  H    0.045438
   129  H    0.027687
   130  H    0.042788
   131  H    0.043020
   132  H    0.041029
   133  H    0.048401
   134  H    0.069492
   135  H    0.032974
   136  H    0.061839
   137  H    0.011500
   138  H    0.062681
   139  H    0.058161
   140  H    0.066156
   141  H    0.068471
   142  H    0.046818
   143  H    0.038434
   144  H    0.041342
   145  H    0.031662
   146  H    0.038556
   147  H    0.030392
   148  H    0.021524
   149  H    0.036031
   150  H    0.029996
   151  H    0.032944
   152  H    0.030621
   153  H    0.066802
   154  H    0.060802
   155  H    0.055743
   156  H    0.061735
   157  H    0.085138
   158  H    0.056420
 Sum of Mulliken charges =  -0.00000

 Dipole moment (field-independent basis, Debye):
    X=             -1.8610    Y=             -4.7640    Z=              0.5464  Tot=              5.1437
 Quadrupole moment (field-independent basis, Debye-Ang):
   XX=           -590.8326   YY=           -567.7283   ZZ=           -478.9770
   XY=           -219.7218   XZ=             69.9045   YZ=            -11.6752

 Normal termination of Gaussian 16 at Sun Sep 19 02:09:12 2021.
