 Gaussian 16, Revision A.03,
 Gaussian 16:  ES64L-G16RevA.03 25-Dec-2016

 --------------------------------
 #p wB97XD/Def2SVP td=(nstates=5)
 --------------------------------

 --------------------------------
 TDDFT excited states in gaussian
 --------------------------------
 Symbolic Z-matrix:
 Charge =  0 Multiplicity = 1

                         Standard orientation:
 ---------------------------------------------------------------------
 Center     Atomic      Atomic             Coordinates (Angstroms)
 Number     Number       Type             X           Y           Z
 ---------------------------------------------------------------------
      1         12           0       16.862688   -0.394475    0.467987
      2          6           0       15.662597    2.085777   -1.567620
      3          6           0       18.005576    1.902228    2.617016
      4          6           0       18.197656   -2.935331    2.235772
      5          6           0       16.064795   -2.793060   -2.145332
      6          7           0       17.057066    1.810282    0.353345
      7          6           0       16.405321    2.617991   -0.491873
      8          6           0       16.592070    4.162701   -0.062118
      9          6           0       17.352422    3.972587    1.303423
     10          6           0       17.542437    2.449753    1.453977
     11          6           0       18.634873    4.818946    1.421515
     12          6           0       15.253676    4.942887    0.073252
     13          6           0       15.268257    6.316333    0.820478
     14          1           0       15.211288    7.626033   -0.054011
     15          7           0       18.004888   -0.495446    2.182672
     16          6           0       18.282829    0.521657    2.971482
     17          6           0       18.995867    0.023422    4.137896
     18          6           0       19.181023   -1.387616    4.028520
     19          6           0       18.441840   -1.666430    2.777668
     20          6           0       19.613797    0.883197    5.228125
     21          6           0       19.959219   -2.361294    4.907406
     22          8           0       20.251635   -3.483341    4.504253
     23          6           0       20.366475   -1.925429    6.271333
     24          7           0       17.134173   -2.559735    0.065133
     25          6           0       17.665175   -3.370109    0.972960
     26          6           0       17.524001   -4.849971    0.579793
     27          6           0       16.670877   -4.730565   -0.680377
     28          6           0       16.657305   -3.271291   -0.945085
     29          6           0       18.807231   -5.676084    0.406824
     30          6           0       15.372156   -5.494140   -0.620155
     31          6           0       15.205734   -6.662588   -1.656042
     32          7           0       16.012606   -0.404396   -1.391263
     33          6           0       15.665704   -1.443954   -2.318065
     34          6           0       14.918563   -0.916849   -3.438778
     35          6           0       14.908436    0.470650   -3.124543
     36          6           0       15.575748    0.708541   -1.916370
     37          6           0       14.186841   -1.592432   -4.544434
     38          6           0       14.261130    1.676839   -3.575119
     39          8           0       13.388747    1.926690   -4.420327
     40          6           0       14.779956    2.805616   -2.719817
     41          6           0       15.740414    3.662262   -3.573962
     42          8           0       16.606578    3.264663   -4.368130
     43          8           0       15.478608    4.971346   -3.297736
     44          6           0       16.264163    6.009747   -4.037041
     45          1           0       18.314564    2.536690    3.450359
     46          1           0       18.763910   -3.781196    2.631159
     47          1           0       15.734355   -3.585160   -2.819658
     48          1           0       17.248821    4.566443   -0.831829
     49          1           0       16.666915    4.258974    2.100990
     50          1           0       18.643941    5.239053    2.426675
     51          1           0       18.632073    5.662388    0.730995
     52          1           0       19.521549    4.208068    1.251566
     53          1           0       14.640595    4.336383    0.739854
     54          1           0       14.831369    5.131552   -0.913680
     55          1           0       16.243043    6.401426    1.301840
     56          1           0       14.412859    6.355306    1.494043
     57          1           0       19.427822    1.942713    5.052369
     58          1           0       20.691138    0.721398    5.253939
     59          1           0       19.226272    0.629242    6.213935
     60          1           0       19.461922   -1.512909    6.719102
     61          1           0       21.148745   -1.188521    6.450768
     62          1           0       20.727653   -2.748318    6.887242
     63          1           0       16.946471   -5.343123    1.360944
     64          1           0       17.231056   -5.194679   -1.491910
     65          1           0       18.553770   -6.646334    0.833277
     66          1           0       19.654525   -5.171523    0.870935
     67          1           0       19.160283   -5.748889   -0.621795
     68          1           0       14.627651   -4.754405   -0.912721
     69          1           0       15.165336   -5.928768    0.357390
     70          1           0       16.085702   -6.719989   -2.297270
     71          1           0       14.346777   -6.417917   -2.281642
     72          1           0       14.953663   -7.633793   -1.229984
     73          1           0       14.143378   -2.666251   -4.364356
     74          1           0       14.827944   -1.481599   -5.418205
     75          1           0       13.202357   -1.122429   -4.553092
     76          1           0       13.883635    3.357831   -2.436750
     77          1           0       17.339239    5.833849   -4.081427
     78          1           0       16.094646    7.030240   -3.695180
     79          1           0       15.936347    5.933414   -5.073631
     80         12           0      -16.418070   -0.874088    0.142445
     81          6           0      -18.180102    2.022174    1.148360
     82          6           0      -13.961053    1.167444   -1.092177
     83          6           0      -15.107315   -3.518833   -1.359243
     84          6           0      -19.228261   -2.768276    1.017851
     85          7           0      -16.189409    1.356645   -0.101880
     86          6           0      -17.003558    2.320036    0.499603
     87          6           0      -16.295581    3.697171    0.477048
     88          6           0      -14.944973    3.395568   -0.269499
     89          6           0      -14.968381    1.858120   -0.493536
     90          6           0      -14.586695    4.290730   -1.442883
     91          6           0      -16.089955    4.385239    1.835550
     92          6           0      -16.669987    5.824519    1.907126
     93          1           0      -15.685987    6.903417    2.301709
     94          7           0      -14.699987   -1.125166   -0.993058
     95          6           0      -13.820079   -0.182885   -1.438357
     96          6           0      -12.711836   -0.873869   -2.053270
     97          6           0      -13.109043   -2.261862   -2.273149
     98          6           0      -14.364366   -2.307482   -1.539175
     99          6           0      -11.429236   -0.096035   -2.653638
    100          6           0      -12.621420   -3.283252   -3.208141
    101          8           0      -13.005140   -4.412693   -3.319385
    102          6           0      -11.506913   -2.843510   -4.152875
    103          7           0      -17.205192   -2.837222   -0.302618
    104          6           0      -16.419728   -3.761936   -0.888407
    105          6           0      -17.036846   -5.156516   -0.759441
    106          6           0      -18.137501   -4.944929    0.292470
    107          6           0      -18.194989   -3.437047    0.394230
    108          6           0      -17.622286   -5.666840   -2.155314
    109          6           0      -17.638960   -5.580160    1.688704
    110          6           0      -16.520641   -4.793758    2.425697
    111          7           0      -18.310203   -0.560386    1.037686
    112          6           0      -19.304507   -1.414794    1.328460
    113          6           0      -20.374575   -0.668506    1.933883
    114          6           0      -19.958242    0.649539    1.926540
    115          6           0      -18.706058    0.705577    1.308409
    116          6           0      -21.709893   -1.162411    2.457108
    117          6           0      -20.441719    1.986270    2.282487
    118          8           0      -21.447196    2.499726    2.685407
    119          6           0      -19.279721    2.926816    1.867122
    120          6           0      -19.869680    3.883850    0.898410
    121          8           0      -20.452577    3.503537   -0.085737
    122          8           0      -19.755977    5.208031    1.290254
    123          6           0      -20.580367    6.202497    0.525294
    124          1           0      -13.098835    1.807897   -1.289908
    125          1           0      -14.663702   -4.444554   -1.732715
    126          1           0      -20.048340   -3.294473    1.510904
    127          1           0      -16.849215    4.362075   -0.186220
    128          1           0      -14.127133    3.640064    0.408617
    129          1           0      -15.454744    4.847233   -1.793181
    130          1           0      -14.134842    3.758038   -2.280024
    131          1           0      -13.904707    5.041533   -1.044570
    132          1           0      -15.067938    4.541991    2.180569
    133          1           0      -16.541761    3.800037    2.636172
    134          1           0      -17.583513    5.857979    2.500712
    135          1           0      -16.972892    6.104639    0.899028
    136          1           0      -10.534479   -0.602620   -2.292034
    137          1           0      -11.304420    0.940387   -2.342310
    138          1           0      -11.351528    0.030560   -3.733444
    139          1           0      -10.690926   -2.591000   -3.475340
    140          1           0      -11.908422   -1.970066   -4.665699
    141          1           0      -11.138261   -3.624805   -4.818259
    142          1           0      -16.353583   -5.899158   -0.346082
    143          1           0      -19.160425   -5.264127    0.091642
    144          1           0      -17.559618   -6.755295   -2.143812
    145          1           0      -17.128673   -5.351635   -3.075226
    146          1           0      -18.667521   -5.359127   -2.129674
    147          1           0      -17.317312   -6.616737    1.589862
    148          1           0      -18.434769   -5.498848    2.429221
    149          1           0      -16.067161   -5.307537    3.272672
    150          1           0      -16.965869   -3.875655    2.809384
    151          1           0      -15.762183   -4.533217    1.686762
    152          1           0      -21.635890   -1.857559    3.293097
    153          1           0      -22.137667   -1.689704    1.604823
    154          1           0      -22.400781   -0.349824    2.681711
    155          1           0      -19.040433    3.448596    2.793549
    156          1           0      -19.826446    6.980058    0.402411
    157          1           0      -21.420291    6.592966    1.099592
    158          1           0      -21.019953    5.930490   -0.434005
 ---------------------------------------------------------------------

 SCF Done:  E(RwB97XD) =  -4070.62132988     A.U. after   19 cycles

 Excitation energies and oscillator strengths:

 Excited State   1:      Singlet-A      1.6441 eV  754.10 nm  f=0.4032  <S**2>=0.000
     309 -> 316        0.18101
     311 -> 313        0.68335
     309 <- 316        0.11665
 This state for optimization and/or second-order correction.
 Total Energy, E(TD-HF/TD-DFT) =  -4070.56090895
 Copying the excited state density for this state as the 1-particle RhoCI density.

 Excited State   2:      Singlet-A      1.6637 eV  745.24 nm  f=0.3999  <S**2>=0.000
     310 -> 315       -0.18128
     312 -> 314        0.67994
     310 <- 315       -0.11226

 Excited State   3:      Singlet-A      2.1359 eV  580.48 nm  f=0.1335  <S**2>=0.000
     309 -> 313        0.65465
     311 -> 316       -0.25216

 Excited State   4:      Singlet-A      2.2223 eV  557.91 nm  f=0.1096  <S**2>=0.000
     310 -> 314        0.63694
     312 -> 315        0.28924

 Excited State   5:      Singlet-A      3.7674 eV  329.10 nm  f=0.0000  <S**2>=0.000
     312 -> 313        0.70708

 The electronic state is 1-A.
 Alpha  occ. eigenvalues --  -46.95877 -46.95562 -19.30865 -19.30367 -19.24653
 Alpha  occ. eigenvalues --  -19.24606 -19.24423 -19.24207 -19.23397 -19.22771
 Alpha  occ. eigenvalues --  -14.46715 -14.46693 -14.46509 -14.46297 -14.44715
 Alpha  occ. eigenvalues --  -14.44356 -14.43914 -14.43821 -10.43440 -10.42635
 Alpha  occ. eigenvalues --  -10.40107 -10.39178 -10.38298 -10.37383 -10.35953
 Alpha  occ. eigenvalues --  -10.35753 -10.35572 -10.35561 -10.35031 -10.34790
 Alpha  occ. eigenvalues --  -10.34766 -10.34754 -10.34516 -10.34465 -10.34379
 Alpha  occ. eigenvalues --  -10.34255 -10.34056 -10.34008 -10.33973 -10.33807
 Alpha  occ. eigenvalues --  -10.33377 -10.33362 -10.33188 -10.32821 -10.32817
 Alpha  occ. eigenvalues --  -10.32764 -10.32464 -10.32259 -10.32215 -10.32188
 Alpha  occ. eigenvalues --  -10.32156 -10.32088 -10.32053 -10.32022 -10.31936
 Alpha  occ. eigenvalues --  -10.31907 -10.31836 -10.31694 -10.31606 -10.31536
 Alpha  occ. eigenvalues --  -10.31348 -10.31078 -10.31072 -10.31000 -10.30994
 Alpha  occ. eigenvalues --  -10.30753 -10.30747 -10.30671 -10.30638 -10.30566
 Alpha  occ. eigenvalues --  -10.30469 -10.30435 -10.30349 -10.30271 -10.30215
 Alpha  occ. eigenvalues --  -10.30148 -10.30073 -10.30068 -10.29819 -10.29797
 Alpha  occ. eigenvalues --  -10.29567 -10.29534 -10.29460 -10.29098 -10.28910
 Alpha  occ. eigenvalues --  -10.28461  -3.21740  -3.21530  -1.95307  -1.95111
 Alpha  occ. eigenvalues --   -1.94874  -1.94699  -1.94644  -1.94513  -1.17842
 Alpha  occ. eigenvalues --   -1.17753  -1.13920  -1.13265  -1.12643  -1.10218
 Alpha  occ. eigenvalues --   -1.09821  -1.08752  -1.07762  -1.07202  -1.06439
 Alpha  occ. eigenvalues --   -1.06328  -1.05937  -1.05863  -1.05014  -1.04000
 Alpha  occ. eigenvalues --   -0.94341  -0.93269  -0.91805  -0.90769  -0.90668
 Alpha  occ. eigenvalues --   -0.90617  -0.90148  -0.90131  -0.89669  -0.89528
 Alpha  occ. eigenvalues --   -0.89112  -0.88979  -0.88507  -0.88264  -0.86333
 Alpha  occ. eigenvalues --   -0.86137  -0.85389  -0.85249  -0.84389  -0.84313
 Alpha  occ. eigenvalues --   -0.84091  -0.83142  -0.83063  -0.82814  -0.82103
 Alpha  occ. eigenvalues --   -0.82032  -0.80524  -0.80317  -0.79502  -0.79348
 Alpha  occ. eigenvalues --   -0.78700  -0.78698  -0.78073  -0.78043  -0.77314
 Alpha  occ. eigenvalues --   -0.77149  -0.75096  -0.74660  -0.73741  -0.73692
 Alpha  occ. eigenvalues --   -0.71391  -0.71282  -0.71198  -0.71091  -0.70054
 Alpha  occ. eigenvalues --   -0.69727  -0.69607  -0.69232  -0.67801  -0.67415
 Alpha  occ. eigenvalues --   -0.67282  -0.67137  -0.66922  -0.66448  -0.66444
 Alpha  occ. eigenvalues --   -0.65934  -0.64649  -0.64281  -0.62760  -0.62410
 Alpha  occ. eigenvalues --   -0.61688  -0.61650  -0.61280  -0.60898  -0.60726
 Alpha  occ. eigenvalues --   -0.60646  -0.60095  -0.60010  -0.59533  -0.59398
 Alpha  occ. eigenvalues --   -0.58339  -0.57976  -0.57671  -0.57335  -0.57159
 Alpha  occ. eigenvalues --   -0.57110  -0.56583  -0.56493  -0.56108  -0.56091
 Alpha  occ. eigenvalues --   -0.55712  -0.55374  -0.55356  -0.54924  -0.54766
 Alpha  occ. eigenvalues --   -0.54593  -0.54509  -0.54329  -0.54144  -0.54056
 Alpha  occ. eigenvalues --   -0.53824  -0.53652  -0.53465  -0.53210  -0.53154
 Alpha  occ. eigenvalues --   -0.53076  -0.52676  -0.52676  -0.52479  -0.51993
 Alpha  occ. eigenvalues --   -0.51891  -0.51761  -0.51735  -0.51629  -0.51430
 Alpha  occ. eigenvalues --   -0.51303  -0.51288  -0.51228  -0.51023  -0.50968
 Alpha  occ. eigenvalues --   -0.50909  -0.50509  -0.50333  -0.50188  -0.50154
 Alpha  occ. eigenvalues --   -0.49863  -0.49787  -0.49647  -0.49524  -0.49399
 Alpha  occ. eigenvalues --   -0.49266  -0.48954  -0.48761  -0.48362  -0.48351
 Alpha  occ. eigenvalues --   -0.48101  -0.48060  -0.48039  -0.47908  -0.47813
 Alpha  occ. eigenvalues --   -0.47485  -0.47230  -0.47038  -0.46938  -0.46702
 Alpha  occ. eigenvalues --   -0.46471  -0.46464  -0.46356  -0.46090  -0.45988
 Alpha  occ. eigenvalues --   -0.45960  -0.45803  -0.45592  -0.45564  -0.45352
 Alpha  occ. eigenvalues --   -0.45275  -0.44988  -0.44868  -0.44836  -0.44744
 Alpha  occ. eigenvalues --   -0.44384  -0.44289  -0.44203  -0.44022  -0.44003
 Alpha  occ. eigenvalues --   -0.43937  -0.43922  -0.43785  -0.43480  -0.43363
 Alpha  occ. eigenvalues --   -0.43295  -0.43131  -0.42789  -0.42749  -0.42378
 Alpha  occ. eigenvalues --   -0.42224  -0.41637  -0.41214  -0.41017  -0.40979
 Alpha  occ. eigenvalues --   -0.40222  -0.40210  -0.40008  -0.39813  -0.39802
 Alpha  occ. eigenvalues --   -0.39208  -0.39143  -0.38714  -0.38348  -0.38239
 Alpha  occ. eigenvalues --   -0.38207  -0.37913  -0.36396  -0.36299  -0.36033
 Alpha  occ. eigenvalues --   -0.36022  -0.35640  -0.35598  -0.33951  -0.33822
 Alpha  occ. eigenvalues --   -0.33360  -0.33241  -0.32819  -0.32551  -0.32367
 Alpha  occ. eigenvalues --   -0.32207  -0.31984  -0.31846  -0.26097  -0.25867
 Alpha  occ. eigenvalues --   -0.23387  -0.22948
 Alpha virt. eigenvalues --   -0.07527  -0.06932   0.00124   0.00489   0.02596
 Alpha virt. eigenvalues --    0.02602   0.04583   0.04586   0.04805   0.05039
 Alpha virt. eigenvalues --    0.07446   0.07562   0.07799   0.07919   0.08921

 Mulliken charges:
               1
     1  Mg   0.970378
     2  C   -0.074779
     3  C   -0.078847
     4  C   -0.049415
     5  C   -0.066289
     6  N   -0.355572
     7  C   -0.026201
     8  C   -0.008786
     9  C   -0.153534
    10  C    0.120095
    11  C    0.024361
    12  C   -0.009616
    13  C   -0.131329
    14  H    0.015024
    15  N   -0.438402
    16  C    0.116888
    17  C   -0.187004
    18  C   -0.059099
    19  C    0.130899
    20  C    0.069564
    21  C    0.087762
    22  O   -0.227273
    23  C   -0.033504
    24  N   -0.274193
    25  C   -0.007264
    26  C   -0.114776
    27  C   -0.055391
    28  C    0.009594
    29  C    0.036082
    30  C    0.000414
    31  C   -0.068099
    32  N   -0.456919
    33  C    0.123414
    34  C   -0.170414
    35  C   -0.076945
    36  C    0.205909
    37  C    0.109161
    38  C    0.102662
    39  O   -0.239470
    40  C   -0.055619
    41  C    0.293631
    42  O   -0.265997
    43  O   -0.365215
    44  C    0.138535
    45  H   -0.019870
    46  H    0.029551
    47  H    0.004119
    48  H    0.040440
    49  H    0.037067
    50  H    0.034008
    51  H    0.041473
    52  H    0.049687
    53  H    0.031889
    54  H    0.073377
    55  H    0.048355
    56  H    0.065590
    57  H    0.031735
    58  H    0.051527
    59  H    0.041239
    60  H    0.048812
    61  H    0.063255
    62  H    0.052504
    63  H    0.038863
    64  H    0.021362
    65  H    0.046550
    66  H    0.044300
    67  H    0.029804
    68  H    0.030472
    69  H    0.036916
    70  H    0.033121
    71  H    0.033414
    72  H    0.041996
    73  H    0.019336
    74  H    0.065447
    75  H    0.081029
    76  H    0.069558
    77  H    0.058606
    78  H    0.063566
    79  H    0.056480
    80  Mg   0.945765
    81  C   -0.040703
    82  C   -0.093332
    83  C   -0.065170
    84  C   -0.068552
    85  N   -0.371811
    86  C    0.009021
    87  C   -0.037831
    88  C   -0.103054
    89  C    0.075258
    90  C    0.021442
    91  C    0.015403
    92  C   -0.141886
    93  H    0.025683
    94  N   -0.445114
    95  C    0.174557
    96  C   -0.128315
    97  C   -0.081765
    98  C    0.149703
    99  C    0.018001
   100  C    0.023377
   101  O   -0.210402
   102  C   -0.005972
   103  N   -0.331088
   104  C    0.048550
   105  C   -0.089277
   106  C   -0.066663
   107  C    0.055841
   108  C    0.021707
   109  C   -0.041442
   110  C   -0.066496
   111  N   -0.412082
   112  C    0.080758
   113  C   -0.175979
   114  C   -0.085137
   115  C    0.178219
   116  C    0.073481
   117  C    0.147679
   118  O   -0.174288
   119  C   -0.066674
   120  C    0.252331
   121  O   -0.231216
   122  O   -0.382107
   123  C    0.126240
   124  H   -0.009942
   125  H    0.025898
   126  H   -0.003924
   127  H    0.040948
   128  H    0.033964
   129  H    0.030256
   130  H    0.043394
   131  H    0.031399
   132  H    0.042729
   133  H    0.032953
   134  H    0.067781
   135  H    0.036378
   136  H    0.049035
   137  H    0.027061
   138  H    0.053940
   139  H    0.041794
   140  H    0.056575
   141  H    0.049730
   142  H    0.042151
   143  H    0.039928
   144  H    0.039806
   145  H    0.057698
   146  H    0.036731
   147  H    0.045220
   148  H    0.027616
   149  H    0.048285
   150  H    0.041034
   151  H    0.039435
   152  H    0.051828
   153  H    0.041779
   154  H    0.060816
   155  H    0.062928
   156  H    0.053002
   157  H    0.061559
   158  H    0.073555
 Sum of Mulliken charges =  -0.00000

 Dipole moment (field-independent basis, Debye):
    X=              3.7746    Y=              0.9598    Z=              6.2594  Tot=              7.3722
 Quadrupole moment (field-independent basis, Debye-Ang):
   XX=           -603.6878   YY=           -462.7655   ZZ=           -519.4705
   XY=             39.6358   XZ=             61.6040   YZ=              1.2861

 Normal termination of Gaussian 16 at Sun Sep 19 06:48:43 2021.
