 Gaussian 16, Revision A.03,
 Gaussian 16:  ES64L-G16RevA.03 25-Dec-2016

 --------------------------------
 #p wB97XD/Def2SVP td=(nstates=5)
 --------------------------------

 --------------------------------
 TDDFT excited states in gaussian
 --------------------------------
 Symbolic Z-matrix:
 Charge =  0 Multiplicity = 1

                         Standard orientation:
 ---------------------------------------------------------------------
 Center     Atomic      Atomic             Coordinates (Angstroms)
 Number     Number       Type             X           Y           Z
 ---------------------------------------------------------------------
      1         12           0       32.437287    0.013872   -0.120193
      2          6           0       29.075692    0.109026    0.604025
      3          6           0       32.154894   -3.096292   -1.525375
      4          6           0       35.822631    0.026127   -1.020587
      5          6           0       32.681967    3.407699    0.469959
      6          7           0       30.700005   -1.197860   -0.583702
      7          6           0       29.412651   -1.090949   -0.050431
      8          6           0       28.518695   -2.245403   -0.510163
      9          6           0       29.610364   -3.235038   -0.990684
     10          6           0       30.931815   -2.452729   -1.135206
     11          6           0       29.688216   -4.515708   -0.131087
     12          6           0       27.532254   -1.816065   -1.614230
     13          6           0       26.067140   -2.363246   -1.505717
     14          1           0       25.357658   -2.587136   -2.783775
     15          7           0       33.764857   -1.347202   -1.062390
     16          6           0       33.484234   -2.601342   -1.484534
     17          6           0       34.656493   -3.355911   -1.812930
     18          6           0       35.756391   -2.523574   -1.547874
     19          6           0       35.134828   -1.191888   -1.153917
     20          6           0       34.651446   -4.836094   -2.200306
     21          6           0       37.278230   -2.883865   -1.704222
     22          8           0       37.580212   -4.003338   -2.191346
     23          6           0       38.462545   -1.949360   -1.204496
     24          7           0       33.957366    1.575433   -0.541710
     25          6           0       35.267622    1.295812   -0.746039
     26          6           0       36.155551    2.505423   -0.604734
     27          6           0       35.170791    3.614602   -0.176075
     28          6           0       33.862440    2.833333   -0.030404
     29          6           0       37.386863    2.305774    0.339963
     30          6           0       35.158034    4.869901   -1.172435
     31          6           0       35.870145    6.118022   -0.638185
     32          7           0       31.187050    1.479259    0.478337
     33          6           0       31.396903    2.853969    0.724701
     34          6           0       30.213693    3.412129    1.392544
     35          6           0       29.332554    2.340149    1.420746
     36          6           0       29.938229    1.266044    0.748184
     37          6           0       29.957802    4.785841    1.900556
     38          6           0       27.978304    1.942544    1.831118
     39          8           0       27.146773    2.486204    2.576532
     40          6           0       27.768187    0.449759    1.353693
     41          6           0       27.518741   -0.480399    2.533306
     42          8           0       28.131416   -0.520537    3.604942
     43          8           0       26.424848   -1.196351    2.146915
     44          6           0       25.829226   -2.063112    3.149958
     45          1           0       32.078965   -4.090395   -1.970647
     46          1           0       36.897356    0.133843   -1.181612
     47          1           0       32.693568    4.478028    0.685301
     48          1           0       27.931512   -2.610532    0.333105
     49          1           0       29.261252   -3.528299   -1.980697
     50          1           0       28.829855   -4.810549    0.472517
     51          1           0       30.474532   -4.327248    0.599710
     52          1           0       29.931178   -5.396451   -0.725068
     53          1           0       27.910524   -2.007818   -2.617975
     54          1           0       27.565250   -0.726312   -1.608742
     55          1           0       25.476072   -1.672701   -0.904208
     56          1           0       26.101233   -3.345934   -1.033259
     57          1           0       35.302132   -5.328503   -1.477997
     58          1           0       34.838829   -4.936685   -3.269426
     59          1           0       33.639538   -5.170498   -1.971750
     60          1           0       38.645483   -1.239456   -2.010286
     61          1           0       39.327875   -2.599737   -1.078915
     62          1           0       38.190286   -1.624445   -0.199938
     63          1           0       36.564360    2.736916   -1.588377
     64          1           0       35.270222    3.983357    0.844556
     65          1           0       37.508381    3.145736    1.023368
     66          1           0       38.321462    2.188326   -0.208214
     67          1           0       37.279893    1.358307    0.866520
     68          1           0       34.149051    5.223964   -1.383442
     69          1           0       35.548435    4.576476   -2.146842
     70          1           0       36.414178    6.604875   -1.447762
     71          1           0       36.573858    5.833292    0.143706
     72          1           0       35.199640    6.854697   -0.196037
     73          1           0       30.884297    5.350053    1.793725
     74          1           0       29.448071    4.737569    2.863021
     75          1           0       29.290411    5.251395    1.174540
     76          1           0       26.964247    0.356200    0.623121
     77          1           0       26.555194   -2.645957    3.718270
     78          1           0       25.068721   -2.765938    2.809765
     79          1           0       25.274750   -1.461913    3.870981
     80         12           0      -32.506685    0.252042   -0.236164
     81          6           0      -29.968241    0.188953    2.135078
     82          6           0      -33.172939   -3.019018    0.557195
     83          6           0      -34.855014    0.212883   -2.765733
     84          6           0      -31.422250    3.360050   -1.382840
     85          7           0      -31.715914   -1.189354    1.254566
     86          6           0      -30.770596   -0.984015    2.187540
     87          6           0      -30.603448   -2.134658    3.207201
     88          6           0      -31.487158   -3.267915    2.529961
     89          6           0      -32.169460   -2.475479    1.314317
     90          6           0      -30.556758   -4.462328    2.113183
     91          6           0      -31.166536   -1.598254    4.621928
     92          6           0      -30.206405   -1.714930    5.842230
     93          1           0      -29.060650   -2.774386    5.656384
     94          7           0      -33.792164   -1.182278   -1.076950
     95          6           0      -33.969642   -2.468947   -0.527694
     96          6           0      -35.115961   -3.088346   -1.157950
     97          6           0      -35.581478   -2.208788   -2.143542
     98          6           0      -34.783669   -0.936670   -1.986102
     99          6           0      -35.434636   -4.575000   -0.944680
    100          6           0      -36.719051   -2.441722   -3.172893
    101          8           0      -37.094198   -1.615589   -4.025757
    102          6           0      -37.505269   -3.761962   -3.099000
    103          7           0      -32.969745    1.595399   -1.878098
    104          6           0      -34.065485    1.330115   -2.754799
    105          6           0      -34.115179    2.380316   -3.884146
    106          6           0      -33.191570    3.525970   -3.256929
    107          6           0      -32.511187    2.800812   -2.066284
    108          6           0      -33.669231    1.742615   -5.189597
    109          6           0      -34.055945    4.752927   -2.741680
    110          6           0      -35.275320    4.653031   -1.763041
    111          7           0      -30.987527    1.495817    0.181288
    112          6           0      -30.633976    2.733463   -0.364939
    113          6           0      -29.490700    3.237058    0.324589
    114          6           0      -29.219150    2.320053    1.323903
    115          6           0      -30.084279    1.211654    1.149704
    116          6           0      -28.695172    4.484861   -0.000201
    117          6           0      -28.365558    2.051535    2.412438
    118          8           0      -27.414536    2.679976    2.753180
    119          6           0      -28.750111    0.595217    2.905090
    120          6           0      -27.562963   -0.274163    2.595181
    121          8           0      -27.529201   -1.078030    1.687022
    122          8           0      -26.596206    0.043220    3.464473
    123          6           0      -25.285983   -0.366820    3.021970
    124          1           0      -33.447213   -4.032370    0.856970
    125          1           0      -35.420653    0.092065   -3.691249
    126          1           0      -31.062795    4.328732   -1.737730
    127          1           0      -29.576425   -2.456877    3.377879
    128          1           0      -32.298612   -3.648550    3.150677
    129          1           0      -30.755360   -4.880760    1.126200
    130          1           0      -30.813172   -5.155497    2.913850
    131          1           0      -29.531632   -4.134647    2.284286
    132          1           0      -32.137969   -2.066959    4.777797
    133          1           0      -31.399560   -0.542377    4.482199
    134          1           0      -30.905635   -2.005332    6.625601
    135          1           0      -29.726218   -0.783682    6.141263
    136          1           0      -35.443854   -5.042879   -1.929436
    137          1           0      -36.448446   -4.673802   -0.554381
    138          1           0      -34.700973   -5.018730   -0.272383
    139          1           0      -36.843676   -4.542869   -3.476217
    140          1           0      -38.299546   -3.669869   -3.839584
    141          1           0      -37.997793   -3.839044   -2.129990
    142          1           0      -35.141629    2.747990   -3.871219
    143          1           0      -32.554572    3.951882   -4.031285
    144          1           0      -33.878034    0.673745   -5.237423
    145          1           0      -32.598989    1.883433   -5.339037
    146          1           0      -34.221278    2.159626   -6.031632
    147          1           0      -34.374579    5.320580   -3.616004
    148          1           0      -33.333304    5.315524   -2.150546
    149          1           0      -36.174914    4.486787   -2.355828
    150          1           0      -35.320563    5.620206   -1.261046
    151          1           0      -35.172334    3.948890   -0.936783
    152          1           0      -29.303404    5.387951    0.053720
    153          1           0      -28.375185    4.326043   -1.029799
    154          1           0      -27.912324    4.745741    0.713353
    155          1           0      -28.950556    0.454277    3.967344
    156          1           0      -24.480177    0.281008    3.366275
    157          1           0      -25.093793   -0.651013    1.987466
    158          1           0      -24.971564   -1.327315    3.430819
 ---------------------------------------------------------------------

 SCF Done:  E(RwB97XD) =  -4070.63048784     A.U. after   19 cycles

 Excitation energies and oscillator strengths:

 Excited State   1:      Singlet-A      1.6514 eV  750.79 nm  f=0.3868  <S**2>=0.000
     310 -> 316       -0.18077
     312 -> 314        0.68421
     310 <- 316       -0.11554
 This state for optimization and/or second-order correction.
 Total Energy, E(TD-HF/TD-DFT) =  -4070.56980035
 Copying the excited state density for this state as the 1-particle RhoCI density.

 Excited State   2:      Singlet-A      1.6650 eV  744.63 nm  f=0.3638  <S**2>=0.000
     309 -> 315       -0.17866
     311 -> 313        0.68376
     309 <- 315       -0.11335

 Excited State   3:      Singlet-A      2.1706 eV  571.20 nm  f=0.1247  <S**2>=0.000
     310 -> 314        0.64465
     312 -> 316        0.27776

 Excited State   4:      Singlet-A      2.1965 eV  564.46 nm  f=0.0911  <S**2>=0.000
     309 -> 313        0.62320
     311 -> 315        0.31717

 Excited State   5:      Singlet-A      3.4206 eV  362.47 nm  f=0.0251  <S**2>=0.000
     304 -> 314        0.50591
     306 -> 314        0.21828
     308 -> 314        0.35979
     312 -> 316        0.19443

 The electronic state is 1-A.
 Alpha  occ. eigenvalues --  -46.95531 -46.94406 -19.31576 -19.31386 -19.25208
 Alpha  occ. eigenvalues --  -19.25010 -19.24793 -19.24437 -19.23571 -19.23472
 Alpha  occ. eigenvalues --  -14.47027 -14.46828 -14.46762 -14.46016 -14.44871
 Alpha  occ. eigenvalues --  -14.44104 -14.43691 -14.43671 -10.43807 -10.43159
 Alpha  occ. eigenvalues --  -10.40764 -10.39039 -10.38856 -10.38754 -10.36326
 Alpha  occ. eigenvalues --  -10.35782 -10.35744 -10.35661 -10.35240 -10.35113
 Alpha  occ. eigenvalues --  -10.35097 -10.34684 -10.34524 -10.34432 -10.34320
 Alpha  occ. eigenvalues --  -10.34269 -10.33877 -10.33813 -10.33640 -10.33603
 Alpha  occ. eigenvalues --  -10.33592 -10.32954 -10.32767 -10.32711 -10.32606
 Alpha  occ. eigenvalues --  -10.32557 -10.32433 -10.32401 -10.32338 -10.32202
 Alpha  occ. eigenvalues --  -10.32195 -10.32137 -10.32065 -10.31998 -10.31979
 Alpha  occ. eigenvalues --  -10.31901 -10.31788 -10.31771 -10.31746 -10.31713
 Alpha  occ. eigenvalues --  -10.31698 -10.31621 -10.31408 -10.31393 -10.31067
 Alpha  occ. eigenvalues --  -10.31028 -10.31001 -10.30836 -10.30770 -10.30738
 Alpha  occ. eigenvalues --  -10.30634 -10.30563 -10.30512 -10.30474 -10.30263
 Alpha  occ. eigenvalues --  -10.30187 -10.29938 -10.29793 -10.29647 -10.29608
 Alpha  occ. eigenvalues --  -10.29560 -10.29415 -10.29169 -10.29072 -10.28771
 Alpha  occ. eigenvalues --  -10.28568  -3.21507  -3.20439  -1.95061  -1.94617
 Alpha  occ. eigenvalues --   -1.94505  -1.94032  -1.93542  -1.93430  -1.20356
 Alpha  occ. eigenvalues --   -1.19016  -1.14296  -1.11273  -1.10909  -1.10543
 Alpha  occ. eigenvalues --   -1.10473  -1.09949  -1.06674  -1.06175  -1.06028
 Alpha  occ. eigenvalues --   -1.05592  -1.05320  -1.04734  -1.04172  -1.03126
 Alpha  occ. eigenvalues --   -0.94814  -0.93359  -0.90816  -0.90718  -0.90566
 Alpha  occ. eigenvalues --   -0.90422  -0.89977  -0.89617  -0.89188  -0.89014
 Alpha  occ. eigenvalues --   -0.88960  -0.88419  -0.88391  -0.87912  -0.86237
 Alpha  occ. eigenvalues --   -0.85873  -0.85771  -0.85251  -0.84407  -0.84143
 Alpha  occ. eigenvalues --   -0.83574  -0.83149  -0.83088  -0.82794  -0.82138
 Alpha  occ. eigenvalues --   -0.81861  -0.79867  -0.79630  -0.79435  -0.79007
 Alpha  occ. eigenvalues --   -0.78693  -0.78648  -0.77809  -0.77774  -0.77245
 Alpha  occ. eigenvalues --   -0.76876  -0.74954  -0.74694  -0.73719  -0.73131
 Alpha  occ. eigenvalues --   -0.71123  -0.70916  -0.70812  -0.70624  -0.69924
 Alpha  occ. eigenvalues --   -0.69833  -0.69284  -0.68315  -0.68048  -0.67801
 Alpha  occ. eigenvalues --   -0.67075  -0.66975  -0.66571  -0.66534  -0.66447
 Alpha  occ. eigenvalues --   -0.65857  -0.64665  -0.64360  -0.61975  -0.61912
 Alpha  occ. eigenvalues --   -0.61610  -0.61404  -0.60943  -0.60895  -0.60602
 Alpha  occ. eigenvalues --   -0.60377  -0.59987  -0.59697  -0.59230  -0.59219
 Alpha  occ. eigenvalues --   -0.58199  -0.57994  -0.57730  -0.57651  -0.57238
 Alpha  occ. eigenvalues --   -0.56962  -0.56895  -0.56355  -0.55884  -0.55716
 Alpha  occ. eigenvalues --   -0.55325  -0.55304  -0.55110  -0.55051  -0.54768
 Alpha  occ. eigenvalues --   -0.54539  -0.54429  -0.54090  -0.53913  -0.53887
 Alpha  occ. eigenvalues --   -0.53816  -0.53671  -0.53530  -0.53290  -0.53171
 Alpha  occ. eigenvalues --   -0.53041  -0.52856  -0.52784  -0.52570  -0.51864
 Alpha  occ. eigenvalues --   -0.51838  -0.51752  -0.51444  -0.51379  -0.51243
 Alpha  occ. eigenvalues --   -0.51051  -0.51024  -0.50729  -0.50473  -0.50430
 Alpha  occ. eigenvalues --   -0.50245  -0.50213  -0.50088  -0.49841  -0.49751
 Alpha  occ. eigenvalues --   -0.49689  -0.49651  -0.49398  -0.49385  -0.49119
 Alpha  occ. eigenvalues --   -0.49080  -0.48820  -0.48571  -0.48513  -0.48291
 Alpha  occ. eigenvalues --   -0.48173  -0.48080  -0.47978  -0.47739  -0.47475
 Alpha  occ. eigenvalues --   -0.47453  -0.47150  -0.47131  -0.46885  -0.46735
 Alpha  occ. eigenvalues --   -0.46512  -0.46429  -0.46352  -0.46239  -0.46074
 Alpha  occ. eigenvalues --   -0.45704  -0.45661  -0.45657  -0.45564  -0.45457
 Alpha  occ. eigenvalues --   -0.45359  -0.45206  -0.44984  -0.44932  -0.44900
 Alpha  occ. eigenvalues --   -0.44562  -0.44512  -0.44373  -0.44277  -0.44099
 Alpha  occ. eigenvalues --   -0.43894  -0.43788  -0.43695  -0.43491  -0.43256
 Alpha  occ. eigenvalues --   -0.43077  -0.42719  -0.42683  -0.42590  -0.42505
 Alpha  occ. eigenvalues --   -0.42173  -0.41611  -0.41441  -0.41273  -0.41033
 Alpha  occ. eigenvalues --   -0.40685  -0.40291  -0.40072  -0.39654  -0.39419
 Alpha  occ. eigenvalues --   -0.39381  -0.39087  -0.38970  -0.38917  -0.38431
 Alpha  occ. eigenvalues --   -0.38388  -0.38143  -0.36851  -0.36778  -0.36745
 Alpha  occ. eigenvalues --   -0.36074  -0.35280  -0.34921  -0.33798  -0.33748
 Alpha  occ. eigenvalues --   -0.33309  -0.33042  -0.32695  -0.32472  -0.32406
 Alpha  occ. eigenvalues --   -0.32298  -0.31943  -0.31682  -0.26135  -0.25675
 Alpha  occ. eigenvalues --   -0.22904  -0.22769
 Alpha virt. eigenvalues --   -0.06918  -0.06889  -0.00124   0.00618   0.02238
 Alpha virt. eigenvalues --    0.02626   0.04061   0.04612   0.04813   0.05631
 Alpha virt. eigenvalues --    0.07121   0.07153   0.07412   0.08335   0.08620

 Mulliken charges:
               1
     1  Mg   0.973445
     2  C   -0.080594
     3  C   -0.109962
     4  C   -0.086199
     5  C   -0.082956
     6  N   -0.403985
     7  C   -0.008443
     8  C   -0.052716
     9  C   -0.092011
    10  C    0.125777
    11  C    0.014005
    12  C    0.023080
    13  C   -0.127704
    14  H    0.043612
    15  N   -0.430181
    16  C    0.153036
    17  C   -0.190564
    18  C   -0.078489
    19  C    0.194515
    20  C    0.116280
    21  C    0.044359
    22  O   -0.256232
    23  C   -0.009206
    24  N   -0.325086
    25  C    0.023043
    26  C   -0.076349
    27  C   -0.052251
    28  C    0.038395
    29  C    0.010454
    30  C   -0.007614
    31  C   -0.058072
    32  N   -0.440922
    33  C    0.101350
    34  C   -0.206471
    35  C   -0.043992
    36  C    0.153171
    37  C    0.107350
    38  C    0.155602
    39  O   -0.229705
    40  C   -0.059871
    41  C    0.289073
    42  O   -0.247451
    43  O   -0.356412
    44  C    0.133481
    45  H    0.007797
    46  H   -0.019766
    47  H   -0.011098
    48  H    0.025037
    49  H    0.032688
    50  H    0.036825
    51  H    0.034827
    52  H    0.038397
    53  H    0.030663
    54  H    0.030159
    55  H    0.066456
    56  H    0.049606
    57  H    0.065632
    58  H    0.072133
    59  H    0.012159
    60  H    0.080678
    61  H    0.058286
    62  H    0.060670
    63  H    0.046735
    64  H    0.034045
    65  H    0.046876
    66  H    0.033563
    67  H    0.037735
    68  H    0.032989
    69  H    0.028784
    70  H    0.039097
    71  H    0.028610
    72  H    0.041140
    73  H    0.021215
    74  H    0.075385
    75  H    0.050514
    76  H    0.064450
    77  H    0.055252
    78  H    0.052198
    79  H    0.053673
    80  Mg   0.964099
    81  C   -0.022245
    82  C   -0.067079
    83  C   -0.064536
    84  C   -0.108242
    85  N   -0.333463
    86  C    0.013976
    87  C   -0.076052
    88  C   -0.120582
    89  C    0.066981
    90  C    0.027391
    91  C   -0.000229
    92  C   -0.127178
    93  H    0.035001
    94  N   -0.460694
    95  C    0.133405
    96  C   -0.174151
    97  C   -0.090129
    98  C    0.138105
    99  C    0.086380
   100  C    0.051239
   101  O   -0.252412
   102  C   -0.016343
   103  N   -0.338876
   104  C    0.022117
   105  C   -0.061268
   106  C   -0.072425
   107  C    0.097105
   108  C    0.041986
   109  C   -0.059417
   110  C   -0.054428
   111  N   -0.488452
   112  C    0.148259
   113  C   -0.184031
   114  C   -0.008223
   115  C    0.148248
   116  C    0.079473
   117  C    0.095209
   118  O   -0.162836
   119  C   -0.097375
   120  C    0.245576
   121  O   -0.237004
   122  O   -0.309746
   123  C    0.140920
   124  H   -0.012947
   125  H    0.030834
   126  H    0.003260
   127  H    0.039863
   128  H    0.038826
   129  H    0.052157
   130  H    0.032878
   131  H    0.049470
   132  H    0.033230
   133  H    0.042335
   134  H    0.057031
   135  H    0.070062
   136  H    0.044604
   137  H    0.039368
   138  H    0.041526
   139  H    0.061823
   140  H    0.044454
   141  H    0.063983
   142  H    0.035102
   143  H    0.030279
   144  H    0.046251
   145  H    0.035067
   146  H    0.037256
   147  H    0.038898
   148  H    0.021491
   149  H    0.047716
   150  H    0.037253
   151  H    0.043653
   152  H    0.037574
   153  H    0.056848
   154  H    0.057406
   155  H    0.056479
   156  H    0.058027
   157  H    0.054719
   158  H    0.025172
 Sum of Mulliken charges =  -0.00000

 Dipole moment (field-independent basis, Debye):
    X=              1.7370    Y=             -1.1174    Z=              0.8542  Tot=              2.2350
 Quadrupole moment (field-independent basis, Debye-Ang):
   XX=           -332.5704   YY=           -476.8746   ZZ=           -523.9088
   XY=             59.4313   XZ=           -109.7317   YZ=            -32.9827

 Normal termination of Gaussian 16 at Mon Sep 20 17:55:37 2021.
