 Gaussian 16, Revision A.03,
 Gaussian 16:  ES64L-G16RevA.03 25-Dec-2016

 --------------------------------
 #p wB97XD/Def2SVP td=(nstates=5)
 --------------------------------

 --------------------------------
 TDDFT excited states in gaussian
 --------------------------------
 Symbolic Z-matrix:
 Charge =  0 Multiplicity = 1

                         Standard orientation:
 ---------------------------------------------------------------------
 Center     Atomic      Atomic             Coordinates (Angstroms)
 Number     Number       Type             X           Y           Z
 ---------------------------------------------------------------------
      1         12           0        5.060064   -0.613991   -0.397808
      2          6           0        3.136474    2.276022   -1.328490
      3          6           0        7.856830    1.561950   -0.278391
      4          6           0        7.141179   -3.307263    0.384212
      5          6           0        2.447162   -2.627910   -0.924287
      6          7           0        5.438009    1.702475   -0.990711
      7          6           0        4.485099    2.633898   -1.209155
      8          6           0        5.152549    4.033916   -1.459443
      9          6           0        6.670079    3.656493   -1.313505
     10          6           0        6.685766    2.219848   -0.742766
     11          6           0        7.454379    3.806179   -2.663704
     12          6           0        4.709792    5.104196   -0.462078
     13          6           0        4.391498    6.447193   -1.032736
     14          1           0        3.845703    7.536757   -0.098468
     15          7           0        7.105860   -0.840207    0.191849
     16          6           0        8.058872    0.172332    0.157672
     17          6           0        9.316374   -0.377788    0.623551
     18          6           0        9.137770   -1.719584    0.916901
     19          6           0        7.757122   -2.041121    0.421107
     20          6           0       10.623326    0.361768    0.630224
     21          6           0       10.153803   -2.818101    1.434926
     22          8           0        9.927313   -3.980101    1.668530
     23          6           0       11.539815   -2.379428    1.855377
     24          7           0        4.910228   -2.633131   -0.424143
     25          6           0        5.834521   -3.584553   -0.079369
     26          6           0        5.339392   -5.017795   -0.383529
     27          6           0        3.774727   -4.812479   -0.559712
     28          6           0        3.702512   -3.238616   -0.608660
     29          6           0        6.072757   -5.672878   -1.597449
     30          6           0        2.908899   -5.421382    0.584930
     31          6           0        3.043256   -4.745624    1.947688
     32          7           0        3.205994   -0.333731   -1.014913
     33          6           0        2.147786   -1.277070   -1.135755
     34          6           0        0.920278   -0.618102   -1.576444
     35          6           0        1.256413    0.747278   -1.605645
     36          6           0        2.624755    0.889987   -1.253797
     37          6           0       -0.357805   -1.268500   -1.840072
     38          6           0        0.675737    2.054241   -1.896094
     39          8           0       -0.475426    2.347699   -2.172117
     40          6           0        1.899324    3.116872   -1.817344
     41          6           0        1.300790    4.122063   -0.830409
     42          8           0        1.120600    3.989973    0.393605
     43          8           0        0.917258    5.196241   -1.498123
     44          6           0        0.554424    6.457020   -0.732153
     45          1           0        8.694376    2.254184   -0.172681
     46          1           0        7.714264   -4.209647    0.611111
     47          1           0        1.618089   -3.333535   -1.005485
     48          1           0        4.778196    4.335764   -2.437052
     49          1           0        7.167009    4.269756   -0.560596
     50          1           0        8.334768    4.448247   -2.636108
     51          1           0        6.820081    4.016147   -3.525120
     52          1           0        7.982103    2.918474   -3.013121
     53          1           0        5.665567    5.374698   -0.012928
     54          1           0        4.009592    4.731377    0.286284
     55          1           0        3.755336    6.527233   -1.915697
     56          1           0        5.366986    6.809325   -1.357551
     57          1           0       10.482025    1.420148    0.412724
     58          1           0       11.372541   -0.013304   -0.068720
     59          1           0       11.150817    0.377857    1.584091
     60          1           0       11.517031   -1.652838    2.667491
     61          1           0       11.940915   -2.003168    0.914235
     62          1           0       12.051967   -3.323762    2.039952
     63          1           0        5.672792   -5.592504    0.481280
     64          1           0        3.353826   -4.989578   -1.549696
     65          1           0        6.720471   -6.498108   -1.301653
     66          1           0        6.615552   -5.022905   -2.282855
     67          1           0        5.223604   -6.031773   -2.179310
     68          1           0        2.998784   -6.505775    0.519284
     69          1           0        1.864197   -5.268592    0.314625
     70          1           0        3.810082   -3.975609    2.024060
     71          1           0        3.322738   -5.540369    2.638884
     72          1           0        2.184779   -4.158854    2.272489
     73          1           0       -1.155347   -0.602032   -2.169096
     74          1           0       -0.629068   -1.746221   -0.898719
     75          1           0       -0.179579   -2.054008   -2.575821
     76          1           0        2.014354    3.685260   -2.740259
     77          1           0        0.592535    7.265358   -1.462718
     78          1           0        1.289785    6.717779    0.028392
     79          1           0       -0.404783    6.392125   -0.217214
     80         12           0       -4.996707   -0.711372    0.251630
     81          6           0       -2.972021    1.890226    1.019126
     82          6           0       -7.665311    1.478593   -0.132232
     83          6           0       -7.022961   -3.314413   -0.509911
     84          6           0       -2.477904   -2.926197    1.107916
     85          7           0       -5.184851    1.384374    0.329108
     86          6           0       -4.250691    2.298355    0.694311
     87          6           0       -4.713648    3.714629    0.472413
     88          6           0       -6.279798    3.568990    0.375079
     89          6           0       -6.384346    2.025786    0.144104
     90          6           0       -7.211046    4.142325    1.523480
     91          6           0       -4.135797    4.320153   -0.885227
     92          6           0       -4.074320    5.876005   -0.865720
     93          1           0       -5.032542    6.716056   -0.004750
     94          7           0       -7.104339   -0.946659   -0.185299
     95          6           0       -8.016451    0.134918   -0.301223
     96          6           0       -9.309223   -0.368253   -0.655985
     97          6           0       -9.158578   -1.797008   -0.760482
     98          6           0       -7.697532   -2.046497   -0.490288
     99          6           0      -10.499671    0.478216   -0.942432
    100          6           0      -10.200659   -2.855983   -1.102563
    101          8           0      -10.020886   -4.108551   -1.063356
    102          6           0      -11.597552   -2.421081   -1.512139
    103          7           0       -4.816712   -2.808065    0.354481
    104          6           0       -5.737262   -3.698753   -0.199987
    105          6           0       -5.194390   -5.140736   -0.417347
    106          6           0       -3.664977   -4.912127    0.098805
    107          6           0       -3.609858   -3.489459    0.520321
    108          6           0       -6.013578   -6.118075    0.435404
    109          6           0       -2.611515   -5.307809   -0.893454
    110          6           0       -1.630232   -6.310842   -0.357760
    111          7           0       -3.193578   -0.667645    1.011366
    112          6           0       -2.223961   -1.619568    1.301117
    113          6           0       -1.051071   -0.990536    1.784435
    114          6           0       -1.273273    0.412358    1.750310
    115          6           0       -2.549955    0.579734    1.173591
    116          6           0        0.226386   -1.602005    2.215858
    117          6           0       -0.739357    1.702289    2.129052
    118          8           0        0.267382    2.085161    2.692385
    119          6           0       -1.850819    2.711997    1.570775
    120          6           0       -2.098378    3.848908    2.495621
    121          8           0       -2.214783    3.790030    3.693034
    122          8           0       -2.152607    5.037154    1.874057
    123          6           0       -2.414941    6.193631    2.777249
    124          1           0       -8.461239    2.222516   -0.056178
    125          1           0       -7.717177   -4.149133   -0.626496
    126          1           0       -1.598492   -3.547379    1.289781
    127          1           0       -4.558813    4.345289    1.347692
    128          1           0       -6.604849    4.010405   -0.566497
    129          1           0       -6.569021    4.681892    2.219834
    130          1           0       -7.821395    3.433472    2.080787
    131          1           0       -7.935082    4.795411    1.035926
    132          1           0       -4.795689    3.922359   -1.656401
    133          1           0       -3.131032    3.917639   -1.014379
    134          1           0       -4.211151    6.123557   -1.918541
    135          1           0       -3.035065    6.134351   -0.664202
    136          1           0      -10.552024    0.899655   -1.946348
    137          1           0      -10.488821    1.254962   -0.178837
    138          1           0      -11.441195   -0.001780   -0.677185
    139          1           0      -12.138375   -2.244810   -0.582457
    140          1           0      -12.021690   -3.288009   -2.018144
    141          1           0      -11.621848   -1.512684   -2.114333
    142          1           0       -5.372557   -5.372485   -1.467486
    143          1           0       -3.502208   -5.536700    0.977814
    144          1           0       -6.712998   -5.665947    1.138916
    145          1           0       -5.337226   -6.843295    0.887225
    146          1           0       -6.663881   -6.645020   -0.263432
    147          1           0       -1.979755   -4.475919   -1.205083
    148          1           0       -2.996790   -5.708004   -1.831360
    149          1           0       -1.471036   -7.154551   -1.028651
    150          1           0       -1.964575   -6.724736    0.593188
    151          1           0       -0.745982   -5.717101   -0.124226
    152          1           0        0.156141   -2.595006    2.660831
    153          1           0        0.483319   -1.031467    3.108832
    154          1           0        0.944039   -1.583974    1.395574
    155          1           0       -1.263243    3.094425    0.735641
    156          1           0       -1.523936    6.491421    3.331823
    157          1           0       -3.303864    6.039736    3.389224
    158          1           0       -2.673213    7.053595    2.158817
 ---------------------------------------------------------------------

 SCF Done:  E(RwB97XD) =  -4070.61840277     A.U. after   20 cycles

 Excitation energies and oscillator strengths:

 Excited State   1:      Singlet-A      1.5334 eV  808.58 nm  f=0.9005  <S**2>=0.000
     309 -> 315       -0.12515
     310 -> 316        0.11169
     311 -> 313        0.49379
     312 -> 314       -0.47430
 This state for optimization and/or second-order correction.
 Total Energy, E(TD-HF/TD-DFT) =  -4070.56205302
 Copying the excited state density for this state as the 1-particle RhoCI density.

 Excited State   2:      Singlet-A      1.6202 eV  765.23 nm  f=0.0024  <S**2>=0.000
     309 -> 315       -0.13595
     310 -> 316       -0.13370
     311 -> 313        0.46687
     312 -> 314        0.49342

 Excited State   3:      Singlet-A      2.1420 eV  578.83 nm  f=0.0148  <S**2>=0.000
     309 -> 313        0.53251
     310 -> 314       -0.33614
     311 -> 315        0.26316
     312 -> 316       -0.14516

 Excited State   4:      Singlet-A      2.1696 eV  571.46 nm  f=0.1561  <S**2>=0.000
     309 -> 313        0.32305
     310 -> 314        0.53825
     311 -> 315        0.17083
     312 -> 316        0.24620

 Excited State   5:      Singlet-A      2.5036 eV  495.22 nm  f=0.0006  <S**2>=0.000
     312 -> 313        0.69380

 The electronic state is 1-A.
 Alpha  occ. eigenvalues --  -46.94696 -46.92793 -19.30482 -19.29483 -19.24915
 Alpha  occ. eigenvalues --  -19.24629 -19.23295 -19.22980 -19.22874 -19.22648
 Alpha  occ. eigenvalues --  -14.47170 -14.46748 -14.46217 -14.45635 -14.44833
 Alpha  occ. eigenvalues --  -14.44401 -14.43443 -14.42646 -10.42611 -10.41338
 Alpha  occ. eigenvalues --  -10.39852 -10.39662 -10.38661 -10.37747 -10.36214
 Alpha  occ. eigenvalues --  -10.35603 -10.35484 -10.35343 -10.35306 -10.35289
 Alpha  occ. eigenvalues --  -10.35203 -10.34856 -10.34576 -10.34209 -10.34126
 Alpha  occ. eigenvalues --  -10.34081 -10.34043 -10.33893 -10.33449 -10.33215
 Alpha  occ. eigenvalues --  -10.33145 -10.33007 -10.32773 -10.32730 -10.32655
 Alpha  occ. eigenvalues --  -10.32609 -10.32580 -10.32534 -10.32528 -10.32523
 Alpha  occ. eigenvalues --  -10.32340 -10.32239 -10.32234 -10.32075 -10.31792
 Alpha  occ. eigenvalues --  -10.31783 -10.31513 -10.31485 -10.31233 -10.31197
 Alpha  occ. eigenvalues --  -10.31145 -10.30943 -10.30933 -10.30915 -10.30905
 Alpha  occ. eigenvalues --  -10.30894 -10.30797 -10.30647 -10.30596 -10.30251
 Alpha  occ. eigenvalues --  -10.30172 -10.30029 -10.30015 -10.30005 -10.29767
 Alpha  occ. eigenvalues --  -10.29655 -10.29583 -10.29437 -10.29408 -10.29309
 Alpha  occ. eigenvalues --  -10.29159 -10.29104 -10.29051 -10.28969 -10.28626
 Alpha  occ. eigenvalues --  -10.28594  -3.20823  -3.19047  -1.94398  -1.93964
 Alpha  occ. eigenvalues --   -1.93796  -1.92637  -1.92161  -1.92067  -1.18494
 Alpha  occ. eigenvalues --   -1.18464  -1.13768  -1.12778  -1.10865  -1.09065
 Alpha  occ. eigenvalues --   -1.08444  -1.07807  -1.05891  -1.05743  -1.05208
 Alpha  occ. eigenvalues --   -1.04899  -1.04384  -1.04029  -1.03848  -1.02771
 Alpha  occ. eigenvalues --   -0.94311  -0.92992  -0.91249  -0.91138  -0.90727
 Alpha  occ. eigenvalues --   -0.90133  -0.90057  -0.89568  -0.89377  -0.89016
 Alpha  occ. eigenvalues --   -0.88970  -0.88527  -0.88423  -0.87675  -0.86161
 Alpha  occ. eigenvalues --   -0.85717  -0.85611  -0.84962  -0.84390  -0.83689
 Alpha  occ. eigenvalues --   -0.83514  -0.83137  -0.82899  -0.82295  -0.82240
 Alpha  occ. eigenvalues --   -0.81793  -0.80196  -0.79706  -0.79354  -0.79213
 Alpha  occ. eigenvalues --   -0.78964  -0.78510  -0.78025  -0.77655  -0.77180
 Alpha  occ. eigenvalues --   -0.76551  -0.74680  -0.74169  -0.73746  -0.73136
 Alpha  occ. eigenvalues --   -0.72086  -0.70853  -0.70389  -0.70319  -0.69601
 Alpha  occ. eigenvalues --   -0.69267  -0.68351  -0.68009  -0.67511  -0.67239
 Alpha  occ. eigenvalues --   -0.67183  -0.66737  -0.66552  -0.66220  -0.66049
 Alpha  occ. eigenvalues --   -0.65352  -0.64006  -0.63507  -0.61725  -0.61692
 Alpha  occ. eigenvalues --   -0.61433  -0.61094  -0.61009  -0.60248  -0.59833
 Alpha  occ. eigenvalues --   -0.59646  -0.59509  -0.59065  -0.58815  -0.58447
 Alpha  occ. eigenvalues --   -0.57766  -0.57624  -0.57428  -0.57148  -0.56729
 Alpha  occ. eigenvalues --   -0.56579  -0.56405  -0.56329  -0.55983  -0.55437
 Alpha  occ. eigenvalues --   -0.55356  -0.55221  -0.55016  -0.54741  -0.54545
 Alpha  occ. eigenvalues --   -0.54515  -0.54458  -0.54312  -0.54156  -0.53993
 Alpha  occ. eigenvalues --   -0.53747  -0.53609  -0.53568  -0.53327  -0.53051
 Alpha  occ. eigenvalues --   -0.52886  -0.52374  -0.52200  -0.51970  -0.51837
 Alpha  occ. eigenvalues --   -0.51769  -0.51718  -0.51421  -0.51328  -0.51305
 Alpha  occ. eigenvalues --   -0.51246  -0.51010  -0.50680  -0.50523  -0.50482
 Alpha  occ. eigenvalues --   -0.50284  -0.50183  -0.49955  -0.49729  -0.49547
 Alpha  occ. eigenvalues --   -0.49492  -0.49367  -0.49353  -0.49136  -0.48774
 Alpha  occ. eigenvalues --   -0.48729  -0.48659  -0.48561  -0.48446  -0.48251
 Alpha  occ. eigenvalues --   -0.48023  -0.47847  -0.47769  -0.47547  -0.47461
 Alpha  occ. eigenvalues --   -0.47371  -0.47056  -0.46955  -0.46474  -0.46454
 Alpha  occ. eigenvalues --   -0.46221  -0.46189  -0.46095  -0.45956  -0.45824
 Alpha  occ. eigenvalues --   -0.45695  -0.45618  -0.45307  -0.45273  -0.45175
 Alpha  occ. eigenvalues --   -0.45111  -0.45004  -0.44752  -0.44607  -0.44584
 Alpha  occ. eigenvalues --   -0.44353  -0.44135  -0.43884  -0.43662  -0.43595
 Alpha  occ. eigenvalues --   -0.43473  -0.43255  -0.43140  -0.42986  -0.42650
 Alpha  occ. eigenvalues --   -0.42421  -0.42370  -0.42210  -0.42174  -0.41781
 Alpha  occ. eigenvalues --   -0.41696  -0.41623  -0.41566  -0.41333  -0.41132
 Alpha  occ. eigenvalues --   -0.40638  -0.40085  -0.39603  -0.39528  -0.39275
 Alpha  occ. eigenvalues --   -0.38923  -0.38791  -0.38495  -0.38442  -0.38123
 Alpha  occ. eigenvalues --   -0.37828  -0.37746  -0.35994  -0.35940  -0.35496
 Alpha  occ. eigenvalues --   -0.35413  -0.34914  -0.34529  -0.33729  -0.33260
 Alpha  occ. eigenvalues --   -0.33028  -0.32779  -0.32608  -0.32244  -0.32089
 Alpha  occ. eigenvalues --   -0.31678  -0.31218  -0.30916  -0.26136  -0.25451
 Alpha  occ. eigenvalues --   -0.22883  -0.22157
 Alpha virt. eigenvalues --   -0.07211  -0.06589  -0.00248   0.01024   0.02404
 Alpha virt. eigenvalues --    0.02954   0.04257   0.05245   0.06648   0.06833
 Alpha virt. eigenvalues --    0.07425   0.07812   0.08065   0.08238   0.08490

 Mulliken charges:
               1
     1  Mg   0.992943
     2  C    0.040004
     3  C   -0.071374
     4  C   -0.057148
     5  C   -0.099038
     6  N   -0.312058
     7  C   -0.008442
     8  C   -0.089337
     9  C   -0.083490
    10  C    0.050290
    11  C    0.015987
    12  C    0.049751
    13  C   -0.150344
    14  H    0.031744
    15  N   -0.450559
    16  C    0.182335
    17  C   -0.160005
    18  C   -0.080836
    19  C    0.135302
    20  C    0.054526
    21  C    0.057294
    22  O   -0.215316
    23  C   -0.009302
    24  N   -0.398503
    25  C    0.038632
    26  C   -0.083171
    27  C   -0.077110
    28  C    0.058255
    29  C    0.027393
    30  C   -0.006073
    31  C   -0.049439
    32  N   -0.527485
    33  C    0.144817
    34  C   -0.171154
    35  C   -0.039187
    36  C    0.167640
    37  C    0.100042
    38  C    0.125326
    39  O   -0.206221
    40  C   -0.126458
    41  C    0.249307
    42  O   -0.273521
    43  O   -0.340892
    44  C    0.139049
    45  H   -0.000574
    46  H    0.023465
    47  H   -0.011726
    48  H    0.038205
    49  H    0.036183
    50  H    0.033428
    51  H    0.038131
    52  H    0.025578
    53  H    0.024214
    54  H    0.074709
    55  H    0.046883
    56  H    0.037463
    57  H    0.022954
    58  H    0.056253
    59  H    0.038981
    60  H    0.077205
    61  H    0.034932
    62  H    0.053606
    63  H    0.041330
    64  H    0.042541
    65  H    0.048723
    66  H    0.047274
    67  H    0.024407
    68  H    0.039893
    69  H    0.020528
    70  H    0.042026
    71  H    0.046471
    72  H    0.035670
    73  H    0.063592
    74  H    0.048685
    75  H    0.040804
    76  H    0.065668
    77  H    0.056728
    78  H    0.054246
    79  H    0.076227
    80  Mg   0.982168
    81  C    0.034227
    82  C   -0.094060
    83  C   -0.065480
    84  C   -0.126672
    85  N   -0.377039
    86  C   -0.011190
    87  C   -0.044448
    88  C   -0.121184
    89  C    0.057132
    90  C    0.021571
    91  C   -0.000352
    92  C   -0.088687
    93  H    0.036727
    94  N   -0.388970
    95  C    0.162175
    96  C   -0.155731
    97  C   -0.075775
    98  C    0.100023
    99  C    0.065310
   100  C    0.052147
   101  O   -0.277012
   102  C   -0.021623
   103  N   -0.392302
   104  C    0.059237
   105  C   -0.092640
   106  C   -0.027087
   107  C    0.108937
   108  C    0.009942
   109  C   -0.005279
   110  C   -0.068890
   111  N   -0.525721
   112  C    0.179383
   113  C   -0.209864
   114  C   -0.037361
   115  C    0.135037
   116  C    0.063211
   117  C    0.157428
   118  O   -0.168523
   119  C   -0.107987
   120  C    0.226254
   121  O   -0.234766
   122  O   -0.357420
   123  C    0.141530
   124  H   -0.004877
   125  H    0.015072
   126  H   -0.025885
   127  H    0.022229
   128  H    0.034162
   129  H    0.041221
   130  H    0.046751
   131  H    0.035345
   132  H    0.034452
   133  H    0.064108
   134  H    0.043757
   135  H    0.053258
   136  H    0.072728
   137  H    0.034105
   138  H    0.030265
   139  H    0.065603
   140  H    0.057516
   141  H    0.049869
   142  H    0.054875
   143  H    0.034210
   144  H    0.061080
   145  H    0.034934
   146  H    0.040550
   147  H    0.027772
   148  H    0.028049
   149  H    0.043177
   150  H    0.023922
   151  H    0.038194
   152  H    0.027744
   153  H    0.059034
   154  H    0.077615
   155  H    0.082156
   156  H    0.069434
   157  H    0.058639
   158  H    0.033682
 Sum of Mulliken charges =  -0.00000

 Dipole moment (field-independent basis, Debye):
    X=              3.4472    Y=              3.3914    Z=             -5.0585  Tot=              6.9981
 Quadrupole moment (field-independent basis, Debye-Ang):
   XX=           -465.2725   YY=           -463.1059   ZZ=           -530.0776
   XY=            -14.6487   XZ=             -9.9515   YZ=             -4.9424

 Normal termination of Gaussian 16 at Sun Sep 19 10:41:12 2021.
