 Gaussian 16, Revision A.03,
 Gaussian 16:  ES64L-G16RevA.03 25-Dec-2016

 --------------------------------
 #p wB97XD/Def2SVP td=(nstates=5)
 --------------------------------

 --------------------------------
 TDDFT excited states in gaussian
 --------------------------------
 Symbolic Z-matrix:
 Charge =  0 Multiplicity = 1

                         Standard orientation:
 ---------------------------------------------------------------------
 Center     Atomic      Atomic             Coordinates (Angstroms)
 Number     Number       Type             X           Y           Z
 ---------------------------------------------------------------------
      1         12           0      -24.761789   -0.595867   -0.557482
      2          6           0      -26.093975    1.674460    1.868029
      3          6           0      -24.583026    2.044294   -2.711701
      4          6           0      -24.015479   -2.656510   -2.849511
      5          6           0      -26.087905   -3.188113    1.357547
      6          7           0      -25.298385    1.540085   -0.332945
      7          6           0      -25.743010    2.294856    0.666956
      8          6           0      -25.729737    3.818919    0.343802
      9          6           0      -25.791036    3.739397   -1.247398
     10          6           0      -25.154251    2.375383   -1.447140
     11          6           0      -27.211725    3.704097   -1.801382
     12          6           0      -24.417019    4.518838    0.832284
     13          6           0      -24.460815    6.049550    0.851132
     14          1           0      -23.754672    6.757362    1.908352
     15          7           0      -23.910354   -0.303227   -2.315968
     16          6           0      -23.923694    0.840503   -3.041909
     17          6           0      -23.153443    0.552228   -4.270848
     18          6           0      -22.852834   -0.906347   -4.287806
     19          6           0      -23.613154   -1.357376   -3.150324
     20          6           0      -22.739765    1.608236   -5.249351
     21          6           0      -22.021951   -1.760088   -5.192732
     22          8           0      -22.081927   -3.036939   -5.167633
     23          6           0      -21.190567   -1.052329   -6.183145
     24          7           0      -25.198708   -2.616350   -0.847974
     25          6           0      -24.703731   -3.285822   -1.894773
     26          6           0      -24.911220   -4.763841   -1.745288
     27          6           0      -25.438893   -4.987661   -0.254913
     28          6           0      -25.524667   -3.506779    0.189950
     29          6           0      -25.892588   -5.405456   -2.735873
     30          6           0      -24.643677   -5.979097    0.631149
     31          6           0      -23.271796   -5.415869    0.927483
     32          7           0      -25.737678   -0.776656    1.372803
     33          6           0      -26.227361   -1.950601    1.963344
     34          6           0      -26.898811   -1.556658    3.215555
     35          6           0      -26.766659   -0.170101    3.258457
     36          6           0      -26.080568    0.276571    2.093100
     37          6           0      -27.576065   -2.432509    4.109225
     38          6           0      -27.067069    1.040431    4.005600
     39          8           0      -27.547491    1.278148    5.114734
     40          6           0      -26.750923    2.294292    3.076239
     41          6           0      -25.947158    3.271808    3.889708
     42          8           0      -24.789339    2.993619    4.263116
     43          8           0      -26.568978    4.460850    3.897432
     44          6           0      -25.808790    5.484522    4.663177
     45          1           0      -24.700840    2.742092   -3.543049
     46          1           0      -23.680516   -3.413606   -3.561581
     47          1           0      -26.450942   -3.950987    2.048691
     48          1           0      -26.589970    4.371295    0.722358
     49          1           0      -25.184332    4.513292   -1.717205
     50          1           0      -27.948193    3.609032   -1.003574
     51          1           0      -27.246761    2.834144   -2.457468
     52          1           0      -27.400402    4.568110   -2.439080
     53          1           0      -23.631066    4.364812    0.092950
     54          1           0      -24.129632    4.154210    1.819088
     55          1           0      -25.482137    6.420223    0.759412
     56          1           0      -23.958017    6.416660   -0.043644
     57          1           0      -23.246189    2.553207   -5.056712
     58          1           0      -23.107082    1.297630   -6.227262
     59          1           0      -21.657391    1.732632   -5.285728
     60          1           0      -21.831333   -0.444537   -6.822330
     61          1           0      -20.598698   -1.819069   -6.681794
     62          1           0      -20.532310   -0.358088   -5.660004
     63          1           0      -23.975581   -5.305482   -1.878071
     64          1           0      -26.458669   -5.372832   -0.235595
     65          1           0      -25.458025   -6.218098   -3.318516
     66          1           0      -26.276835   -4.620063   -3.386106
     67          1           0      -26.810869   -5.785028   -2.288546
     68          1           0      -24.496602   -6.922533    0.106511
     69          1           0      -25.135730   -6.199639    1.578512
     70          1           0      -22.697189   -5.698056    0.045991
     71          1           0      -22.858335   -5.874502    1.826325
     72          1           0      -23.289330   -4.326665    0.970080
     73          1           0      -27.279588   -2.131973    5.114087
     74          1           0      -27.318363   -3.473377    3.914838
     75          1           0      -28.614051   -2.206765    3.865338
     76          1           0      -27.711405    2.708180    2.770800
     77          1           0      -26.480506    5.879522    5.425415
     78          1           0      -25.407394    6.184787    3.930431
     79          1           0      -24.990463    5.114426    5.281811
     80         12           0       24.985808   -0.832173    0.286559
     81          6           0       25.319610    2.359031   -1.486064
     82          6           0       23.878164    1.048525    3.027367
     83          6           0       24.998399   -3.578205    2.043469
     84          6           0       25.917816   -2.478233   -2.574172
     85          7           0       24.840876    1.421171    0.781573
     86          6           0       24.899383    2.561432   -0.124674
     87          6           0       24.603309    3.914589    0.556886
     88          6           0       24.345924    3.388292    2.085697
     89          6           0       24.360967    1.848848    2.011868
     90          6           0       25.329097    3.943990    3.097567
     91          6           0       23.426864    4.644404   -0.159266
     92          6           0       22.852285    5.815278    0.579922
     93          1           0       22.538669    7.093517   -0.165343
     94          7           0       24.525328   -1.247585    2.298194
     95          6           0       24.078657   -0.350801    3.275358
     96          6           0       23.812844   -1.070775    4.519410
     97          6           0       24.133308   -2.465027    4.254270
     98          6           0       24.581884   -2.518223    2.813765
     99          6           0       23.205351   -0.429128    5.820459
    100          6           0       24.121885   -3.661797    5.135519
    101          8           0       24.388086   -4.800806    4.775596
    102          6           0       23.655610   -3.547788    6.527625
    103          7           0       25.297641   -2.711199   -0.198256
    104          6           0       25.373541   -3.681580    0.714376
    105          6           0       25.713322   -5.058028    0.096103
    106          6           0       25.558150   -4.758260   -1.380413
    107          6           0       25.660468   -3.184255   -1.421244
    108          6           0       27.107406   -5.554640    0.461394
    109          6           0       24.377470   -5.226174   -2.191260
    110          6           0       23.049988   -4.648384   -1.749135
    111          7           0       25.609396   -0.234640   -1.608657
    112          6           0       25.864358   -1.063391   -2.716186
    113          6           0       26.181050   -0.236188   -3.854298
    114          6           0       25.891388    1.067763   -3.376418
    115          6           0       25.562002    1.035269   -2.007955
    116          6           0       26.511210   -0.657426   -5.256474
    117          6           0       25.806678    2.478380   -3.866412
    118          8           0       25.904655    2.951812   -5.018715
    119          6           0       25.468933    3.321875   -2.639069
    120          6           0       26.522277    4.415360   -2.449147
    121          8           0       27.758331    4.324036   -2.188942
    122          8           0       25.860854    5.607710   -2.462725
    123          6           0       26.691919    6.806405   -2.209115
    124          1           0       23.347204    1.607339    3.799581
    125          1           0       25.071259   -4.497885    2.627625
    126          1           0       26.245559   -2.932232   -3.511804
    127          1           0       25.491060    4.520979    0.377436
    128          1           0       23.313848    3.604265    2.361952
    129          1           0       24.769360    4.479172    3.865157
    130          1           0       25.959274    4.648511    2.555932
    131          1           0       26.121270    3.282271    3.447171
    132          1           0       22.719111    3.859453   -0.428047
    133          1           0       23.783604    5.011037   -1.121850
    134          1           0       23.452336    6.233574    1.387720
    135          1           0       21.868920    5.546504    0.964664
    136          1           0       22.253546   -0.942155    5.961197
    137          1           0       23.015430    0.640222    5.729414
    138          1           0       23.914078   -0.641428    6.621020
    139          1           0       24.038552   -2.671280    7.050708
    140          1           0       24.040504   -4.451586    6.998657
    141          1           0       22.587363   -3.358512    6.426631
    142          1           0       24.983816   -5.768966    0.484198
    143          1           0       26.372609   -5.178124   -1.971399
    144          1           0       27.051136   -6.624566    0.658526
    145          1           0       27.482105   -5.057550    1.355523
    146          1           0       27.767659   -5.493932   -0.404503
    147          1           0       24.393781   -6.316300   -2.205953
    148          1           0       24.431552   -4.849185   -3.212427
    149          1           0       22.274690   -5.410718   -1.681939
    150          1           0       22.647179   -3.926112   -2.459537
    151          1           0       23.072206   -4.168118   -0.770816
    152          1           0       25.856890   -0.139256   -5.957093
    153          1           0       26.472313   -1.707311   -5.546766
    154          1           0       27.538426   -0.344683   -5.445039
    155          1           0       24.538568    3.853714   -2.840270
    156          1           0       26.571090    7.125465   -1.174093
    157          1           0       26.282223    7.456850   -2.981897
    158          1           0       27.734720    6.658350   -2.492652
 ---------------------------------------------------------------------

 SCF Done:  E(RwB97XD) =  -4070.62425349     A.U. after   19 cycles

 Excitation energies and oscillator strengths:

 Excited State   1:      Singlet-A      1.6110 eV  769.63 nm  f=0.3818  <S**2>=0.000
     309 -> 316       -0.17044
     311 -> 313        0.68637
     309 <- 316       -0.11380
 This state for optimization and/or second-order correction.
 Total Energy, E(TD-HF/TD-DFT) =  -4070.56505194
 Copying the excited state density for this state as the 1-particle RhoCI density.

 Excited State   2:      Singlet-A      1.6216 eV  764.57 nm  f=0.4024  <S**2>=0.000
     310 -> 315        0.18178
     312 -> 314        0.68313
     310 <- 315        0.11452

 Excited State   3:      Singlet-A      2.1162 eV  585.88 nm  f=0.1328  <S**2>=0.000
     309 -> 313        0.64981
     311 -> 316        0.25745

 Excited State   4:      Singlet-A      2.1386 eV  579.75 nm  f=0.0960  <S**2>=0.000
     310 -> 314        0.63841
     312 -> 315       -0.28188

 Excited State   5:      Singlet-A      3.2646 eV  379.78 nm  f=0.0055  <S**2>=0.000
     303 -> 313       -0.31885
     308 -> 313        0.60960

 The electronic state is 1-A.
 Alpha  occ. eigenvalues --  -46.94123 -46.94109 -19.31496 -19.30986 -19.24610
 Alpha  occ. eigenvalues --  -19.23990 -19.23883 -19.23859 -19.23495 -19.23221
 Alpha  occ. eigenvalues --  -14.47149 -14.47041 -14.46782 -14.46047 -14.44619
 Alpha  occ. eigenvalues --  -14.44018 -14.43433 -14.43157 -10.43826 -10.42935
 Alpha  occ. eigenvalues --  -10.39428 -10.38743 -10.38648 -10.38409 -10.36018
 Alpha  occ. eigenvalues --  -10.35648 -10.35580 -10.35521 -10.35449 -10.35430
 Alpha  occ. eigenvalues --  -10.35160 -10.34905 -10.34807 -10.34750 -10.34607
 Alpha  occ. eigenvalues --  -10.34601 -10.34542 -10.34193 -10.33892 -10.33826
 Alpha  occ. eigenvalues --  -10.33241 -10.33218 -10.33036 -10.32997 -10.32917
 Alpha  occ. eigenvalues --  -10.32884 -10.32811 -10.32627 -10.32605 -10.32598
 Alpha  occ. eigenvalues --  -10.32464 -10.32452 -10.32330 -10.32143 -10.31865
 Alpha  occ. eigenvalues --  -10.31787 -10.31707 -10.31621 -10.31568 -10.31547
 Alpha  occ. eigenvalues --  -10.31509 -10.31471 -10.31425 -10.31424 -10.31187
 Alpha  occ. eigenvalues --  -10.31013 -10.30997 -10.30794 -10.30632 -10.30274
 Alpha  occ. eigenvalues --  -10.30148 -10.30080 -10.30068 -10.29990 -10.29802
 Alpha  occ. eigenvalues --  -10.29796 -10.29739 -10.29675 -10.29561 -10.29490
 Alpha  occ. eigenvalues --  -10.29271 -10.28864 -10.28802 -10.28702 -10.28474
 Alpha  occ. eigenvalues --  -10.28366  -3.20282  -3.20265  -1.93865  -1.93859
 Alpha  occ. eigenvalues --   -1.93425  -1.93403  -1.93263  -1.93242  -1.18820
 Alpha  occ. eigenvalues --   -1.18184  -1.12656  -1.10849  -1.09997  -1.09429
 Alpha  occ. eigenvalues --   -1.08833  -1.07954  -1.07060  -1.06565  -1.05766
 Alpha  occ. eigenvalues --   -1.05254  -1.04811  -1.04433  -1.04361  -1.02618
 Alpha  occ. eigenvalues --   -0.94255  -0.93924  -0.91556  -0.91408  -0.91045
 Alpha  occ. eigenvalues --   -0.90826  -0.90564  -0.90166  -0.89785  -0.89586
 Alpha  occ. eigenvalues --   -0.89269  -0.89226  -0.89001  -0.87800  -0.86872
 Alpha  occ. eigenvalues --   -0.86682  -0.85934  -0.85810  -0.84892  -0.84866
 Alpha  occ. eigenvalues --   -0.84557  -0.84284  -0.83517  -0.83373  -0.82550
 Alpha  occ. eigenvalues --   -0.82048  -0.80766  -0.80532  -0.79192  -0.79136
 Alpha  occ. eigenvalues --   -0.78844  -0.78714  -0.77894  -0.77850  -0.77454
 Alpha  occ. eigenvalues --   -0.76807  -0.74747  -0.74741  -0.73924  -0.73624
 Alpha  occ. eigenvalues --   -0.72217  -0.71792  -0.71412  -0.70826  -0.69642
 Alpha  occ. eigenvalues --   -0.69632  -0.69172  -0.69169  -0.67215  -0.67047
 Alpha  occ. eigenvalues --   -0.66834  -0.66666  -0.66588  -0.66281  -0.66220
 Alpha  occ. eigenvalues --   -0.65811  -0.64275  -0.63920  -0.62431  -0.62254
 Alpha  occ. eigenvalues --   -0.61753  -0.61154  -0.61085  -0.60966  -0.60488
 Alpha  occ. eigenvalues --   -0.60297  -0.59677  -0.59542  -0.59395  -0.59264
 Alpha  occ. eigenvalues --   -0.58306  -0.58288  -0.57875  -0.57853  -0.57489
 Alpha  occ. eigenvalues --   -0.57466  -0.57256  -0.57225  -0.56721  -0.56462
 Alpha  occ. eigenvalues --   -0.56238  -0.55808  -0.55438  -0.55237  -0.55158
 Alpha  occ. eigenvalues --   -0.55046  -0.54870  -0.54708  -0.54675  -0.54403
 Alpha  occ. eigenvalues --   -0.54317  -0.54097  -0.53829  -0.53525  -0.53125
 Alpha  occ. eigenvalues --   -0.53084  -0.52804  -0.52709  -0.52530  -0.52301
 Alpha  occ. eigenvalues --   -0.52106  -0.51937  -0.51873  -0.51702  -0.51530
 Alpha  occ. eigenvalues --   -0.51443  -0.51165  -0.51011  -0.50754  -0.50729
 Alpha  occ. eigenvalues --   -0.50546  -0.50509  -0.50427  -0.50417  -0.50378
 Alpha  occ. eigenvalues --   -0.50038  -0.49669  -0.49615  -0.49546  -0.49236
 Alpha  occ. eigenvalues --   -0.48930  -0.48702  -0.48691  -0.48471  -0.48441
 Alpha  occ. eigenvalues --   -0.48308  -0.48097  -0.48095  -0.47937  -0.47730
 Alpha  occ. eigenvalues --   -0.47592  -0.47388  -0.47099  -0.46831  -0.46498
 Alpha  occ. eigenvalues --   -0.46479  -0.46409  -0.46274  -0.46113  -0.46046
 Alpha  occ. eigenvalues --   -0.45991  -0.45935  -0.45860  -0.45387  -0.45374
 Alpha  occ. eigenvalues --   -0.45319  -0.45161  -0.44957  -0.44654  -0.44604
 Alpha  occ. eigenvalues --   -0.44557  -0.44469  -0.44130  -0.43911  -0.43850
 Alpha  occ. eigenvalues --   -0.43728  -0.43706  -0.43423  -0.43234  -0.43024
 Alpha  occ. eigenvalues --   -0.42856  -0.42830  -0.42735  -0.42447  -0.42403
 Alpha  occ. eigenvalues --   -0.42118  -0.41883  -0.41378  -0.41158  -0.41003
 Alpha  occ. eigenvalues --   -0.40800  -0.40356  -0.39685  -0.39352  -0.39316
 Alpha  occ. eigenvalues --   -0.39186  -0.39146  -0.38797  -0.38708  -0.38482
 Alpha  occ. eigenvalues --   -0.38184  -0.38114  -0.36307  -0.36281  -0.36066
 Alpha  occ. eigenvalues --   -0.35778  -0.35342  -0.35304  -0.33731  -0.33352
 Alpha  occ. eigenvalues --   -0.33263  -0.33183  -0.32593  -0.32297  -0.32000
 Alpha  occ. eigenvalues --   -0.31615  -0.31477  -0.31298  -0.26186  -0.26002
 Alpha  occ. eigenvalues --   -0.23287  -0.22920
 Alpha virt. eigenvalues --   -0.07656  -0.07103   0.00182   0.00251   0.01987
 Alpha virt. eigenvalues --    0.02367   0.04294   0.04314   0.06250   0.06267
 Alpha virt. eigenvalues --    0.06680   0.07105   0.07258   0.07690   0.08605

 Mulliken charges:
               1
     1  Mg   0.978323
     2  C   -0.020002
     3  C   -0.101398
     4  C   -0.061237
     5  C   -0.070997
     6  N   -0.323315
     7  C   -0.008585
     8  C   -0.058073
     9  C   -0.138168
    10  C    0.061926
    11  C    0.058277
    12  C    0.014053
    13  C   -0.126935
    14  H    0.052356
    15  N   -0.518302
    16  C    0.183599
    17  C   -0.196054
    18  C   -0.036952
    19  C    0.166506
    20  C    0.060889
    21  C    0.056784
    22  O   -0.280039
    23  C    0.001496
    24  N   -0.410018
    25  C    0.066141
    26  C   -0.084882
    27  C   -0.063862
    28  C    0.089582
    29  C    0.031880
    30  C   -0.016771
    31  C   -0.058069
    32  N   -0.398725
    33  C    0.097441
    34  C   -0.187994
    35  C   -0.040140
    36  C    0.126276
    37  C    0.081480
    38  C    0.128892
    39  O   -0.224758
    40  C   -0.076842
    41  C    0.275730
    42  O   -0.284577
    43  O   -0.335600
    44  C    0.120634
    45  H    0.007901
    46  H    0.010704
    47  H   -0.017347
    48  H    0.026013
    49  H    0.022614
    50  H    0.047118
    51  H    0.037802
    52  H    0.040100
    53  H    0.035368
    54  H    0.067681
    55  H    0.038960
    56  H    0.040618
    57  H    0.029643
    58  H    0.048963
    59  H    0.062088
    60  H    0.057882
    61  H    0.061858
    62  H    0.053091
    63  H    0.042941
    64  H    0.035678
    65  H    0.045325
    66  H    0.034334
    67  H    0.025718
    68  H    0.032625
    69  H    0.029416
    70  H    0.029200
    71  H    0.042182
    72  H    0.049638
    73  H    0.070881
    74  H    0.031401
    75  H    0.069409
    76  H    0.065880
    77  H    0.061269
    78  H    0.062810
    79  H    0.070268
    80  Mg   0.975027
    81  C   -0.025694
    82  C   -0.091672
    83  C   -0.091508
    84  C   -0.077738
    85  N   -0.366189
    86  C   -0.005978
    87  C   -0.064628
    88  C   -0.111828
    89  C    0.088976
    90  C    0.051905
    91  C   -0.006015
    92  C   -0.128109
    93  H    0.029117
    94  N   -0.467364
    95  C    0.163121
    96  C   -0.170379
    97  C   -0.057385
    98  C    0.152412
    99  C    0.067260
   100  C    0.021980
   101  O   -0.243492
   102  C    0.001961
   103  N   -0.422584
   104  C    0.103906
   105  C   -0.087992
   106  C   -0.066294
   107  C    0.109947
   108  C    0.042962
   109  C    0.010245
   110  C   -0.067749
   111  N   -0.449774
   112  C    0.078845
   113  C   -0.151510
   114  C   -0.101642
   115  C    0.167295
   116  C    0.064809
   117  C    0.158585
   118  O   -0.236425
   119  C   -0.063694
   120  C    0.279100
   121  O   -0.286784
   122  O   -0.366313
   123  C    0.125354
   124  H   -0.007305
   125  H    0.021614
   126  H    0.001316
   127  H    0.052005
   128  H    0.035095
   129  H    0.045587
   130  H    0.021892
   131  H    0.048112
   132  H    0.034822
   133  H    0.058200
   134  H    0.052523
   135  H    0.055232
   136  H    0.061419
   137  H    0.044211
   138  H    0.067036
   139  H    0.027173
   140  H    0.066576
   141  H    0.059739
   142  H    0.041423
   143  H    0.013878
   144  H    0.035659
   145  H    0.048288
   146  H    0.036546
   147  H    0.035165
   148  H    0.029060
   149  H    0.029060
   150  H    0.034929
   151  H    0.040808
   152  H    0.061469
   153  H    0.026460
   154  H    0.055491
   155  H    0.079606
   156  H    0.065867
   157  H    0.060819
   158  H    0.076155
 Sum of Mulliken charges =  -0.00000

 Dipole moment (field-independent basis, Debye):
    X=             -3.1754    Y=              2.5390    Z=              0.3831  Tot=              4.0837
 Quadrupole moment (field-independent basis, Debye-Ang):
   XX=           -665.7222   YY=           -458.0329   ZZ=           -527.7534
   XY=            -40.5675   XZ=            222.7385   YZ=             11.3835

 Normal termination of Gaussian 16 at Sun Sep 19 08:14:10 2021.
