 Gaussian 16, Revision A.03,
 Gaussian 16:  ES64L-G16RevA.03 25-Dec-2016

 --------------------------------
 #p wB97XD/Def2SVP td=(nstates=5)
 --------------------------------

 --------------------------------
 TDDFT excited states in gaussian
 --------------------------------
 Symbolic Z-matrix:
 Charge =  0 Multiplicity = 1

                         Standard orientation:
 ---------------------------------------------------------------------
 Center     Atomic      Atomic             Coordinates (Angstroms)
 Number     Number       Type             X           Y           Z
 ---------------------------------------------------------------------
      1         12           0        9.877235   -0.291391    0.168891
      2          6           0        8.111911    2.359702   -1.304338
      3          6           0       12.153025    1.814270    1.397094
      4          6           0       11.410230   -2.870131    1.382830
      5          6           0        7.979407   -2.441024   -2.037010
      6          7           0       10.116507    1.837510   -0.060922
      7          6           0        9.247596    2.743642   -0.526466
      8          6           0        9.788111    4.146716   -0.426168
      9          6           0       11.269702    3.904552    0.070831
     10          6           0       11.188955    2.455583    0.510789
     11          6           0       12.443274    4.172123   -0.926509
     12          6           0        8.970614    4.990067    0.680126
     13          6           0        8.528315    6.404999    0.182042
     14          1           0        7.456457    7.085984    1.193856
     15          7           0       11.360052   -0.473272    1.412821
     16          6           0       12.197817    0.528394    1.872796
     17          6           0       12.999665   -0.003219    2.940264
     18          6           0       12.807263   -1.442556    3.029225
     19          6           0       11.731279   -1.674282    1.991000
     20          6           0       14.011193    0.934878    3.659376
     21          6           0       13.379193   -2.571482    3.879131
     22          8           0       13.014897   -3.761203    3.868507
     23          6           0       14.389540   -2.091676    4.860102
     24          7           0        9.770204   -2.307091   -0.429170
     25          6           0       10.570271   -3.154766    0.296490
     26          6           0       10.479091   -4.584492   -0.238060
     27          6           0        9.183297   -4.509621   -1.087597
     28          6           0        8.977509   -3.003700   -1.262405
     29          6           0       11.832126   -4.982313   -0.950929
     30          6           0        7.904237   -5.222237   -0.473795
     31          6           0        6.817017   -5.666595   -1.465309
     32          7           0        8.323136   -0.132662   -1.344325
     33          6           0        7.698022   -1.076414   -2.101667
     34          6           0        6.626244   -0.496699   -2.879821
     35          6           0        6.731226    0.858969   -2.518484
     36          6           0        7.807699    1.045946   -1.639590
     37          6           0        5.602337   -1.116616   -3.858344
     38          6           0        6.119133    2.140985   -2.730022
     39          8           0        5.094792    2.492262   -3.254349
     40          6           0        7.131964    3.203801   -2.054563
     41          6           0        6.183284    4.087747   -1.372127
     42          8           0        5.629071    3.941694   -0.253393
     43          8           0        6.002057    5.118470   -2.215704
     44          6           0        5.061565    6.171749   -1.830827
     45          1           0       12.850082    2.503641    1.878371
     46          1           0       11.872215   -3.745529    1.844457
     47          1           0        7.373719   -3.146697   -2.609392
     48          1           0        9.736205    4.731162   -1.345189
     49          1           0       11.564273    4.436610    0.975597
     50          1           0       12.880293    3.208685   -1.188944
     51          1           0       13.161726    4.767087   -0.362913
     52          1           0       12.222691    4.662656   -1.873923
     53          1           0        9.457486    5.101025    1.649736
     54          1           0        8.128620    4.363649    0.974865
     55          1           0        8.069633    6.337107   -0.804201
     56          1           0        9.320826    7.151922    0.142605
     57          1           0       13.500002    1.390986    4.506049
     58          1           0       14.234191    1.846618    3.103846
     59          1           0       15.016317    0.547499    3.824358
     60          1           0       14.011770   -1.373480    5.586968
     61          1           0       15.165779   -1.692680    4.206002
     62          1           0       14.869742   -2.893147    5.422198
     63          1           0       10.359756   -5.211877    0.645355
     64          1           0        9.350312   -5.012288   -2.040198
     65          1           0       11.694350   -5.010686   -2.031741
     66          1           0       12.283844   -5.945756   -0.716070
     67          1           0       12.655216   -4.271790   -0.872091
     68          1           0        7.432052   -4.417142    0.089853
     69          1           0        8.068459   -6.077638    0.181861
     70          1           0        5.888453   -5.109634   -1.333595
     71          1           0        6.511844   -6.712998   -1.486046
     72          1           0        7.173511   -5.345508   -2.443036
     73          1           0        6.067717   -2.028633   -4.232177
     74          1           0        5.374640   -0.430661   -4.675334
     75          1           0        4.724552   -1.366946   -3.262678
     76          1           0        7.630550    3.779583   -2.834499
     77          1           0        5.627946    7.077526   -1.615015
     78          1           0        4.376509    5.847661   -1.048117
     79          1           0        4.469222    6.433916   -2.707380
     80         12           0       -8.991081   -1.025353    0.395308
     81          6           0      -11.287583    1.622715    0.863026
     82          6           0       -6.498812    1.309857    0.141405
     83          6           0       -6.980681   -3.427041   -0.680803
     84          6           0      -11.711453   -3.219021    0.198199
     85          7           0       -8.935963    1.228735    0.330530
     86          6           0      -10.001952    2.069905    0.660441
     87          6           0       -9.478977    3.502049    0.931921
     88          6           0       -7.933281    3.376243    0.672241
     89          6           0       -7.715616    1.863283    0.392848
     90          6           0       -7.305482    4.383064   -0.275749
     91          6           0       -9.809770    4.104186    2.306423
     92          6           0      -10.532154    5.477576    2.235388
     93          1           0       -9.856328    6.607232    2.980446
     94          7           0       -6.977609   -1.040064   -0.104626
     95          6           0       -6.106762    0.006228   -0.190181
     96          6           0       -4.789930   -0.537410   -0.422977
     97          6           0       -4.940169   -1.935172   -0.818372
     98          6           0       -6.355001   -2.144973   -0.552165
     99          6           0       -3.472544    0.392394   -0.525379
    100          6           0       -4.063704   -2.838322   -1.574253
    101          8           0       -4.265073   -3.986005   -1.852687
    102          6           0       -2.753571   -2.233975   -2.070576
    103          7           0       -9.370454   -3.012352   -0.365906
    104          6           0       -8.340712   -3.818780   -0.689180
    105          6           0       -8.811839   -5.268037   -0.830653
    106          6           0      -10.214554   -5.231980   -0.203103
    107          6           0      -10.464418   -3.746567   -0.067147
    108          6           0       -8.843893   -5.724360   -2.361134
    109          6           0      -10.140789   -5.921349    1.253214
    110          6           0       -9.420855   -5.095500    2.354076
    111          7           0      -11.094966   -0.946179    0.613089
    112          6           0      -12.031389   -1.903945    0.518231
    113          6           0      -13.315243   -1.301306    0.757133
    114          6           0      -13.064359    0.045303    0.942425
    115          6           0      -11.691923    0.256690    0.784561
    116          6           0      -14.687088   -1.948051    0.780428
    117          6           0      -13.779280    1.304502    1.167381
    118          8           0      -14.910512    1.696378    1.228307
    119          6           0      -12.653687    2.371756    1.204868
    120          6           0      -12.989254    3.341420    0.132716
    121          8           0      -13.169153    2.984310   -1.004413
    122          8           0      -13.154838    4.638189    0.591953
    123          6           0      -13.781635    5.609436   -0.365935
    124          1           0       -5.693979    2.036614    0.270890
    125          1           0       -6.341575   -4.280173   -0.919428
    126          1           0      -12.586795   -3.850196    0.365257
    127          1           0       -9.850115    4.162336    0.147822
    128          1           0       -7.417241    3.641572    1.595163
    129          1           0       -8.063278    4.885007   -0.875511
    130          1           0       -6.547530    3.955067   -0.932304
    131          1           0       -6.878718    5.159880    0.358203
    132          1           0       -8.982650    4.324760    2.981219
    133          1           0      -10.435272    3.424340    2.884475
    134          1           0      -11.588607    5.386762    2.487685
    135          1           0      -10.512714    5.802993    1.196058
    136          1           0       -2.698823   -0.058432    0.095981
    137          1           0       -3.570095    1.410180   -0.149520
    138          1           0       -3.056024    0.604118   -1.510127
    139          1           0       -2.239939   -1.960805   -1.148507
    140          1           0       -3.054315   -1.364129   -2.653691
    141          1           0       -2.103696   -2.928856   -2.603364
    142          1           0       -8.228114   -5.975807   -0.241113
    143          1           0      -11.072750   -5.624574   -0.748962
    144          1           0       -8.671794   -6.800953   -2.372218
    145          1           0       -8.110664   -5.300306   -3.048010
    146          1           0       -9.865417   -5.512736   -2.676672
    147          1           0       -9.694965   -6.915481    1.227537
    148          1           0      -11.140649   -5.965009    1.685260
    149          1           0       -9.220666   -5.627951    3.283269
    150          1           0      -10.064037   -4.250828    2.601466
    151          1           0       -8.493330   -4.715651    1.924451
    152          1           0      -14.819506   -2.693336    1.564393
    153          1           0      -14.749367   -2.447151   -0.186236
    154          1           0      -15.496582   -1.218209    0.791293
    155          1           0      -12.792054    2.843325    2.177626
    156          1           0      -13.117856    6.457362   -0.197068
    157          1           0      -14.801129    5.881181   -0.092908
    158          1           0      -13.847056    5.370736   -1.427170
 ---------------------------------------------------------------------

 SCF Done:  E(RwB97XD) =  -4070.61228250     A.U. after   19 cycles

 Excitation energies and oscillator strengths:

 Excited State   1:      Singlet-A      1.6406 eV  755.71 nm  f=0.5717  <S**2>=0.000
     310 -> 316        0.17152
     311 -> 313        0.65019
     312 -> 314       -0.21503
     310 <- 316        0.11085
 This state for optimization and/or second-order correction.
 Total Energy, E(TD-HF/TD-DFT) =  -4070.55199015
 Copying the excited state density for this state as the 1-particle RhoCI density.

 Excited State   2:      Singlet-A      1.6736 eV  740.81 nm  f=0.2326  <S**2>=0.000
     309 -> 315       -0.19335
     311 -> 313        0.21570
     312 -> 314        0.64387
     309 <- 315       -0.11401

 Excited State   3:      Singlet-A      2.1366 eV  580.29 nm  f=0.1265  <S**2>=0.000
     310 -> 313        0.65431
     311 -> 316       -0.25258

 Excited State   4:      Singlet-A      2.1931 eV  565.35 nm  f=0.0627  <S**2>=0.000
     309 -> 314        0.61584
     312 -> 315        0.33593

 Excited State   5:      Singlet-A      3.4841 eV  355.86 nm  f=0.0000  <S**2>=0.000
     312 -> 313        0.70664

 The electronic state is 1-A.
 Alpha  occ. eigenvalues --  -46.95693 -46.94007 -19.30227 -19.30226 -19.24809
 Alpha  occ. eigenvalues --  -19.24487 -19.24181 -19.24059 -19.23547 -19.23196
 Alpha  occ. eigenvalues --  -14.47269 -14.46544 -14.46392 -14.46330 -14.44177
 Alpha  occ. eigenvalues --  -14.44169 -14.43639 -14.43083 -10.42563 -10.42486
 Alpha  occ. eigenvalues --  -10.40064 -10.39013 -10.38775 -10.38087 -10.35849
 Alpha  occ. eigenvalues --  -10.35432 -10.35383 -10.35286 -10.34904 -10.34903
 Alpha  occ. eigenvalues --  -10.34754 -10.34627 -10.34590 -10.34571 -10.34335
 Alpha  occ. eigenvalues --  -10.34327 -10.34240 -10.34080 -10.33791 -10.33608
 Alpha  occ. eigenvalues --  -10.33573 -10.33303 -10.33168 -10.32996 -10.32887
 Alpha  occ. eigenvalues --  -10.32776 -10.32642 -10.32504 -10.32096 -10.32078
 Alpha  occ. eigenvalues --  -10.31974 -10.31910 -10.31898 -10.31883 -10.31869
 Alpha  occ. eigenvalues --  -10.31832 -10.31818 -10.31786 -10.31765 -10.31729
 Alpha  occ. eigenvalues --  -10.31716 -10.31446 -10.31350 -10.31037 -10.30876
 Alpha  occ. eigenvalues --  -10.30870 -10.30847 -10.30604 -10.30490 -10.30435
 Alpha  occ. eigenvalues --  -10.30403 -10.30379 -10.30338 -10.30301 -10.30174
 Alpha  occ. eigenvalues --  -10.30002 -10.29949 -10.29917 -10.29784 -10.29682
 Alpha  occ. eigenvalues --  -10.29601 -10.29312 -10.29220 -10.28915 -10.28652
 Alpha  occ. eigenvalues --  -10.28570  -3.21557  -3.20249  -1.95125  -1.94691
 Alpha  occ. eigenvalues --   -1.94517  -1.93832  -1.93394  -1.93240  -1.18260
 Alpha  occ. eigenvalues --   -1.17697  -1.13758  -1.13120  -1.13062  -1.11704
 Alpha  occ. eigenvalues --   -1.09676  -1.07862  -1.07288  -1.07022  -1.06395
 Alpha  occ. eigenvalues --   -1.06146  -1.05694  -1.05682  -1.04553  -1.03821
 Alpha  occ. eigenvalues --   -0.94790  -0.94166  -0.91140  -0.90604  -0.90491
 Alpha  occ. eigenvalues --   -0.90215  -0.89974  -0.89954  -0.89494  -0.89457
 Alpha  occ. eigenvalues --   -0.89013  -0.88328  -0.88299  -0.88047  -0.86549
 Alpha  occ. eigenvalues --   -0.86155  -0.85819  -0.85228  -0.84457  -0.84255
 Alpha  occ. eigenvalues --   -0.84227  -0.83330  -0.82952  -0.82642  -0.82330
 Alpha  occ. eigenvalues --   -0.81885  -0.80266  -0.80112  -0.79308  -0.79158
 Alpha  occ. eigenvalues --   -0.78919  -0.78520  -0.77955  -0.77909  -0.77398
 Alpha  occ. eigenvalues --   -0.76968  -0.74912  -0.74857  -0.74202  -0.73566
 Alpha  occ. eigenvalues --   -0.71303  -0.71122  -0.71019  -0.70779  -0.69947
 Alpha  occ. eigenvalues --   -0.69872  -0.69284  -0.69055  -0.68084  -0.67530
 Alpha  occ. eigenvalues --   -0.67238  -0.67112  -0.66967  -0.66963  -0.66527
 Alpha  occ. eigenvalues --   -0.66274  -0.64130  -0.63879  -0.62343  -0.62210
 Alpha  occ. eigenvalues --   -0.61882  -0.61515  -0.61233  -0.61103  -0.60708
 Alpha  occ. eigenvalues --   -0.60555  -0.60069  -0.59930  -0.59356  -0.59224
 Alpha  occ. eigenvalues --   -0.58407  -0.57957  -0.57785  -0.57531  -0.57167
 Alpha  occ. eigenvalues --   -0.57004  -0.56389  -0.56384  -0.55953  -0.55916
 Alpha  occ. eigenvalues --   -0.55471  -0.55262  -0.55179  -0.54859  -0.54762
 Alpha  occ. eigenvalues --   -0.54580  -0.54370  -0.54241  -0.54176  -0.53852
 Alpha  occ. eigenvalues --   -0.53648  -0.53585  -0.53421  -0.53298  -0.53075
 Alpha  occ. eigenvalues --   -0.53043  -0.52759  -0.52505  -0.52401  -0.52191
 Alpha  occ. eigenvalues --   -0.52015  -0.51818  -0.51537  -0.51466  -0.51259
 Alpha  occ. eigenvalues --   -0.51102  -0.51091  -0.51059  -0.50953  -0.50787
 Alpha  occ. eigenvalues --   -0.50501  -0.50167  -0.50141  -0.50021  -0.50019
 Alpha  occ. eigenvalues --   -0.49636  -0.49388  -0.49316  -0.49275  -0.49169
 Alpha  occ. eigenvalues --   -0.48898  -0.48782  -0.48481  -0.48344  -0.48198
 Alpha  occ. eigenvalues --   -0.47924  -0.47894  -0.47859  -0.47730  -0.47634
 Alpha  occ. eigenvalues --   -0.47550  -0.47323  -0.47148  -0.47054  -0.46952
 Alpha  occ. eigenvalues --   -0.46876  -0.46299  -0.46037  -0.45811  -0.45771
 Alpha  occ. eigenvalues --   -0.45597  -0.45488  -0.45424  -0.45176  -0.45093
 Alpha  occ. eigenvalues --   -0.45035  -0.44895  -0.44867  -0.44828  -0.44688
 Alpha  occ. eigenvalues --   -0.44664  -0.44265  -0.44179  -0.44108  -0.44083
 Alpha  occ. eigenvalues --   -0.43971  -0.43845  -0.43778  -0.43330  -0.43279
 Alpha  occ. eigenvalues --   -0.43187  -0.43142  -0.42783  -0.42616  -0.42525
 Alpha  occ. eigenvalues --   -0.42279  -0.42065  -0.41577  -0.41455  -0.40825
 Alpha  occ. eigenvalues --   -0.40784  -0.40051  -0.39850  -0.39839  -0.39624
 Alpha  occ. eigenvalues --   -0.39541  -0.39029  -0.38973  -0.38195  -0.38044
 Alpha  occ. eigenvalues --   -0.37656  -0.37326  -0.36247  -0.36218  -0.36061
 Alpha  occ. eigenvalues --   -0.35879  -0.35463  -0.35087  -0.33798  -0.33644
 Alpha  occ. eigenvalues --   -0.33584  -0.33075  -0.32716  -0.32564  -0.32362
 Alpha  occ. eigenvalues --   -0.32178  -0.32001  -0.31864  -0.26202  -0.25918
 Alpha  occ. eigenvalues --   -0.23205  -0.23015
 Alpha virt. eigenvalues --   -0.07341  -0.06872  -0.00478   0.00665   0.01667
 Alpha virt. eigenvalues --    0.02787   0.04467   0.04771   0.04982   0.06123
 Alpha virt. eigenvalues --    0.07261   0.07513   0.07723   0.08088   0.08110

 Mulliken charges:
               1
     1  Mg   0.994128
     2  C    0.048382
     3  C   -0.082963
     4  C   -0.068621
     5  C   -0.108633
     6  N   -0.341572
     7  C    0.045892
     8  C   -0.121715
     9  C   -0.075787
    10  C    0.029335
    11  C    0.026829
    12  C    0.023928
    13  C   -0.140202
    14  H    0.018207
    15  N   -0.559189
    16  C    0.189880
    17  C   -0.126385
    18  C   -0.130453
    19  C    0.181158
    20  C    0.043762
    21  C    0.089291
    22  O   -0.240535
    23  C   -0.020875
    24  N   -0.364049
    25  C    0.073191
    26  C   -0.083692
    27  C   -0.059560
    28  C    0.063106
    29  C    0.017133
    30  C   -0.011493
    31  C   -0.064897
    32  N   -0.360284
    33  C    0.130637
    34  C   -0.202773
    35  C   -0.018267
    36  C    0.092151
    37  C    0.097849
    38  C    0.101543
    39  O   -0.185885
    40  C   -0.133186
    41  C    0.263432
    42  O   -0.285627
    43  O   -0.349898
    44  C    0.138528
    45  H   -0.014384
    46  H    0.026800
    47  H   -0.019073
    48  H    0.037204
    49  H    0.028924
    50  H    0.042342
    51  H    0.037681
    52  H    0.043077
    53  H    0.031592
    54  H    0.057902
    55  H    0.053204
    56  H    0.056814
    57  H    0.054078
    58  H    0.028232
    59  H    0.054314
    60  H    0.074571
    61  H    0.050293
    62  H    0.047659
    63  H    0.043384
    64  H    0.027578
    65  H    0.021359
    66  H    0.044184
    67  H    0.041009
    68  H    0.036117
    69  H    0.043481
    70  H    0.035193
    71  H    0.045159
    72  H    0.027649
    73  H    0.034736
    74  H    0.066274
    75  H    0.063959
    76  H    0.073623
    77  H    0.048848
    78  H    0.075127
    79  H    0.049268
    80  Mg   0.945455
    81  C   -0.040661
    82  C   -0.093056
    83  C   -0.065325
    84  C   -0.068766
    85  N   -0.371741
    86  C    0.008821
    87  C   -0.037712
    88  C   -0.103227
    89  C    0.075309
    90  C    0.021411
    91  C    0.015588
    92  C   -0.142048
    93  H    0.025532
    94  N   -0.445228
    95  C    0.174403
    96  C   -0.128071
    97  C   -0.081688
    98  C    0.149892
    99  C    0.017492
   100  C    0.022928
   101  O   -0.210991
   102  C   -0.005381
   103  N   -0.330897
   104  C    0.048562
   105  C   -0.089052
   106  C   -0.066709
   107  C    0.055470
   108  C    0.021739
   109  C   -0.041327
   110  C   -0.066447
   111  N   -0.411626
   112  C    0.080597
   113  C   -0.176380
   114  C   -0.085233
   115  C    0.177585
   116  C    0.073496
   117  C    0.147557
   118  O   -0.174820
   119  C   -0.066514
   120  C    0.252260
   121  O   -0.231312
   122  O   -0.382079
   123  C    0.126367
   124  H   -0.009021
   125  H    0.025623
   126  H   -0.004379
   127  H    0.040759
   128  H    0.034260
   129  H    0.029931
   130  H    0.043981
   131  H    0.031534
   132  H    0.042815
   133  H    0.032824
   134  H    0.067612
   135  H    0.036348
   136  H    0.050513
   137  H    0.028008
   138  H    0.055745
   139  H    0.042860
   140  H    0.057124
   141  H    0.049131
   142  H    0.041943
   143  H    0.039619
   144  H    0.039449
   145  H    0.057692
   146  H    0.036630
   147  H    0.044863
   148  H    0.027404
   149  H    0.048052
   150  H    0.041129
   151  H    0.039569
   152  H    0.051482
   153  H    0.041495
   154  H    0.060509
   155  H    0.062673
   156  H    0.052950
   157  H    0.061283
   158  H    0.073421
 Sum of Mulliken charges =  -0.00000

 Dipole moment (field-independent basis, Debye):
    X=              7.5699    Y=              1.8085    Z=              2.0160  Tot=              8.0398
 Quadrupole moment (field-independent basis, Debye-Ang):
   XX=           -479.9505   YY=           -465.6205   ZZ=           -514.0627
   XY=             50.0155   XZ=            -11.9214   YZ=              4.5684

 Normal termination of Gaussian 16 at Sun Sep 19 14:15:20 2021.
