 Gaussian 16, Revision A.03,
 Gaussian 16:  ES64L-G16RevA.03 25-Dec-2016

 --------------------------------
 #p wB97XD/Def2SVP td=(nstates=5)
 --------------------------------

 --------------------------------
 TDDFT excited states in gaussian
 --------------------------------
 Symbolic Z-matrix:
 Charge =  0 Multiplicity = 1

                         Standard orientation:
 ---------------------------------------------------------------------
 Center     Atomic      Atomic             Coordinates (Angstroms)
 Number     Number       Type             X           Y           Z
 ---------------------------------------------------------------------
      1         12           0      -25.035121   -0.742550   -0.287105
      2          6           0      -25.897862    1.994837    1.761446
      3          6           0      -24.010003    1.485962   -2.694236
      4          6           0      -24.260528   -3.293435   -2.330023
      5          6           0      -26.612737   -2.935155    1.937035
      6          7           0      -24.876135    1.438191   -0.306461
      7          6           0      -25.236443    2.391128    0.548453
      8          6           0      -24.951611    3.845716    0.119951
      9          6           0      -24.629308    3.532839   -1.420971
     10          6           0      -24.541421    2.028009   -1.494559
     11          6           0      -25.656641    4.083065   -2.380228
     12          6           0      -23.701743    4.541106    0.897016
     13          6           0      -23.811040    6.067149    0.965541
     14          1           0      -23.881417    6.633842    2.406991
     15          7           0      -24.077965   -0.920359   -2.212245
     16          6           0      -23.781604    0.173910   -3.062148
     17          6           0      -22.974882   -0.346453   -4.142958
     18          6           0      -23.007498   -1.735224   -4.054376
     19          6           0      -23.785926   -2.066511   -2.819835
     20          6           0      -22.430179    0.502445   -5.276145
     21          6           0      -22.370892   -2.810056   -4.905392
     22          8           0      -22.472093   -3.958445   -4.585567
     23          6           0      -21.543936   -2.485200   -6.109199
     24          7           0      -25.546142   -2.782753   -0.325974
     25          6           0      -25.042431   -3.658960   -1.242630
     26          6           0      -25.485512   -5.075388   -0.782016
     27          6           0      -25.678412   -4.988949    0.721395
     28          6           0      -25.999131   -3.480171    0.837584
     29          6           0      -26.817255   -5.428332   -1.442873
     30          6           0      -24.512497   -5.434367    1.524049
     31          6           0      -23.135303   -4.942868    1.152767
     32          7           0      -26.030444   -0.577608    1.508684
     33          6           0      -26.632999   -1.529587    2.309399
     34          6           0      -27.189535   -0.865308    3.498144
     35          6           0      -26.894040    0.497344    3.319434
     36          6           0      -26.212974    0.613758    2.138513
     37          6           0      -27.935129   -1.507625    4.586934
     38          6           0      -26.892661    1.794415    3.941128
     39          8           0      -27.306940    2.168920    5.077389
     40          6           0      -26.195027    2.810253    2.918177
     41          6           0      -27.231847    3.849394    2.578305
     42          8           0      -28.351830    3.571564    2.266616
     43          8           0      -26.777488    5.195983    2.591796
     44          6           0      -27.697378    6.182835    1.948564
     45          1           0      -23.727794    2.176583   -3.490913
     46          1           0      -24.118043   -4.138492   -3.007339
     47          1           0      -26.963710   -3.572765    2.751441
     48          1           0      -25.818790    4.473170    0.329618
     49          1           0      -23.665066    4.014790   -1.587062
     50          1           0      -25.251326    5.025305   -2.748661
     51          1           0      -26.652515    4.150747   -1.941817
     52          1           0      -25.591667    3.416411   -3.240080
     53          1           0      -22.769273    4.303663    0.384003
     54          1           0      -23.590933    4.122084    1.897341
     55          1           0      -24.705373    6.245697    0.368200
     56          1           0      -23.015686    6.561373    0.407966
     57          1           0      -22.454355    1.518226   -4.883373
     58          1           0      -23.209445    0.419546   -6.033219
     59          1           0      -21.411090    0.228351   -5.549727
     60          1           0      -20.663379   -2.076437   -5.613288
     61          1           0      -21.968743   -1.721266   -6.759824
     62          1           0      -21.324557   -3.391652   -6.674439
     63          1           0      -24.812069   -5.886038   -1.058103
     64          1           0      -26.487448   -5.597792    1.123602
     65          1           0      -27.742198   -5.352503   -0.871088
     66          1           0      -26.735703   -6.452147   -1.807763
     67          1           0      -26.927716   -4.801612   -2.328547
     68          1           0      -24.466212   -6.520555    1.605992
     69          1           0      -24.730595   -5.064094    2.525590
     70          1           0      -22.830840   -4.282531    1.965284
     71          1           0      -22.915281   -4.394339    0.236422
     72          1           0      -22.454420   -5.793300    1.184608
     73          1           0      -28.905702   -1.814363    4.197206
     74          1           0      -27.973275   -0.740649    5.360411
     75          1           0      -27.444848   -2.422870    4.921389
     76          1           0      -25.312177    3.166600    3.449247
     77          1           0      -28.524323    6.420529    2.617642
     78          1           0      -28.103120    5.835480    0.997303
     79          1           0      -27.279783    7.171265    1.759085
     80         12           0       24.977105   -0.669667    0.303622
     81          6           0       24.906159    2.278546   -1.475402
     82          6           0       24.845803    1.260236    3.308038
     83          6           0       25.402508   -3.400082    2.071824
     84          6           0       25.273311   -2.496384   -2.652542
     85          7           0       24.880304    1.519333    0.764604
     86          6           0       24.828057    2.523697   -0.115226
     87          6           0       24.633754    3.866793    0.661312
     88          6           0       24.760970    3.471333    2.203608
     89          6           0       24.893178    1.939700    2.098520
     90          6           0       26.000492    3.946675    2.936941
     91          6           0       23.359137    4.643304    0.297946
     92          6           0       23.669322    6.092683   -0.036390
     93          1           0       22.617847    7.194211    0.161479
     94          7           0       25.024360   -1.009654    2.402326
     95          6           0       24.909054   -0.144366    3.451864
     96          6           0       24.924453   -0.798537    4.683421
     97          6           0       25.211288   -2.177243    4.389774
     98          6           0       25.211240   -2.259571    2.888182
     99          6           0       24.736843   -0.101165    6.022954
    100          6           0       25.502962   -3.319023    5.349781
    101          8           0       25.896687   -4.403771    4.878981
    102          6           0       25.448965   -3.143302    6.812502
    103          7           0       25.252745   -2.610066   -0.239419
    104          6           0       25.350125   -3.636102    0.677939
    105          6           0       25.566048   -5.061295    0.046117
    106          6           0       25.231247   -4.721711   -1.468899
    107          6           0       25.271820   -3.182600   -1.472179
    108          6           0       26.941668   -5.825700    0.183171
    109          6           0       23.969930   -5.425871   -2.147566
    110          6           0       22.628571   -4.847864   -1.781001
    111          7           0       25.210093   -0.271326   -1.633133
    112          6           0       25.323580   -1.069672   -2.755364
    113          6           0       25.395558   -0.317456   -3.940678
    114          6           0       25.196873    0.985441   -3.469522
    115          6           0       25.081340    0.988047   -2.048841
    116          6           0       25.485334   -0.946951   -5.265301
    117          6           0       25.201073    2.308330   -3.963889
    118          8           0       25.423780    2.680928   -5.117578
    119          6           0       24.980114    3.270356   -2.683007
    120          6           0       26.087259    4.206220   -2.595792
    121          8           0       27.213874    3.965090   -2.226752
    122          8           0       25.735669    5.385507   -3.093266
    123          6           0       26.725120    6.413375   -3.212782
    124          1           0       24.857511    1.860272    4.219861
    125          1           0       25.555584   -4.383639    2.520147
    126          1           0       25.369512   -3.106174   -3.553348
    127          1           0       25.539072    4.392174    0.358888
    128          1           0       23.930370    3.977437    2.696877
    129          1           0       26.642890    4.611094    2.358260
    130          1           0       26.635967    3.098481    3.190158
    131          1           0       25.723064    4.337840    3.916245
    132          1           0       22.573592    4.618310    1.053393
    133          1           0       22.908996    4.149818   -0.563096
    134          1           0       23.832553    6.119542   -1.114374
    135          1           0       24.555559    6.349432    0.543618
    136          1           0       24.378622    0.920801    5.898574
    137          1           0       25.714214    0.032713    6.487074
    138          1           0       24.152796   -0.715547    6.707155
    139          1           0       26.035574   -3.911724    7.317271
    140          1           0       24.411783   -3.299664    7.110609
    141          1           0       25.826681   -2.159651    7.090491
    142          1           0       24.765846   -5.754985    0.306096
    143          1           0       26.024133   -5.128511   -2.095312
    144          1           0       27.609226   -5.200686    0.775005
    145          1           0       27.451939   -5.805195   -0.780616
    146          1           0       26.931527   -6.845137    0.569933
    147          1           0       23.953923   -6.444545   -1.760850
    148          1           0       24.049790   -5.534497   -3.228524
    149          1           0       21.980346   -4.986055   -2.645634
    150          1           0       22.536243   -3.823403   -1.422550
    151          1           0       22.266271   -5.430316   -0.933880
    152          1           0       25.021678   -1.921797   -5.414148
    153          1           0       26.463842   -0.919735   -5.743243
    154          1           0       24.937485   -0.224677   -5.869981
    155          1           0       24.049855    3.816940   -2.836606
    156          1           0       26.795420    7.027993   -2.314611
    157          1           0       26.392469    7.078894   -4.009142
    158          1           0       27.701281    5.967285   -3.403686
 ---------------------------------------------------------------------

 SCF Done:  E(RwB97XD) =  -4070.61929077     A.U. after   19 cycles

 Excitation energies and oscillator strengths:

 Excited State   1:      Singlet-A      1.6476 eV  752.49 nm  f=0.3811  <S**2>=0.000
     310 -> 316        0.17791
     311 -> 313        0.68358
     310 <- 316        0.11426
 This state for optimization and/or second-order correction.
 Total Energy, E(TD-HF/TD-DFT) =  -4070.55874078
 Copying the excited state density for this state as the 1-particle RhoCI density.

 Excited State   2:      Singlet-A      1.6528 eV  750.15 nm  f=0.4028  <S**2>=0.000
     309 -> 315       -0.17759
     312 -> 314        0.68458
     309 <- 315       -0.11365

 Excited State   3:      Singlet-A      2.1347 eV  580.80 nm  f=0.1146  <S**2>=0.000
     309 -> 314        0.64479
     312 -> 315        0.27145

 Excited State   4:      Singlet-A      2.1651 eV  572.65 nm  f=0.1563  <S**2>=0.000
     310 -> 313        0.65106
     311 -> 316       -0.25711

 Excited State   5:      Singlet-A      3.3544 eV  369.61 nm  f=0.0031  <S**2>=0.000
     305 -> 318       -0.10698
     307 -> 313        0.67504

 The electronic state is 1-A.
 Alpha  occ. eigenvalues --  -46.94964 -46.94056 -19.30032 -19.29724 -19.24946
 Alpha  occ. eigenvalues --  -19.24158 -19.23672 -19.23557 -19.23316 -19.23285
 Alpha  occ. eigenvalues --  -14.48042 -14.46916 -14.46810 -14.45940 -14.44355
 Alpha  occ. eigenvalues --  -14.44345 -14.43633 -14.43581 -10.43247 -10.42112
 Alpha  occ. eigenvalues --  -10.39193 -10.38865 -10.38764 -10.38547 -10.35956
 Alpha  occ. eigenvalues --  -10.35584 -10.35460 -10.35376 -10.35262 -10.35180
 Alpha  occ. eigenvalues --  -10.35109 -10.35074 -10.34945 -10.34826 -10.34764
 Alpha  occ. eigenvalues --  -10.34527 -10.34161 -10.33672 -10.33435 -10.33354
 Alpha  occ. eigenvalues --  -10.33070 -10.33000 -10.32966 -10.32790 -10.32634
 Alpha  occ. eigenvalues --  -10.32529 -10.32505 -10.32458 -10.32425 -10.32331
 Alpha  occ. eigenvalues --  -10.32329 -10.32325 -10.32321 -10.32259 -10.32198
 Alpha  occ. eigenvalues --  -10.32039 -10.31759 -10.31714 -10.31667 -10.31655
 Alpha  occ. eigenvalues --  -10.31641 -10.31408 -10.31254 -10.31187 -10.31159
 Alpha  occ. eigenvalues --  -10.31151 -10.30740 -10.30714 -10.30627 -10.30543
 Alpha  occ. eigenvalues --  -10.30508 -10.30315 -10.30311 -10.30281 -10.30190
 Alpha  occ. eigenvalues --  -10.30043 -10.29675 -10.29643 -10.29443 -10.29304
 Alpha  occ. eigenvalues --  -10.28969 -10.28929 -10.28788 -10.28687 -10.28400
 Alpha  occ. eigenvalues --  -10.28285  -3.20898  -3.20248  -1.94511  -1.93997
 Alpha  occ. eigenvalues --   -1.93885  -1.93844  -1.93395  -1.93227  -1.20115
 Alpha  occ. eigenvalues --   -1.17742  -1.14391  -1.11103  -1.10745  -1.09977
 Alpha  occ. eigenvalues --   -1.09578  -1.08856  -1.07330  -1.06626  -1.05775
 Alpha  occ. eigenvalues --   -1.05644  -1.05352  -1.04930  -1.04602  -1.03771
 Alpha  occ. eigenvalues --   -0.94928  -0.94066  -0.92004  -0.91331  -0.91298
 Alpha  occ. eigenvalues --   -0.90781  -0.90668  -0.90228  -0.89821  -0.89600
 Alpha  occ. eigenvalues --   -0.89465  -0.88860  -0.88749  -0.88119  -0.86624
 Alpha  occ. eigenvalues --   -0.86540  -0.85771  -0.85433  -0.84853  -0.84597
 Alpha  occ. eigenvalues --   -0.84438  -0.84344  -0.83166  -0.83056  -0.82586
 Alpha  occ. eigenvalues --   -0.81879  -0.80940  -0.80333  -0.79272  -0.79267
 Alpha  occ. eigenvalues --   -0.79015  -0.78852  -0.78222  -0.77901  -0.77234
 Alpha  occ. eigenvalues --   -0.76950  -0.75457  -0.74441  -0.73442  -0.73320
 Alpha  occ. eigenvalues --   -0.71619  -0.71579  -0.70858  -0.70849  -0.69831
 Alpha  occ. eigenvalues --   -0.69766  -0.69108  -0.69108  -0.67793  -0.67359
 Alpha  occ. eigenvalues --   -0.66973  -0.66938  -0.66590  -0.66371  -0.66216
 Alpha  occ. eigenvalues --   -0.65347  -0.64319  -0.63766  -0.62441  -0.62430
 Alpha  occ. eigenvalues --   -0.62006  -0.61920  -0.61163  -0.61013  -0.60968
 Alpha  occ. eigenvalues --   -0.60551  -0.60514  -0.60323  -0.59686  -0.59606
 Alpha  occ. eigenvalues --   -0.58523  -0.58433  -0.58114  -0.57769  -0.57115
 Alpha  occ. eigenvalues --   -0.56716  -0.56607  -0.56456  -0.56314  -0.56017
 Alpha  occ. eigenvalues --   -0.55953  -0.55688  -0.55611  -0.55472  -0.55150
 Alpha  occ. eigenvalues --   -0.54999  -0.54720  -0.54469  -0.54369  -0.54256
 Alpha  occ. eigenvalues --   -0.54036  -0.53823  -0.53691  -0.53637  -0.53460
 Alpha  occ. eigenvalues --   -0.53301  -0.52758  -0.52635  -0.52290  -0.52236
 Alpha  occ. eigenvalues --   -0.52210  -0.51947  -0.51924  -0.51637  -0.51622
 Alpha  occ. eigenvalues --   -0.51555  -0.51437  -0.51177  -0.51095  -0.51094
 Alpha  occ. eigenvalues --   -0.51042  -0.50888  -0.50346  -0.50282  -0.50166
 Alpha  occ. eigenvalues --   -0.50083  -0.49729  -0.49694  -0.49598  -0.49306
 Alpha  occ. eigenvalues --   -0.49101  -0.48828  -0.48681  -0.48472  -0.48329
 Alpha  occ. eigenvalues --   -0.48284  -0.47967  -0.47810  -0.47472  -0.47459
 Alpha  occ. eigenvalues --   -0.47367  -0.47344  -0.47124  -0.47075  -0.46928
 Alpha  occ. eigenvalues --   -0.46879  -0.46535  -0.46314  -0.46248  -0.46099
 Alpha  occ. eigenvalues --   -0.45857  -0.45659  -0.45580  -0.45455  -0.45452
 Alpha  occ. eigenvalues --   -0.45219  -0.45145  -0.45050  -0.44788  -0.44629
 Alpha  occ. eigenvalues --   -0.44505  -0.44477  -0.44412  -0.43942  -0.43758
 Alpha  occ. eigenvalues --   -0.43542  -0.43504  -0.43442  -0.43351  -0.43030
 Alpha  occ. eigenvalues --   -0.42967  -0.42927  -0.42908  -0.42399  -0.42298
 Alpha  occ. eigenvalues --   -0.42173  -0.41664  -0.41434  -0.41129  -0.40880
 Alpha  occ. eigenvalues --   -0.40322  -0.40122  -0.39696  -0.39679  -0.39297
 Alpha  occ. eigenvalues --   -0.39188  -0.39102  -0.38649  -0.38393  -0.38351
 Alpha  occ. eigenvalues --   -0.38238  -0.38132  -0.36637  -0.36517  -0.36247
 Alpha  occ. eigenvalues --   -0.35815  -0.35420  -0.35402  -0.33923  -0.33691
 Alpha  occ. eigenvalues --   -0.33388  -0.32736  -0.32572  -0.32349  -0.32240
 Alpha  occ. eigenvalues --   -0.32160  -0.31963  -0.31464  -0.26092  -0.26064
 Alpha  occ. eigenvalues --   -0.23307  -0.23221
 Alpha virt. eigenvalues --   -0.07483  -0.07311   0.00171   0.00479   0.02465
 Alpha virt. eigenvalues --    0.02516   0.04282   0.04563   0.06196   0.06247
 Alpha virt. eigenvalues --    0.07132   0.07702   0.07905   0.08078   0.08228

 Mulliken charges:
               1
     1  Mg   0.953934
     2  C   -0.042927
     3  C   -0.110471
     4  C   -0.074469
     5  C   -0.071340
     6  N   -0.321093
     7  C   -0.004067
     8  C   -0.076448
     9  C   -0.141318
    10  C    0.116729
    11  C    0.056680
    12  C    0.009112
    13  C   -0.101768
    14  H    0.060732
    15  N   -0.444590
    16  C    0.147237
    17  C   -0.177182
    18  C   -0.058199
    19  C    0.148164
    20  C    0.068332
    21  C    0.023089
    22  O   -0.209930
    23  C   -0.009684
    24  N   -0.406359
    25  C    0.080332
    26  C   -0.094168
    27  C   -0.043969
    28  C    0.108108
    29  C    0.034256
    30  C    0.007518
    31  C   -0.069583
    32  N   -0.442672
    33  C    0.083784
    34  C   -0.209139
    35  C    0.006997
    36  C    0.127406
    37  C    0.079131
    38  C    0.099170
    39  O   -0.251496
    40  C   -0.045788
    41  C    0.263365
    42  O   -0.210389
    43  O   -0.401515
    44  C    0.135715
    45  H    0.006520
    46  H    0.021253
    47  H   -0.000373
    48  H    0.038163
    49  H    0.035950
    50  H    0.032107
    51  H    0.057758
    52  H    0.022851
    53  H    0.027408
    54  H    0.042811
    55  H    0.027488
    56  H    0.044594
    57  H    0.032525
    58  H    0.076093
    59  H    0.059595
    60  H    0.059820
    61  H    0.052658
    62  H    0.061958
    63  H    0.025008
    64  H    0.018257
    65  H    0.045003
    66  H    0.032949
    67  H    0.031287
    68  H    0.032132
    69  H    0.016185
    70  H    0.030682
    71  H    0.056738
    72  H    0.029937
    73  H    0.053941
    74  H    0.066188
    75  H    0.035061
    76  H    0.077657
    77  H    0.056927
    78  H    0.049859
    79  H    0.051786
    80  Mg   0.992366
    81  C   -0.044799
    82  C   -0.105210
    83  C   -0.051587
    84  C   -0.104005
    85  N   -0.349835
    86  C   -0.028257
    87  C   -0.021333
    88  C   -0.162789
    89  C    0.116164
    90  C    0.006208
    91  C    0.037873
    92  C   -0.145881
    93  H    0.028818
    94  N   -0.425528
    95  C    0.160250
    96  C   -0.175183
    97  C   -0.074092
    98  C    0.171357
    99  C    0.066506
   100  C    0.038113
   101  O   -0.260143
   102  C    0.004640
   103  N   -0.396243
   104  C    0.027614
   105  C   -0.070196
   106  C   -0.076040
   107  C    0.087062
   108  C    0.029242
   109  C   -0.031237
   110  C   -0.058220
   111  N   -0.470258
   112  C    0.131911
   113  C   -0.134427
   114  C   -0.037898
   115  C    0.195579
   116  C    0.072369
   117  C    0.096081
   118  O   -0.219411
   119  C   -0.078182
   120  C    0.235461
   121  O   -0.251489
   122  O   -0.328077
   123  C    0.135854
   124  H   -0.002130
   125  H    0.021848
   126  H   -0.004700
   127  H    0.033211
   128  H    0.042969
   129  H    0.043829
   130  H    0.040418
   131  H    0.035212
   132  H    0.039556
   133  H    0.030023
   134  H    0.063188
   135  H    0.056149
   136  H    0.042449
   137  H    0.057082
   138  H    0.056375
   139  H    0.055895
   140  H    0.067031
   141  H    0.044985
   142  H    0.038419
   143  H    0.027416
   144  H    0.039893
   145  H    0.027344
   146  H    0.056796
   147  H    0.029194
   148  H    0.032955
   149  H    0.037780
   150  H    0.047622
   151  H    0.028759
   152  H    0.045993
   153  H    0.055592
   154  H    0.045377
   155  H    0.065545
   156  H    0.042553
   157  H    0.055524
   158  H    0.066702
 Sum of Mulliken charges =  -0.00000

 Dipole moment (field-independent basis, Debye):
    X=              1.4756    Y=              0.4782    Z=             -2.3844  Tot=              2.8445
 Quadrupole moment (field-independent basis, Debye-Ang):
   XX=           -833.1316   YY=           -469.0335   ZZ=           -512.2092
   XY=            -16.1968   XZ=            249.4599   YZ=             -1.2522

 Normal termination of Gaussian 16 at Sat Sep 18 12:38:11 2021.
