 Gaussian 16, Revision A.03,
 Gaussian 16:  ES64L-G16RevA.03 25-Dec-2016

 --------------------------------
 #p wB97XD/Def2SVP td=(nstates=5)
 --------------------------------

 --------------------------------
 TDDFT excited states in gaussian
 --------------------------------
 Symbolic Z-matrix:
 Charge =  0 Multiplicity = 1

                         Standard orientation:
 ---------------------------------------------------------------------
 Center     Atomic      Atomic             Coordinates (Angstroms)
 Number     Number       Type             X           Y           Z
 ---------------------------------------------------------------------
      1         12           0        5.502341    0.098815    0.713550
      2          6           0        4.866474   -3.235158   -0.028588
      3          6           0        3.110305   -0.109469    3.164658
      4          6           0        5.931404    3.474817    1.290970
      5          6           0        7.492388    0.401439   -2.132273
      6          7           0        4.228446   -1.528082    1.523250
      7          6           0        4.202476   -2.821478    1.158995
      8          6           0        3.349721   -3.735721    2.069268
      9          6           0        2.594970   -2.656476    2.957775
     10          6           0        3.315639   -1.295415    2.511198
     11          6           0        1.055750   -2.730206    2.655559
     12          6           0        4.374593   -4.679947    2.884328
     13          6           0        4.124301   -6.214462    2.799377
     14          1           0        2.660217   -6.602087    2.379918
     15          7           0        4.623272    1.536560    1.969247
     16          6           0        3.697864    1.207900    2.981326
     17          6           0        3.516324    2.361522    3.836384
     18          6           0        4.269542    3.410598    3.294330
     19          6           0        5.068350    2.815457    2.159744
     20          6           0        2.403616    2.401248    4.893493
     21          6           0        4.333738    4.886467    3.769285
     22          8           0        5.030272    5.777473    3.248175
     23          6           0        3.538843    5.279308    5.026445
     24          7           0        6.514876    1.690767   -0.361365
     25          6           0        6.566276    3.015602    0.169480
     26          6           0        7.256104    3.967457   -0.829984
     27          6           0        7.993316    2.910087   -1.777329
     28          6           0        7.326723    1.568778   -1.373655
     29          6           0        6.217765    4.882231   -1.458295
     30          6           0        9.553957    2.864218   -1.493876
     31          6           0       10.212336    2.656082   -0.087531
     32          7           0        6.020175   -1.088695   -0.819667
     33          6           0        6.826916   -0.851170   -1.936752
     34          6           0        6.921714   -2.049447   -2.705702
     35          6           0        6.223122   -3.009132   -1.995603
     36          6           0        5.592847   -2.371505   -0.898550
     37          6           0        7.594023   -2.229198   -4.051457
     38          6           0        5.857505   -4.369982   -1.989396
     39          8           0        6.068029   -5.175503   -2.839279
     40          6           0        4.861481   -4.537025   -0.768133
     41          6           0        3.518051   -4.847112   -1.368324
     42          8           0        2.601298   -4.054436   -1.425971
     43          8           0        3.566573   -6.101378   -1.832524
     44          6           0        2.541550   -6.379227   -2.808614
     45          1           0        2.410667   -0.185391    3.999353
     46          1           0        5.867807    4.563384    1.336827
     47          1           0        8.103853    0.482587   -3.033953
     48          1           0        2.659584   -4.396994    1.545662
     49          1           0        2.752035   -2.756402    4.032008
     50          1           0        0.559196   -1.765809    2.545853
     51          1           0        0.738316   -3.257205    3.554895
     52          1           0        0.934050   -3.416547    1.817908
     53          1           0        4.421857   -4.295828    3.903092
     54          1           0        5.367117   -4.482182    2.478757
     55          1           0        4.347226   -6.515011    3.822559
     56          1           0        4.794694   -6.754265    2.131238
     57          1           0        1.782063    3.268376    4.668766
     58          1           0        2.843966    2.591627    5.873164
     59          1           0        1.845404    1.465648    4.879582
     60          1           0        2.486260    5.293464    4.740644
     61          1           0        3.801289    6.318467    5.224160
     62          1           0        3.899114    4.705028    5.879621
     63          1           0        8.026140    4.469296   -0.243340
     64          1           0        7.917757    3.229534   -2.816098
     65          1           0        5.364598    5.072743   -0.807004
     66          1           0        5.842650    4.454786   -2.387897
     67          1           0        6.636309    5.871023   -1.644814
     68          1           0        9.995486    3.754788   -1.941243
     69          1           0        9.861417    1.964075   -2.026207
     70          1           0       10.327532    3.632909    0.382407
     71          1           0       11.187189    2.210923   -0.289937
     72          1           0        9.734754    1.922908    0.563233
     73          1           0        8.658872   -1.998547   -4.015085
     74          1           0        7.089393   -1.505017   -4.690672
     75          1           0        7.638818   -3.253267   -4.424746
     76          1           0        5.059590   -5.338774   -0.056532
     77          1           0        2.832901   -7.113948   -3.558847
     78          1           0        1.981900   -5.580220   -3.294700
     79          1           0        1.656241   -6.853214   -2.384191
     80         12           0       -4.565592    0.809518   -1.110853
     81          6           0       -7.563362   -0.846118    0.007645
     82          6           0       -2.869173   -2.031542   -0.656607
     83          6           0       -1.759211    2.631744   -1.296500
     84          6           0       -6.414857    3.789917   -1.069656
     85          7           0       -5.148494   -1.148822   -0.364567
     86          6           0       -6.432900   -1.676746   -0.148963
     87          6           0       -6.389900   -3.244016    0.013438
     88          6           0       -4.870539   -3.555591   -0.141575
     89          6           0       -4.250167   -2.169980   -0.463470
     90          6           0       -4.179821   -4.227397    1.017987
     91          6           0       -7.371539   -4.009946   -1.025296
     92          6           0       -8.348449   -5.005901   -0.388215
     93          1           0       -8.207574   -6.476381   -0.931538
     94          7           0       -2.575769    0.333999   -1.130364
     95          6           0       -2.052227   -0.878393   -0.922529
     96          6           0       -0.589197   -0.848027   -0.964010
     97          6           0       -0.280054    0.552846   -1.058495
     98          6           0       -1.562144    1.258713   -1.153797
     99          6           0        0.248413   -2.050284   -0.868016
    100          6           0        1.166755    1.130396   -0.958497
    101          8           0        1.400092    2.318208   -1.107492
    102          6           0        2.364646    0.273248   -0.700180
    103          7           0       -4.181586    2.845433   -1.174392
    104          6           0       -2.904958    3.356644   -1.381926
    105          6           0       -2.945801    4.909300   -1.565700
    106          6           0       -4.471627    5.187037   -1.835971
    107          6           0       -5.076730    3.855830   -1.390886
    108          6           0       -2.245504    5.791581   -0.481460
    109          6           0       -4.809138    5.494754   -3.320584
    110          6           0       -5.835284    6.556925   -3.624775
    111          7           0       -6.558295    1.400958   -0.587203
    112          6           0       -7.142147    2.635292   -0.625934
    113          6           0       -8.635077    2.476484   -0.341740
    114          6           0       -8.846081    1.133703   -0.141378
    115          6           0       -7.545507    0.528783   -0.229970
    116          6           0       -9.608442    3.630770   -0.416770
    117          6           0       -9.803332    0.088547    0.174564
    118          8           0      -11.023466    0.287501    0.351171
    119          6           0       -8.962899   -1.306993    0.389196
    120          6           0       -8.966279   -1.838454    1.807323
    121          8           0       -8.611591   -1.117307    2.760736
    122          8           0       -9.562766   -3.096187    1.905933
    123          6           0       -9.947221   -3.420243    3.274779
    124          1           0       -2.272532   -2.945660   -0.635509
    125          1           0       -0.799023    3.137814   -1.413628
    126          1           0       -6.946147    4.735829   -1.197601
    127          1           0       -6.768194   -3.383660    1.025914
    128          1           0       -4.829217   -4.345879   -0.892395
    129          1           0       -4.833402   -4.381292    1.876724
    130          1           0       -3.518376   -3.416470    1.321037
    131          1           0       -3.748840   -5.195650    0.761563
    132          1           0       -6.669244   -4.496455   -1.701622
    133          1           0       -7.879234   -3.269678   -1.643068
    134          1           0       -9.346709   -4.588362   -0.519500
    135          1           0       -8.153618   -5.061412    0.683558
    136          1           0        1.013969   -2.124017   -0.096257
    137          1           0        0.912060   -1.984392   -1.729432
    138          1           0       -0.265785   -2.995952   -1.040910
    139          1           0        2.401731   -0.419621   -1.541666
    140          1           0        2.138028   -0.315422    0.189200
    141          1           0        3.202385    0.962238   -0.600084
    142          1           0       -2.399587    5.070350   -2.495147
    143          1           0       -4.892116    5.935588   -1.164848
    144          1           0       -1.732359    5.071399    0.155412
    145          1           0       -2.918020    6.459866    0.055570
    146          1           0       -1.403855    6.352584   -0.889547
    147          1           0       -5.171304    4.503621   -3.593021
    148          1           0       -3.945502    5.700024   -3.953447
    149          1           0       -5.425436    7.127511   -4.458257
    150          1           0       -5.984319    7.257074   -2.802144
    151          1           0       -6.692381    6.030143   -4.045008
    152          1           0       -9.029606    4.522654   -0.656063
    153          1           0      -10.013853    3.796115    0.581180
    154          1           0      -10.409282    3.388802   -1.115196
    155          1           0       -9.332283   -2.041091   -0.326880
    156          1           0      -11.019525   -3.449085    3.463218
    157          1           0       -9.502324   -2.770377    4.028467
    158          1           0       -9.553085   -4.417211    3.470105
 ---------------------------------------------------------------------

 SCF Done:  E(RwB97XD) =  -4070.61722070     A.U. after   19 cycles

 Excitation energies and oscillator strengths:

 Excited State   1:      Singlet-A      1.6293 eV  760.96 nm  f=0.5586  <S**2>=0.000
     310 -> 316       -0.17255
     311 -> 313        0.15153
     312 -> 314        0.66885
     310 <- 316       -0.11367
 This state for optimization and/or second-order correction.
 Total Energy, E(TD-HF/TD-DFT) =  -4070.55734468
 Copying the excited state density for this state as the 1-particle RhoCI density.

 Excited State   2:      Singlet-A      1.6339 eV  758.80 nm  f=0.2735  <S**2>=0.000
     309 -> 315       -0.17569
     311 -> 313        0.66772
     312 -> 314       -0.15166
     309 <- 315       -0.11342

 Excited State   3:      Singlet-A      2.1582 eV  574.47 nm  f=0.0948  <S**2>=0.000
     309 -> 313        0.64380
     311 -> 315        0.27464

 Excited State   4:      Singlet-A      2.2365 eV  554.37 nm  f=0.0874  <S**2>=0.000
     310 -> 314        0.62346
     312 -> 316        0.31904

 Excited State   5:      Singlet-A      2.6722 eV  463.97 nm  f=0.0000  <S**2>=0.000
     312 -> 313        0.70511

 The electronic state is 1-A.
 Alpha  occ. eigenvalues --  -46.94592 -46.94374 -19.32185 -19.31749 -19.26053
 Alpha  occ. eigenvalues --  -19.25605 -19.24765 -19.24709 -19.23614 -19.22849
 Alpha  occ. eigenvalues --  -14.47084 -14.46851 -14.46191 -14.45889 -14.44241
 Alpha  occ. eigenvalues --  -14.43925 -14.43904 -14.43524 -10.44500 -10.44054
 Alpha  occ. eigenvalues --  -10.40267 -10.39210 -10.39076 -10.38189 -10.35937
 Alpha  occ. eigenvalues --  -10.35807 -10.35353 -10.35237 -10.34799 -10.34668
 Alpha  occ. eigenvalues --  -10.34645 -10.34420 -10.34263 -10.34214 -10.33972
 Alpha  occ. eigenvalues --  -10.33936 -10.33847 -10.33831 -10.33779 -10.33738
 Alpha  occ. eigenvalues --  -10.33426 -10.33205 -10.33086 -10.32997 -10.32853
 Alpha  occ. eigenvalues --  -10.32803 -10.32732 -10.32681 -10.32594 -10.32544
 Alpha  occ. eigenvalues --  -10.32380 -10.32023 -10.31944 -10.31941 -10.31850
 Alpha  occ. eigenvalues --  -10.31822 -10.31778 -10.31512 -10.31309 -10.31227
 Alpha  occ. eigenvalues --  -10.31114 -10.31075 -10.31041 -10.30955 -10.30880
 Alpha  occ. eigenvalues --  -10.30740 -10.30640 -10.30553 -10.30529 -10.30383
 Alpha  occ. eigenvalues --  -10.30162 -10.30032 -10.29714 -10.29579 -10.29563
 Alpha  occ. eigenvalues --  -10.29477 -10.29402 -10.29367 -10.29306 -10.29188
 Alpha  occ. eigenvalues --  -10.29130 -10.29068 -10.29008 -10.29003 -10.28885
 Alpha  occ. eigenvalues --  -10.28847  -3.20630  -3.20450  -1.94225  -1.94023
 Alpha  occ. eigenvalues --   -1.93732  -1.93620  -1.93560  -1.93449  -1.21192
 Alpha  occ. eigenvalues --   -1.18337  -1.14642  -1.12238  -1.11594  -1.11005
 Alpha  occ. eigenvalues --   -1.10503  -1.09959  -1.06439  -1.05561  -1.05539
 Alpha  occ. eigenvalues --   -1.04922  -1.04907  -1.04295  -1.03549  -1.03293
 Alpha  occ. eigenvalues --   -0.95176  -0.94280  -0.90646  -0.90564  -0.90363
 Alpha  occ. eigenvalues --   -0.90342  -0.89744  -0.89511  -0.89174  -0.88910
 Alpha  occ. eigenvalues --   -0.88620  -0.88413  -0.88059  -0.87693  -0.86261
 Alpha  occ. eigenvalues --   -0.85891  -0.85513  -0.85269  -0.84349  -0.84322
 Alpha  occ. eigenvalues --   -0.83500  -0.83032  -0.82902  -0.82838  -0.82008
 Alpha  occ. eigenvalues --   -0.81805  -0.79769  -0.79658  -0.79262  -0.79223
 Alpha  occ. eigenvalues --   -0.78875  -0.78475  -0.78061  -0.77888  -0.77025
 Alpha  occ. eigenvalues --   -0.76248  -0.75156  -0.74065  -0.73345  -0.72600
 Alpha  occ. eigenvalues --   -0.70985  -0.70824  -0.70679  -0.70224  -0.70018
 Alpha  occ. eigenvalues --   -0.69597  -0.68550  -0.68265  -0.68204  -0.66975
 Alpha  occ. eigenvalues --   -0.66874  -0.66672  -0.66623  -0.66540  -0.66036
 Alpha  occ. eigenvalues --   -0.65970  -0.64683  -0.64283  -0.62267  -0.61777
 Alpha  occ. eigenvalues --   -0.61678  -0.61378  -0.61194  -0.60811  -0.60602
 Alpha  occ. eigenvalues --   -0.60211  -0.60182  -0.59939  -0.59504  -0.58926
 Alpha  occ. eigenvalues --   -0.58648  -0.57970  -0.57805  -0.57477  -0.57148
 Alpha  occ. eigenvalues --   -0.56708  -0.56567  -0.56453  -0.55998  -0.55637
 Alpha  occ. eigenvalues --   -0.55439  -0.55382  -0.55132  -0.54780  -0.54445
 Alpha  occ. eigenvalues --   -0.54333  -0.54221  -0.54130  -0.53979  -0.53921
 Alpha  occ. eigenvalues --   -0.53504  -0.53325  -0.53233  -0.53119  -0.53091
 Alpha  occ. eigenvalues --   -0.52924  -0.52810  -0.52732  -0.52419  -0.52180
 Alpha  occ. eigenvalues --   -0.52105  -0.51753  -0.51726  -0.51247  -0.51027
 Alpha  occ. eigenvalues --   -0.50937  -0.50850  -0.50753  -0.50535  -0.50355
 Alpha  occ. eigenvalues --   -0.50233  -0.50145  -0.49980  -0.49882  -0.49778
 Alpha  occ. eigenvalues --   -0.49640  -0.49531  -0.49472  -0.49305  -0.48842
 Alpha  occ. eigenvalues --   -0.48737  -0.48544  -0.48392  -0.48321  -0.48153
 Alpha  occ. eigenvalues --   -0.48008  -0.47884  -0.47662  -0.47596  -0.47462
 Alpha  occ. eigenvalues --   -0.47278  -0.47161  -0.47080  -0.46980  -0.46806
 Alpha  occ. eigenvalues --   -0.46668  -0.46369  -0.46270  -0.46138  -0.45975
 Alpha  occ. eigenvalues --   -0.45795  -0.45726  -0.45682  -0.45463  -0.45296
 Alpha  occ. eigenvalues --   -0.45254  -0.45168  -0.45067  -0.44890  -0.44683
 Alpha  occ. eigenvalues --   -0.44571  -0.44502  -0.44386  -0.44290  -0.43874
 Alpha  occ. eigenvalues --   -0.43796  -0.43438  -0.43276  -0.42939  -0.42818
 Alpha  occ. eigenvalues --   -0.42791  -0.42674  -0.42392  -0.42308  -0.42169
 Alpha  occ. eigenvalues --   -0.41831  -0.41499  -0.41292  -0.41151  -0.40729
 Alpha  occ. eigenvalues --   -0.39993  -0.39905  -0.39803  -0.39585  -0.39362
 Alpha  occ. eigenvalues --   -0.39215  -0.39189  -0.39107  -0.38647  -0.38364
 Alpha  occ. eigenvalues --   -0.38207  -0.37759  -0.37642  -0.36863  -0.36289
 Alpha  occ. eigenvalues --   -0.36082  -0.35151  -0.34775  -0.34074  -0.33354
 Alpha  occ. eigenvalues --   -0.33338  -0.33160  -0.32710  -0.32348  -0.32185
 Alpha  occ. eigenvalues --   -0.31873  -0.31795  -0.31340  -0.25895  -0.25734
 Alpha  occ. eigenvalues --   -0.22960  -0.22167
 Alpha virt. eigenvalues --   -0.07125  -0.06346   0.00400   0.00947   0.02309
 Alpha virt. eigenvalues --    0.02377   0.04370   0.04766   0.05190   0.05395
 Alpha virt. eigenvalues --    0.05457   0.06761   0.07198   0.07572   0.08274

 Mulliken charges:
               1
     1  Mg   0.903128
     2  C   -0.019595
     3  C   -0.063478
     4  C   -0.058265
     5  C   -0.103702
     6  N   -0.327934
     7  C    0.000573
     8  C   -0.075399
     9  C   -0.120069
    10  C    0.048753
    11  C    0.022678
    12  C    0.001021
    13  C   -0.127013
    14  H    0.033272
    15  N   -0.461078
    16  C    0.136383
    17  C   -0.172077
    18  C   -0.087354
    19  C    0.143069
    20  C    0.086132
    21  C    0.053374
    22  O   -0.251186
    23  C   -0.017265
    24  N   -0.338023
    25  C    0.023503
    26  C   -0.062503
    27  C   -0.072483
    28  C    0.095894
    29  C    0.041041
    30  C   -0.059289
    31  C   -0.054589
    32  N   -0.483795
    33  C    0.146141
    34  C   -0.185028
    35  C   -0.007416
    36  C    0.140119
    37  C    0.079687
    38  C    0.094618
    39  O   -0.163165
    40  C   -0.098364
    41  C    0.251496
    42  O   -0.238479
    43  O   -0.306715
    44  C    0.139968
    45  H   -0.011907
    46  H    0.032232
    47  H    0.003353
    48  H    0.035861
    49  H    0.040191
    50  H    0.059164
    51  H    0.035995
    52  H    0.046768
    53  H    0.034441
    54  H    0.043470
    55  H    0.058258
    56  H    0.070195
    57  H    0.048479
    58  H    0.039386
    59  H    0.042929
    60  H    0.064072
    61  H    0.044816
    62  H    0.063613
    63  H    0.034805
    64  H    0.030911
    65  H    0.052144
    66  H    0.038074
    67  H    0.036191
    68  H    0.039278
    69  H    0.021014
    70  H    0.048050
    71  H    0.037176
    72  H    0.043444
    73  H    0.038225
    74  H    0.057108
    75  H    0.056975
    76  H    0.057912
    77  H    0.061226
    78  H    0.053269
    79  H    0.025188
    80  Mg   0.973372
    81  C   -0.098833
    82  C   -0.082115
    83  C   -0.089636
    84  C   -0.101661
    85  N   -0.369618
    86  C   -0.014272
    87  C   -0.071738
    88  C   -0.106779
    89  C    0.105250
    90  C    0.025252
    91  C    0.006875
    92  C   -0.108198
    93  H    0.025978
    94  N   -0.455137
    95  C    0.111622
    96  C   -0.144234
    97  C   -0.069263
    98  C    0.117348
    99  C    0.080873
   100  C    0.051609
   101  O   -0.236333
   102  C   -0.050762
   103  N   -0.401060
   104  C    0.094199
   105  C   -0.057996
   106  C   -0.103347
   107  C    0.062362
   108  C    0.035208
   109  C   -0.016358
   110  C   -0.025896
   111  N   -0.388107
   112  C    0.147228
   113  C   -0.230734
   114  C    0.015292
   115  C    0.152341
   116  C    0.098759
   117  C    0.145730
   118  O   -0.223304
   119  C   -0.037536
   120  C    0.292611
   121  O   -0.257076
   122  O   -0.367285
   123  C    0.121663
   124  H   -0.013906
   125  H    0.016451
   126  H   -0.005206
   127  H    0.040298
   128  H    0.033156
   129  H    0.027553
   130  H    0.040772
   131  H    0.041583
   132  H    0.031166
   133  H    0.038128
   134  H    0.064294
   135  H    0.053966
   136  H    0.031435
   137  H    0.038885
   138  H    0.036617
   139  H    0.069870
   140  H    0.067104
   141  H    0.128001
   142  H    0.030738
   143  H    0.028247
   144  H    0.037939
   145  H    0.044427
   146  H    0.035775
   147  H    0.029437
   148  H    0.034164
   149  H    0.028192
   150  H    0.041353
   151  H    0.043624
   152  H    0.022108
   153  H    0.057409
   154  H    0.065840
   155  H    0.057222
   156  H    0.062961
   157  H    0.071369
   158  H    0.043844
 Sum of Mulliken charges =  -0.00000

 Dipole moment (field-independent basis, Debye):
    X=              3.2169    Y=             -3.6566    Z=             -0.1431  Tot=              4.8724
 Quadrupole moment (field-independent basis, Debye-Ang):
   XX=           -544.6575   YY=           -492.1615   ZZ=           -485.0348
   XY=              4.2092   XZ=              9.6841   YZ=            -28.4426

 Normal termination of Gaussian 16 at Sun Sep 19 15:42:50 2021.
