 Gaussian 16, Revision A.03,
 Gaussian 16:  ES64L-G16RevA.03 25-Dec-2016

 --------------------------------
 #p wB97XD/Def2SVP td=(nstates=5)
 --------------------------------

 --------------------------------
 TDDFT excited states in gaussian
 --------------------------------
 Symbolic Z-matrix:
 Charge =  0 Multiplicity = 1

                         Standard orientation:
 ---------------------------------------------------------------------
 Center     Atomic      Atomic             Coordinates (Angstroms)
 Number     Number       Type             X           Y           Z
 ---------------------------------------------------------------------
      1         12           0      -31.373068    0.330569    0.314605
      2          6           0      -29.149604   -1.927962   -1.099474
      3          6           0      -31.976731    1.663080   -2.724165
      4          6           0      -33.355500    2.570308    1.817406
      5          6           0      -30.558635   -1.013511    3.443843
      6          7           0      -30.616892   -0.167444   -1.676792
      7          6           0      -29.821560   -1.143895   -2.043179
      8          6           0      -29.697059   -1.091362   -3.635414
      9          6           0      -29.938375    0.392047   -3.819048
     10          6           0      -30.964096    0.676064   -2.676001
     11          6           0      -28.603756    1.164791   -3.745777
     12          6           0      -30.641702   -2.177969   -4.307868
     13          6           0      -30.267003   -2.545845   -5.746839
     14          1           0      -29.226690   -1.707572   -6.469495
     15          7           0      -32.629062    1.763051   -0.366587
     16          6           0      -32.792163    2.113940   -1.704650
     17          6           0      -33.959146    3.042696   -1.786628
     18          6           0      -34.347403    3.380272   -0.420678
     19          6           0      -33.359348    2.602795    0.373492
     20          6           0      -34.516404    3.542704   -3.098377
     21          6           0      -35.535003    4.287138    0.146304
     22          8           0      -35.783823    4.417529    1.349622
     23          6           0      -36.392619    4.995278   -0.881626
     24          7           0      -31.788259    0.788253    2.289446
     25          6           0      -32.618873    1.755648    2.668881
     26          6           0      -32.669606    1.936299    4.217461
     27          6           0      -31.974214    0.641241    4.661071
     28          6           0      -31.440793    0.043381    3.397223
     29          6           0      -32.001823    3.238246    4.741570
     30          6           0      -32.760627   -0.347929    5.631600
     31          6           0      -33.344240   -1.583654    5.029422
     32          7           0      -29.976301   -1.013560    1.096567
     33          6           0      -29.802645   -1.504430    2.346688
     34          6           0      -28.780822   -2.486627    2.424809
     35          6           0      -28.474034   -2.708604    1.045421
     36          6           0      -29.235620   -1.797184    0.350279
     37          6           0      -28.102185   -3.206108    3.561477
     38          6           0      -27.711732   -3.458162    0.091763
     39          8           0      -26.893260   -4.342611    0.222679
     40          6           0      -28.209163   -3.115409   -1.348705
     41          6           0      -27.060297   -2.799154   -2.202643
     42          8           0      -26.312218   -1.861006   -1.973221
     43          8           0      -26.796937   -3.777179   -3.195562
     44          6           0      -25.585005   -3.567322   -4.003023
     45          1           0      -32.094111    2.108709   -3.713035
     46          1           0      -33.975888    3.340595    2.278602
     47          1           0      -30.293654   -1.372910    4.440026
     48          1           0      -28.697075   -1.400503   -3.936660
     49          1           0      -30.466488    0.651546   -4.736234
     50          1           0      -28.496952    1.532027   -4.767035
     51          1           0      -27.758142    0.530245   -3.477218
     52          1           0      -28.792617    2.024593   -3.103371
     53          1           0      -31.670865   -1.818358   -4.327935
     54          1           0      -30.495651   -3.080178   -3.713448
     55          1           0      -31.193493   -2.535883   -6.320137
     56          1           0      -29.930739   -3.582215   -5.727715
     57          1           0      -34.427304    2.789591   -3.882142
     58          1           0      -34.106344    4.472943   -3.490236
     59          1           0      -35.589789    3.690166   -2.980145
     60          1           0      -35.663460    5.508759   -1.507889
     61          1           0      -37.047041    5.765466   -0.474437
     62          1           0      -37.019480    4.270798   -1.401768
     63          1           0      -33.696846    1.966295    4.580426
     64          1           0      -31.043841    0.961090    5.128906
     65          1           0      -31.435768    2.930044    5.620936
     66          1           0      -32.662479    4.068365    4.986801
     67          1           0      -31.373189    3.632703    3.943198
     68          1           0      -33.498532    0.231286    6.186793
     69          1           0      -32.058308   -0.764309    6.353373
     70          1           0      -32.786837   -2.432447    5.426303
     71          1           0      -33.161286   -1.733136    3.964619
     72          1           0      -34.390868   -1.758495    5.278864
     73          1           0      -28.420923   -2.836806    4.536858
     74          1           0      -27.024017   -3.183876    3.400222
     75          1           0      -28.358422   -4.257495    3.693732
     76          1           0      -28.753085   -3.946147   -1.797507
     77          1           0      -25.488457   -4.222439   -4.868467
     78          1           0      -24.780986   -3.753008   -3.290342
     79          1           0      -25.583781   -2.505945   -4.248373
     80         12           0       31.365751    0.540315   -0.728104
     81          6           0       28.780100   -1.758846    0.063553
     82          6           0       29.013101    3.087175   -0.346439
     83          6           0       33.916882    2.572169   -0.281510
     84          6           0       33.617573   -2.346425   -0.728051
     85          7           0       29.140330    0.632338    0.062367
     86          6           0       28.294287   -0.427280    0.039239
     87          6           0       26.862241    0.071613    0.111403
     88          6           0       26.910055    1.437060   -0.574519
     89          6           0       28.446264    1.785290   -0.225522
     90          6           0       26.700761    1.501693   -2.088573
     91          6           0       26.360438    0.036376    1.620638
     92          6           0       25.000766   -0.529237    1.748329
     93          1           0       24.029861    0.160648    2.726272
     94          7           0       31.497847    2.601387   -0.307488
     95          6           0       30.396661    3.492469   -0.270658
     96          6           0       30.947056    4.810685   -0.079500
     97          6           0       32.364893    4.756642   -0.139893
     98          6           0       32.685885    3.287322   -0.223157
     99          6           0       30.031316    6.019017    0.088689
    100          6           0       33.290370    5.898785    0.010302
    101          8           0       32.823564    7.016514    0.191690
    102          6           0       34.782233    5.848589    0.059011
    103          7           0       33.537513    0.093645   -0.431788
    104          6           0       34.322834    1.187995   -0.481148
    105          6           0       35.804018    0.789103   -0.610847
    106          6           0       35.734615   -0.811672   -0.915608
    107          6           0       34.216159   -1.065923   -0.730750
    108          6           0       36.642537    1.677534   -1.636100
    109          6           0       36.658971   -1.705623   -0.031015
    110          6           0       36.015498   -2.420303    1.205929
    111          7           0       31.275745   -1.533317   -0.425123
    112          6           0       32.261380   -2.556043   -0.527174
    113          6           0       31.557515   -3.911699   -0.503857
    114          6           0       30.239952   -3.582194   -0.228746
    115          6           0       30.126976   -2.145855   -0.211298
    116          6           0       32.071901   -5.356067   -0.656936
    117          6           0       28.931547   -4.123325   -0.039400
    118          8           0       28.531686   -5.286823   -0.106304
    119          6           0       28.063230   -2.962734    0.292710
    120          6           0       27.782743   -3.159700    1.800067
    121          8           0       28.532092   -2.894340    2.737634
    122          8           0       26.509321   -3.783935    1.911434
    123          6           0       26.072379   -4.182492    3.187590
    124          1           0       28.311907    3.924373   -0.334441
    125          1           0       34.689796    3.343047   -0.300925
    126          1           0       34.183112   -3.269906   -0.863787
    127          1           0       26.171610   -0.510054   -0.498982
    128          1           0       26.248512    2.240535   -0.252689
    129          1           0       26.210823    0.621069   -2.502979
    130          1           0       27.597611    1.846427   -2.603859
    131          1           0       25.970099    2.305788   -2.183523
    132          1           0       26.314352    1.059269    1.994513
    133          1           0       27.074149   -0.399742    2.319659
    134          1           0       25.218852   -1.555625    2.041220
    135          1           0       24.530585   -0.511426    0.765228
    136          1           0       29.988526    6.646515   -0.801331
    137          1           0       30.333819    6.563596    0.981936
    138          1           0       29.007099    5.694114    0.272343
    139          1           0       35.144812    5.564131   -0.929080
    140          1           0       35.212040    5.175379    0.801746
    141          1           0       35.215096    6.846437    0.118641
    142          1           0       36.177381    0.912789    0.405494
    143          1           0       35.920729   -0.969110   -1.977463
    144          1           0       36.187356    2.659000   -1.768179
    145          1           0       36.926253    1.250961   -2.598934
    146          1           0       37.636805    1.674242   -1.186684
    147          1           0       37.539822   -1.170229    0.322392
    148          1           0       36.960164   -2.482712   -0.733105
    149          1           0       36.913677   -2.393128    1.823332
    150          1           0       35.687943   -3.453624    1.089591
    151          1           0       35.244493   -1.759414    1.602539
    152          1           0       31.579182   -5.860466   -1.487415
    153          1           0       31.599650   -5.752837    0.241254
    154          1           0       33.159450   -5.325347   -0.594330
    155          1           0       27.124239   -3.043284   -0.255047
    156          1           0       25.094693   -4.665744    3.203282
    157          1           0       26.010266   -3.286354    3.803697
    158          1           0       26.834496   -4.878477    3.539285
 ---------------------------------------------------------------------

 SCF Done:  E(RwB97XD) =  -4070.57350602     A.U. after   20 cycles

 Excitation energies and oscillator strengths:

 Excited State   1:      Singlet-A      1.6240 eV  763.47 nm  f=0.3515  <S**2>=0.000
     309 -> 315        0.20435
     312 -> 314        0.67801
     309 <- 315        0.12290
 This state for optimization and/or second-order correction.
 Total Energy, E(TD-HF/TD-DFT) =  -4070.51382643
 Copying the excited state density for this state as the 1-particle RhoCI density.

 Excited State   2:      Singlet-A      1.6906 eV  733.37 nm  f=0.3922  <S**2>=0.000
     310 -> 316        0.18170
     311 -> 313        0.68421
     310 <- 316        0.11473

 Excited State   3:      Singlet-A      2.1336 eV  581.12 nm  f=0.0543  <S**2>=0.000
     309 -> 314        0.61274
     312 -> 315       -0.34223

 Excited State   4:      Singlet-A      2.1645 eV  572.80 nm  f=0.1459  <S**2>=0.000
     310 -> 313        0.65220
     311 -> 316       -0.26036

 Excited State   5:      Singlet-A      3.3538 eV  369.68 nm  f=0.4754  <S**2>=0.000
     308 -> 314        0.33216
     309 -> 314        0.26932
     312 -> 315        0.53331
     309 <- 314       -0.10375

 The electronic state is 1-A.
 Alpha  occ. eigenvalues --  -46.97651 -46.94116 -19.29944 -19.29143 -19.26337
 Alpha  occ. eigenvalues --  -19.25574 -19.24400 -19.23987 -19.22913 -19.22565
 Alpha  occ. eigenvalues --  -14.46989 -14.46609 -14.46508 -14.46031 -14.44828
 Alpha  occ. eigenvalues --  -14.44749 -14.44340 -14.43198 -10.44495 -10.42718
 Alpha  occ. eigenvalues --  -10.41293 -10.38578 -10.38077 -10.38054 -10.35845
 Alpha  occ. eigenvalues --  -10.35454 -10.35452 -10.35412 -10.35352 -10.35253
 Alpha  occ. eigenvalues --  -10.35138 -10.35042 -10.34859 -10.34787 -10.34764
 Alpha  occ. eigenvalues --  -10.34648 -10.34576 -10.34451 -10.34110 -10.33796
 Alpha  occ. eigenvalues --  -10.33566 -10.33484 -10.33234 -10.32830 -10.32752
 Alpha  occ. eigenvalues --  -10.32615 -10.32568 -10.32449 -10.32435 -10.32270
 Alpha  occ. eigenvalues --  -10.32255 -10.32159 -10.32045 -10.32032 -10.32019
 Alpha  occ. eigenvalues --  -10.31936 -10.31774 -10.31645 -10.31640 -10.31606
 Alpha  occ. eigenvalues --  -10.31592 -10.31591 -10.31451 -10.31343 -10.31272
 Alpha  occ. eigenvalues --  -10.31169 -10.31083 -10.31064 -10.31035 -10.30982
 Alpha  occ. eigenvalues --  -10.30780 -10.30663 -10.30233 -10.30215 -10.30161
 Alpha  occ. eigenvalues --  -10.29853 -10.29637 -10.29620 -10.29599 -10.29586
 Alpha  occ. eigenvalues --  -10.29530 -10.29506 -10.29175 -10.29035 -10.28295
 Alpha  occ. eigenvalues --  -10.28171  -3.23355  -3.20282  -1.96871  -1.96517
 Alpha  occ. eigenvalues --   -1.96267  -1.93892  -1.93378  -1.93305  -1.17981
 Alpha  occ. eigenvalues --   -1.16630  -1.12767  -1.11843  -1.11775  -1.11539
 Alpha  occ. eigenvalues --   -1.10851  -1.08936  -1.07584  -1.06741  -1.06202
 Alpha  occ. eigenvalues --   -1.06176  -1.05437  -1.05235  -1.04860  -1.03289
 Alpha  occ. eigenvalues --   -0.96398  -0.94089  -0.91094  -0.91024  -0.90617
 Alpha  occ. eigenvalues --   -0.90447  -0.90215  -0.89676  -0.89272  -0.89199
 Alpha  occ. eigenvalues --   -0.89042  -0.88781  -0.88171  -0.87498  -0.86686
 Alpha  occ. eigenvalues --   -0.86212  -0.85564  -0.85516  -0.84700  -0.84604
 Alpha  occ. eigenvalues --   -0.84519  -0.83549  -0.82887  -0.82801  -0.82229
 Alpha  occ. eigenvalues --   -0.82038  -0.80589  -0.79978  -0.79186  -0.79147
 Alpha  occ. eigenvalues --   -0.78794  -0.78572  -0.77956  -0.77762  -0.77144
 Alpha  occ. eigenvalues --   -0.77000  -0.74805  -0.74737  -0.73820  -0.73157
 Alpha  occ. eigenvalues --   -0.71831  -0.71128  -0.70733  -0.70711  -0.69893
 Alpha  occ. eigenvalues --   -0.69244  -0.68812  -0.68666  -0.67299  -0.67024
 Alpha  occ. eigenvalues --   -0.66909  -0.66687  -0.66581  -0.66543  -0.66183
 Alpha  occ. eigenvalues --   -0.65962  -0.64210  -0.63248  -0.62692  -0.61915
 Alpha  occ. eigenvalues --   -0.61757  -0.61547  -0.61262  -0.61121  -0.60853
 Alpha  occ. eigenvalues --   -0.60261  -0.60010  -0.59953  -0.59572  -0.59004
 Alpha  occ. eigenvalues --   -0.58088  -0.57928  -0.57837  -0.57655  -0.57611
 Alpha  occ. eigenvalues --   -0.57357  -0.56844  -0.56680  -0.56501  -0.55885
 Alpha  occ. eigenvalues --   -0.55628  -0.55571  -0.55333  -0.55292  -0.54966
 Alpha  occ. eigenvalues --   -0.54949  -0.54585  -0.54561  -0.54240  -0.54084
 Alpha  occ. eigenvalues --   -0.54083  -0.53884  -0.53733  -0.53600  -0.53324
 Alpha  occ. eigenvalues --   -0.53239  -0.53133  -0.52718  -0.52696  -0.52472
 Alpha  occ. eigenvalues --   -0.52226  -0.52079  -0.51892  -0.51816  -0.51415
 Alpha  occ. eigenvalues --   -0.51390  -0.51158  -0.51108  -0.50985  -0.50897
 Alpha  occ. eigenvalues --   -0.50790  -0.50483  -0.50416  -0.50410  -0.50171
 Alpha  occ. eigenvalues --   -0.49750  -0.49694  -0.49391  -0.49310  -0.49106
 Alpha  occ. eigenvalues --   -0.48794  -0.48765  -0.48350  -0.48173  -0.48003
 Alpha  occ. eigenvalues --   -0.47937  -0.47892  -0.47819  -0.47789  -0.47702
 Alpha  occ. eigenvalues --   -0.47447  -0.47353  -0.47222  -0.47052  -0.46853
 Alpha  occ. eigenvalues --   -0.46580  -0.46479  -0.46359  -0.46260  -0.46015
 Alpha  occ. eigenvalues --   -0.45933  -0.45882  -0.45789  -0.45437  -0.45434
 Alpha  occ. eigenvalues --   -0.45268  -0.45203  -0.45155  -0.44980  -0.44931
 Alpha  occ. eigenvalues --   -0.44431  -0.44336  -0.44024  -0.43961  -0.43741
 Alpha  occ. eigenvalues --   -0.43482  -0.43303  -0.43298  -0.42956  -0.42951
 Alpha  occ. eigenvalues --   -0.42863  -0.42859  -0.42422  -0.42320  -0.42090
 Alpha  occ. eigenvalues --   -0.41944  -0.41877  -0.41103  -0.41055  -0.40490
 Alpha  occ. eigenvalues --   -0.40198  -0.40169  -0.39975  -0.39871  -0.39618
 Alpha  occ. eigenvalues --   -0.39449  -0.38640  -0.38588  -0.38306  -0.38126
 Alpha  occ. eigenvalues --   -0.37712  -0.37619  -0.37169  -0.36440  -0.36217
 Alpha  occ. eigenvalues --   -0.35889  -0.35604  -0.35438  -0.34203  -0.33523
 Alpha  occ. eigenvalues --   -0.33389  -0.32973  -0.32718  -0.32704  -0.32156
 Alpha  occ. eigenvalues --   -0.32133  -0.31694  -0.31621  -0.25954  -0.25823
 Alpha  occ. eigenvalues --   -0.23215  -0.22823
 Alpha virt. eigenvalues --   -0.07174  -0.06872  -0.00720   0.00662   0.01863
 Alpha virt. eigenvalues --    0.02002   0.02936   0.04325   0.04576   0.06605
 Alpha virt. eigenvalues --    0.06862   0.06978   0.07580   0.08041   0.08422

 Mulliken charges:
               1
     1  Mg   0.986001
     2  C   -0.033863
     3  C   -0.089489
     4  C   -0.081458
     5  C   -0.112971
     6  N   -0.312318
     7  C   -0.022245
     8  C   -0.084856
     9  C   -0.106122
    10  C    0.035747
    11  C    0.056924
    12  C    0.017373
    13  C   -0.109394
    14  H    0.037442
    15  N   -0.477309
    16  C    0.190134
    17  C   -0.158405
    18  C   -0.108897
    19  C    0.127307
    20  C    0.048979
    21  C    0.101724
    22  O   -0.227644
    23  C   -0.029604
    24  N   -0.379029
    25  C    0.081115
    26  C   -0.097573
    27  C   -0.032368
    28  C    0.052741
    29  C    0.021161
    30  C   -0.006346
    31  C   -0.048390
    32  N   -0.374946
    33  C    0.116002
    34  C   -0.174772
    35  C   -0.023277
    36  C    0.102298
    37  C    0.084904
    38  C    0.096553
    39  O   -0.204584
    40  C   -0.019876
    41  C    0.245731
    42  O   -0.251777
    43  O   -0.402753
    44  C    0.147388
    45  H    0.004654
    46  H    0.017874
    47  H   -0.007207
    48  H    0.021219
    49  H    0.004263
    50  H    0.035517
    51  H    0.070892
    52  H    0.037013
    53  H    0.035389
    54  H    0.041322
    55  H    0.045556
    56  H    0.053104
    57  H    0.040758
    58  H    0.065840
    59  H    0.031050
    60  H    0.059247
    61  H    0.056241
    62  H    0.081354
    63  H    0.037169
    64  H    0.030713
    65  H    0.038444
    66  H    0.045379
    67  H    0.041235
    68  H    0.033874
    69  H    0.028042
    70  H    0.018047
    71  H    0.047780
    72  H    0.040835
    73  H    0.015381
    74  H    0.066023
    75  H    0.046096
    76  H    0.068314
    77  H    0.063907
    78  H    0.057313
    79  H    0.048103
    80  Mg   0.936300
    81  C    0.010967
    82  C   -0.075356
    83  C   -0.029873
    84  C   -0.064512
    85  N   -0.298150
    86  C   -0.021703
    87  C   -0.051811
    88  C   -0.134220
    89  C    0.044042
    90  C    0.038279
    91  C    0.033666
    92  C   -0.117024
    93  H    0.034918
    94  N   -0.490345
    95  C    0.145931
    96  C   -0.165461
    97  C   -0.025090
    98  C    0.111633
    99  C    0.096117
   100  C   -0.007005
   101  O   -0.246450
   102  C    0.014099
   103  N   -0.325756
   104  C    0.062904
   105  C   -0.098269
   106  C   -0.020501
   107  C    0.007720
   108  C    0.005942
   109  C   -0.047153
   110  C   -0.047896
   111  N   -0.422624
   112  C    0.106656
   113  C   -0.210766
   114  C   -0.023458
   115  C    0.161944
   116  C    0.090948
   117  C    0.075754
   118  O   -0.216262
   119  C   -0.054995
   120  C    0.276451
   121  O   -0.229442
   122  O   -0.374831
   123  C    0.144829
   124  H    0.004547
   125  H   -0.047388
   126  H   -0.000904
   127  H    0.012680
   128  H    0.029587
   129  H    0.042147
   130  H    0.047015
   131  H    0.028406
   132  H    0.032669
   133  H    0.056484
   134  H    0.045309
   135  H    0.046274
   136  H    0.058353
   137  H    0.061402
   138  H    0.009491
   139  H    0.040851
   140  H    0.071625
   141  H    0.046897
   142  H    0.050771
   143  H    0.037819
   144  H    0.052416
   145  H    0.033866
   146  H    0.031526
   147  H    0.040216
   148  H    0.030987
   149  H    0.035579
   150  H    0.046392
   151  H    0.060449
   152  H    0.072926
   153  H    0.068000
   154  H    0.038957
   155  H    0.061024
   156  H    0.058053
   157  H    0.041804
   158  H    0.053625
 Sum of Mulliken charges =  -0.00000

 Dipole moment (field-independent basis, Debye):
    X=             -2.3485    Y=              1.7170    Z=             -6.4061  Tot=              7.0357
 Quadrupole moment (field-independent basis, Debye-Ang):
   XX=           -105.1195   YY=           -558.5744   ZZ=           -471.5799
   XY=           -117.9369   XZ=            -13.7087   YZ=            -12.9646

 Normal termination of Gaussian 16 at Mon Sep 20 20:21:32 2021.
