 Gaussian 16, Revision A.03,
 Gaussian 16:  ES64L-G16RevA.03 25-Dec-2016

 --------------------------------
 #p wB97XD/Def2SVP td=(nstates=5)
 --------------------------------

 --------------------------------
 TDDFT excited states in gaussian
 --------------------------------
 Symbolic Z-matrix:
 Charge =  0 Multiplicity = 1

                         Standard orientation:
 ---------------------------------------------------------------------
 Center     Atomic      Atomic             Coordinates (Angstroms)
 Number     Number       Type             X           Y           Z
 ---------------------------------------------------------------------
      1         12           0       -4.733766   -0.186548    1.001679
      2          6           0       -4.815111    3.190422    0.000501
      3          6           0       -2.162855    0.543060    3.096621
      4          6           0       -4.622577   -3.461608    1.839273
      5          6           0       -7.049311   -0.911337   -1.482565
      6          7           0       -3.567278    1.599906    1.416662
      7          6           0       -3.850128    2.896494    0.978461
      8          6           0       -2.985412    3.871465    1.719589
      9          6           0       -1.871902    2.961899    2.291039
     10          6           0       -2.587921    1.586814    2.269896
     11          6           0       -0.534491    2.869232    1.490704
     12          6           0       -3.708108    4.729106    2.825536
     13          6           0       -3.400166    6.191755    2.774197
     14          1           0       -3.087167    6.876455    4.117775
     15          7           0       -3.645087   -1.238199    2.337928
     16          6           0       -2.660584   -0.744066    3.209784
     17          6           0       -2.185400   -1.779568    4.037969
     18          6           0       -2.908412   -3.018148    3.698118
     19          6           0       -3.763870   -2.611974    2.619804
     20          6           0       -1.034995   -1.678772    4.996474
     21          6           0       -2.789156   -4.513538    4.225827
     22          8           0       -3.518477   -5.379937    3.804944
     23          6           0       -1.825533   -4.874278    5.347373
     24          7           0       -5.625117   -1.954548    0.198479
     25          6           0       -5.389902   -3.183064    0.727555
     26          6           0       -6.193539   -4.301337   -0.093417
     27          6           0       -7.207333   -3.440025   -0.966616
     28          6           0       -6.597822   -1.989484   -0.752074
     29          6           0       -5.340212   -5.256728   -0.972722
     30          6           0       -8.704551   -3.541299   -0.504307
     31          6           0       -9.587244   -3.910422   -1.621578
     32          7           0       -5.703163    0.880974   -0.482656
     33          6           0       -6.708421    0.468159   -1.355823
     34          6           0       -7.181973    1.589734   -2.120332
     35          6           0       -6.452503    2.659664   -1.643367
     36          6           0       -5.614926    2.221427   -0.666648
     37          6           0       -8.338669    1.471052   -3.146745
     38          6           0       -6.211676    4.082942   -1.794394
     39          8           0       -6.657937    4.829574   -2.637405
     40          6           0       -5.089104    4.491391   -0.716683
     41          6           0       -3.925940    5.053206   -1.427513
     42          8           0       -3.268398    4.444455   -2.311911
     43          8           0       -3.729954    6.329995   -0.989086
     44          6           0       -2.853273    7.150866   -1.865797
     45          1           0       -1.313433    0.843158    3.713714
     46          1           0       -4.639047   -4.535556    2.035448
     47          1           0       -7.721581   -1.166546   -2.303764
     48          1           0       -2.440119    4.560988    1.074004
     49          1           0       -1.560786    3.235917    3.299264
     50          1           0       -0.256225    3.795126    0.985630
     51          1           0       -0.649490    2.052986    0.777060
     52          1           0        0.332382    2.526095    2.054829
     53          1           0       -3.414964    4.272424    3.770653
     54          1           0       -4.789015    4.587914    2.799890
     55          1           0       -4.305869    6.577339    2.305820
     56          1           0       -2.494467    6.353795    2.189917
     57          1           0       -1.300503   -1.665968    6.053795
     58          1           0       -0.540507   -0.717941    4.859500
     59          1           0       -0.240989   -2.422289    4.932293
     60          1           0       -2.050504   -5.908780    5.603881
     61          1           0       -1.867795   -4.151004    6.162262
     62          1           0       -0.801956   -4.668980    5.032571
     63          1           0       -6.671562   -4.996007    0.597448
     64          1           0       -7.103164   -3.743694   -2.009331
     65          1           0       -4.271621   -5.045410   -1.024120
     66          1           0       -5.667038   -5.287272   -2.012421
     67          1           0       -5.471122   -6.257925   -0.561290
     68          1           0       -9.029937   -2.556470   -0.167072
     69          1           0       -8.891220   -4.283681    0.271387
     70          1           0       -9.799589   -4.977895   -1.556722
     71          1           0       -9.295114   -3.648411   -2.637876
     72          1           0      -10.513398   -3.339749   -1.552360
     73          1           0       -8.879266    0.542206   -2.963253
     74          1           0       -7.986076    1.627026   -4.167308
     75          1           0       -9.016155    2.279687   -2.875016
     76          1           0       -5.468645    5.216268    0.003904
     77          1           0       -2.850247    8.188406   -1.532138
     78          1           0       -3.364228    7.174225   -2.828580
     79          1           0       -1.884566    6.651307   -1.896312
     80         12           0        4.112648   -0.910498   -1.110823
     81          6           0        6.731974    1.219376   -0.290666
     82          6           0        2.106345    1.917639   -1.188705
     83          6           0        1.449674   -3.005153   -1.406170
     84          6           0        6.253158   -3.609349   -0.810299
     85          7           0        4.386601    1.308179   -0.721412
     86          6           0        5.565507    1.978222   -0.431868
     87          6           0        5.374474    3.525726   -0.181649
     88          6           0        3.798539    3.603452   -0.173745
     89          6           0        3.373788    2.179625   -0.690612
     90          6           0        3.029127    3.917249    1.112739
     91          6           0        6.094025    4.350242   -1.264724
     92          6           0        7.348918    5.075068   -0.854811
     93          1           0        7.586640    6.459797   -1.482968
     94          7           0        2.089712   -0.631693   -1.469472
     95          6           0        1.527595    0.605016   -1.534683
     96          6           0        0.090094    0.370749   -1.773646
     97          6           0       -0.153792   -1.011169   -1.741863
     98          6           0        1.102847   -1.625265   -1.553221
     99          6           0       -0.814508    1.486063   -2.110034
    100          6           0       -1.445655   -1.768155   -1.841873
    101          8           0       -1.510991   -3.027041   -1.909312
    102          6           0       -2.734358   -1.150343   -1.837735
    103          7           0        3.895257   -2.950478   -1.188757
    104          6           0        2.705587   -3.593134   -1.344400
    105          6           0        2.824035   -5.066436   -1.345600
    106          6           0        4.373996   -5.287008   -1.216001
    107          6           0        4.844029   -3.897114   -1.003678
    108          6           0        2.044172   -5.986436   -0.360742
    109          6           0        5.057764   -6.106663   -2.418941
    110          6           0        5.519040   -5.439093   -3.748494
    111          7           0        6.062299   -1.218513   -0.616586
    112          6           0        6.809370   -2.360255   -0.571316
    113          6           0        8.162098   -2.044983   -0.416596
    114          6           0        8.139186   -0.611744   -0.211463
    115          6           0        6.841084   -0.170301   -0.373478
    116          6           0        9.360070   -2.991569   -0.464253
    117          6           0        9.021822    0.508428   -0.054436
    118          8           0       10.227844    0.648820   -0.042408
    119          6           0        8.077900    1.747450    0.133880
    120          6           0        8.100492    2.185956    1.543441
    121          8           0        7.153220    2.120763    2.357492
    122          8           0        9.288927    2.676347    1.958413
    123          6           0        9.382994    3.373025    3.286603
    124          1           0        1.468882    2.802631   -1.148563
    125          1           0        0.634061   -3.729516   -1.460053
    126          1           0        7.017535   -4.387629   -0.869131
    127          1           0        5.564076    3.800253    0.856563
    128          1           0        3.541364    4.338784   -0.936079
    129          1           0        2.488358    3.033573    1.452371
    130          1           0        2.221751    4.588566    0.823935
    131          1           0        3.625829    4.320881    1.931471
    132          1           0        5.381676    5.126368   -1.546968
    133          1           0        6.238163    3.711930   -2.136435
    134          1           0        8.193925    4.442567   -1.128122
    135          1           0        7.480034    5.219722    0.217654
    136          1           0       -1.170584    1.260729   -3.114460
    137          1           0       -0.439101    2.510048   -2.092911
    138          1           0       -1.669614    1.477767   -1.434194
    139          1           0       -2.690294   -0.404657   -1.044374
    140          1           0       -3.523837   -1.900781   -1.836498
    141          1           0       -2.876779   -0.532840   -2.724623
    142          1           0        2.478945   -5.264520   -2.359960
    143          1           0        4.585276   -5.814495   -0.286574
    144          1           0        1.317504   -6.614785   -0.875823
    145          1           0        1.468096   -5.398842    0.354883
    146          1           0        2.692382   -6.606602    0.258280
    147          1           0        4.262657   -6.797838   -2.699360
    148          1           0        5.848842   -6.626064   -1.877880
    149          1           0        5.495642   -4.349685   -3.757294
    150          1           0        5.096739   -5.853481   -4.664383
    151          1           0        6.556101   -5.758374   -3.843062
    152          1           0        9.958255   -2.937743    0.445953
    153          1           0       10.012306   -2.652660   -1.268968
    154          1           0        9.112061   -4.025248   -0.706727
    155          1           0        8.538855    2.586754   -0.387163
    156          1           0       10.351550    3.843546    3.116880
    157          1           0        9.369859    2.715712    4.155389
    158          1           0        8.564595    4.086788    3.385739
 ---------------------------------------------------------------------

 SCF Done:  E(RwB97XD) =  -4070.65343506     A.U. after   19 cycles

 Excitation energies and oscillator strengths:

 Excited State   1:      Singlet-A      1.6392 eV  756.36 nm  f=0.3985  <S**2>=0.000
     310 -> 316       -0.18102
     312 -> 314        0.68234
     310 <- 316       -0.11672
 This state for optimization and/or second-order correction.
 Total Energy, E(TD-HF/TD-DFT) =  -4070.59319498
 Copying the excited state density for this state as the 1-particle RhoCI density.

 Excited State   2:      Singlet-A      1.6888 eV  734.18 nm  f=0.3860  <S**2>=0.000
     309 -> 315       -0.18101
     311 -> 313        0.68215
     309 <- 315       -0.11461

 Excited State   3:      Singlet-A      2.1274 eV  582.80 nm  f=0.0406  <S**2>=0.000
     309 -> 313        0.60090
     310 -> 314       -0.25989
     311 -> 315        0.22387

 Excited State   4:      Singlet-A      2.1613 eV  573.66 nm  f=0.2009  <S**2>=0.000
     309 -> 313        0.25523
     310 -> 314        0.59279
     311 -> 315        0.10729
     312 -> 316        0.24820

 Excited State   5:      Singlet-A      2.5705 eV  482.34 nm  f=0.0000  <S**2>=0.000
     312 -> 313        0.70422

 The electronic state is 1-A.
 Alpha  occ. eigenvalues --  -46.93797 -46.93740 -19.31443 -19.29313 -19.25168
 Alpha  occ. eigenvalues --  -19.25002 -19.24334 -19.23238 -19.23181 -19.22804
 Alpha  occ. eigenvalues --  -14.46949 -14.46508 -14.46401 -14.46218 -14.44117
 Alpha  occ. eigenvalues --  -14.44045 -14.43382 -14.42861 -10.43900 -10.42394
 Alpha  occ. eigenvalues --  -10.40425 -10.39325 -10.38201 -10.38106 -10.36450
 Alpha  occ. eigenvalues --  -10.35833 -10.35325 -10.34962 -10.34913 -10.34904
 Alpha  occ. eigenvalues --  -10.34812 -10.34655 -10.34575 -10.34526 -10.34484
 Alpha  occ. eigenvalues --  -10.34237 -10.34098 -10.34012 -10.33327 -10.33235
 Alpha  occ. eigenvalues --  -10.32909 -10.32895 -10.32519 -10.32450 -10.32381
 Alpha  occ. eigenvalues --  -10.32291 -10.32261 -10.32200 -10.32169 -10.32143
 Alpha  occ. eigenvalues --  -10.32142 -10.32061 -10.31990 -10.31698 -10.31672
 Alpha  occ. eigenvalues --  -10.31663 -10.31631 -10.31603 -10.31352 -10.31280
 Alpha  occ. eigenvalues --  -10.31248 -10.31215 -10.31195 -10.31075 -10.31020
 Alpha  occ. eigenvalues --  -10.30852 -10.30692 -10.30669 -10.30657 -10.30529
 Alpha  occ. eigenvalues --  -10.30524 -10.30380 -10.30178 -10.30145 -10.30105
 Alpha  occ. eigenvalues --  -10.29978 -10.29856 -10.29764 -10.29710 -10.29619
 Alpha  occ. eigenvalues --  -10.29456 -10.29047 -10.28750 -10.28548 -10.28522
 Alpha  occ. eigenvalues --  -10.28451  -3.19926  -3.19867  -1.93532  -1.93470
 Alpha  occ. eigenvalues --   -1.93059  -1.92985  -1.92904  -1.92867  -1.18513
 Alpha  occ. eigenvalues --   -1.17333  -1.14017  -1.12826  -1.11679  -1.09897
 Alpha  occ. eigenvalues --   -1.09159  -1.07286  -1.07245  -1.06795  -1.06022
 Alpha  occ. eigenvalues --   -1.05551  -1.05193  -1.04712  -1.04182  -1.03675
 Alpha  occ. eigenvalues --   -0.94994  -0.94838  -0.91379  -0.90935  -0.90666
 Alpha  occ. eigenvalues --   -0.90206  -0.90100  -0.90011  -0.89221  -0.89128
 Alpha  occ. eigenvalues --   -0.88863  -0.88489  -0.87951  -0.87925  -0.86507
 Alpha  occ. eigenvalues --   -0.86245  -0.85796  -0.85501  -0.84999  -0.84454
 Alpha  occ. eigenvalues --   -0.84192  -0.84135  -0.83351  -0.82863  -0.82830
 Alpha  occ. eigenvalues --   -0.82397  -0.80351  -0.80229  -0.79550  -0.79311
 Alpha  occ. eigenvalues --   -0.78944  -0.78786  -0.78122  -0.77817  -0.77096
 Alpha  occ. eigenvalues --   -0.76879  -0.75060  -0.74957  -0.73231  -0.73083
 Alpha  occ. eigenvalues --   -0.71941  -0.70856  -0.70661  -0.70096  -0.69911
 Alpha  occ. eigenvalues --   -0.69720  -0.68895  -0.68689  -0.67746  -0.67152
 Alpha  occ. eigenvalues --   -0.67098  -0.66981  -0.66781  -0.66553  -0.66289
 Alpha  occ. eigenvalues --   -0.66281  -0.64300  -0.63470  -0.62561  -0.62261
 Alpha  occ. eigenvalues --   -0.61647  -0.61553  -0.61466  -0.61059  -0.60505
 Alpha  occ. eigenvalues --   -0.60453  -0.59936  -0.59784  -0.59685  -0.59143
 Alpha  occ. eigenvalues --   -0.58277  -0.57952  -0.57945  -0.57813  -0.57488
 Alpha  occ. eigenvalues --   -0.57283  -0.56714  -0.56300  -0.55876  -0.55771
 Alpha  occ. eigenvalues --   -0.55708  -0.55670  -0.55147  -0.54892  -0.54855
 Alpha  occ. eigenvalues --   -0.54461  -0.54347  -0.54196  -0.53982  -0.53926
 Alpha  occ. eigenvalues --   -0.53887  -0.53667  -0.53610  -0.53231  -0.53069
 Alpha  occ. eigenvalues --   -0.52983  -0.52755  -0.52487  -0.52373  -0.52231
 Alpha  occ. eigenvalues --   -0.52012  -0.51912  -0.51690  -0.51496  -0.51402
 Alpha  occ. eigenvalues --   -0.51282  -0.51217  -0.51062  -0.50923  -0.50745
 Alpha  occ. eigenvalues --   -0.50636  -0.50339  -0.50139  -0.50004  -0.49901
 Alpha  occ. eigenvalues --   -0.49697  -0.49345  -0.49262  -0.48924  -0.48846
 Alpha  occ. eigenvalues --   -0.48719  -0.48691  -0.48562  -0.48314  -0.48269
 Alpha  occ. eigenvalues --   -0.48091  -0.47982  -0.47897  -0.47810  -0.47492
 Alpha  occ. eigenvalues --   -0.47384  -0.47227  -0.47199  -0.47072  -0.46985
 Alpha  occ. eigenvalues --   -0.46918  -0.46765  -0.46605  -0.46531  -0.46373
 Alpha  occ. eigenvalues --   -0.46164  -0.45815  -0.45712  -0.45606  -0.45531
 Alpha  occ. eigenvalues --   -0.45306  -0.45108  -0.45034  -0.44982  -0.44768
 Alpha  occ. eigenvalues --   -0.44687  -0.44611  -0.44408  -0.44319  -0.44229
 Alpha  occ. eigenvalues --   -0.43908  -0.43513  -0.43379  -0.43348  -0.43022
 Alpha  occ. eigenvalues --   -0.42976  -0.42639  -0.42310  -0.42296  -0.42142
 Alpha  occ. eigenvalues --   -0.41714  -0.41533  -0.41196  -0.40889  -0.40847
 Alpha  occ. eigenvalues --   -0.40410  -0.40169  -0.40055  -0.39872  -0.39787
 Alpha  occ. eigenvalues --   -0.39287  -0.38715  -0.38633  -0.38464  -0.38356
 Alpha  occ. eigenvalues --   -0.38079  -0.37656  -0.36694  -0.36376  -0.36222
 Alpha  occ. eigenvalues --   -0.35628  -0.35341  -0.34797  -0.33825  -0.33677
 Alpha  occ. eigenvalues --   -0.33116  -0.33094  -0.32455  -0.32206  -0.31957
 Alpha  occ. eigenvalues --   -0.31918  -0.31843  -0.31378  -0.26060  -0.25478
 Alpha  occ. eigenvalues --   -0.23548  -0.22801
 Alpha virt. eigenvalues --   -0.07546  -0.06905   0.00425   0.00683   0.02595
 Alpha virt. eigenvalues --    0.02877   0.04569   0.04653   0.06028   0.06411
 Alpha virt. eigenvalues --    0.06713   0.07464   0.07814   0.08070   0.08359

 Mulliken charges:
               1
     1  Mg   0.943798
     2  C   -0.028760
     3  C   -0.095954
     4  C   -0.054279
     5  C   -0.089076
     6  N   -0.326299
     7  C    0.004457
     8  C   -0.080304
     9  C   -0.124900
    10  C    0.028899
    11  C    0.016279
    12  C    0.045530
    13  C   -0.121346
    14  H    0.032483
    15  N   -0.518963
    16  C    0.242662
    17  C   -0.147627
    18  C   -0.079423
    19  C    0.155617
    20  C    0.041525
    21  C    0.077933
    22  O   -0.212622
    23  C   -0.008152
    24  N   -0.359055
    25  C    0.075534
    26  C   -0.110686
    27  C   -0.077428
    28  C    0.057640
    29  C    0.000247
    30  C    0.027353
    31  C   -0.073668
    32  N   -0.439649
    33  C    0.127165
    34  C   -0.216601
    35  C    0.007563
    36  C    0.112643
    37  C    0.094908
    38  C    0.108242
    39  O   -0.190839
    40  C   -0.042598
    41  C    0.278056
    42  O   -0.287525
    43  O   -0.370340
    44  C    0.141772
    45  H   -0.009315
    46  H    0.023114
    47  H   -0.003764
    48  H    0.022253
    49  H    0.026015
    50  H    0.039380
    51  H    0.033568
    52  H    0.041567
    53  H    0.031226
    54  H    0.031060
    55  H    0.065351
    56  H    0.052632
    57  H    0.051482
    58  H    0.024904
    59  H    0.047967
    60  H    0.071081
    61  H    0.046781
    62  H    0.049691
    63  H    0.037216
    64  H    0.037676
    65  H    0.061745
    66  H    0.029154
    67  H    0.034425
    68  H    0.035203
    69  H    0.037713
    70  H    0.039369
    71  H    0.027979
    72  H    0.026199
    73  H    0.031683
    74  H    0.065320
    75  H    0.049442
    76  H    0.058303
    77  H    0.062424
    78  H    0.065575
    79  H    0.064042
    80  Mg   0.981527
    81  C   -0.025752
    82  C   -0.062098
    83  C   -0.073896
    84  C   -0.100063
    85  N   -0.335844
    86  C   -0.020620
    87  C   -0.044175
    88  C   -0.133414
    89  C    0.023076
    90  C    0.037931
    91  C    0.055739
    92  C   -0.144164
    93  H    0.038214
    94  N   -0.482137
    95  C    0.185824
    96  C   -0.195834
    97  C   -0.020364
    98  C    0.132904
    99  C    0.057597
   100  C    0.053802
   101  O   -0.280851
   102  C    0.002439
   103  N   -0.375546
   104  C    0.076972
   105  C   -0.094313
   106  C   -0.054341
   107  C    0.061956
   108  C    0.028025
   109  C   -0.032055
   110  C   -0.043506
   111  N   -0.452538
   112  C    0.129417
   113  C   -0.170601
   114  C   -0.056881
   115  C    0.214666
   116  C    0.092302
   117  C    0.091215
   118  O   -0.191167
   119  C   -0.124068
   120  C    0.263227
   121  O   -0.292520
   122  O   -0.356633
   123  C    0.146875
   124  H   -0.012367
   125  H    0.022197
   126  H   -0.014337
   127  H    0.036532
   128  H    0.027968
   129  H    0.044293
   130  H    0.032255
   131  H    0.050942
   132  H    0.035237
   133  H    0.047957
   134  H    0.065623
   135  H    0.051989
   136  H    0.063347
   137  H    0.047328
   138  H    0.047792
   139  H    0.047021
   140  H    0.081764
   141  H    0.060659
   142  H    0.047652
   143  H    0.034968
   144  H    0.045306
   145  H    0.038388
   146  H    0.035259
   147  H    0.034903
   148  H    0.039706
   149  H    0.056724
   150  H    0.040352
   151  H    0.028735
   152  H    0.059606
   153  H    0.053383
   154  H    0.024021
   155  H    0.056222
   156  H    0.066267
   157  H    0.066359
   158  H    0.052950
 Sum of Mulliken charges =  -0.00000

 Dipole moment (field-independent basis, Debye):
    X=             -0.9141    Y=              0.3265    Z=              3.0300  Tot=              3.1817
 Quadrupole moment (field-independent basis, Debye-Ang):
   XX=           -553.3890   YY=           -473.3933   ZZ=           -497.9254
   XY=              7.2847   XZ=             -2.3066   YZ=             19.1058

 Normal termination of Gaussian 16 at Sat Sep 18 16:55:51 2021.
