 Gaussian 16, Revision A.03,
 Gaussian 16:  ES64L-G16RevA.03 25-Dec-2016

 --------------------------------
 #p wB97XD/Def2SVP td=(nstates=5)
 --------------------------------

 --------------------------------
 TDDFT excited states in gaussian
 --------------------------------
 Symbolic Z-matrix:
 Charge =  0 Multiplicity = 1

                         Standard orientation:
 ---------------------------------------------------------------------
 Center     Atomic      Atomic             Coordinates (Angstroms)
 Number     Number       Type             X           Y           Z
 ---------------------------------------------------------------------
      1         12           0       14.124410   -0.513878    0.288439
      2          6           0       11.138332   -2.136585   -0.773302
      3          6           0       14.938977    0.074905   -2.986093
      4          6           0       16.402400    1.923820    1.344587
      5          6           0       12.935560   -0.636024    3.593009
      6          7           0       12.901846   -0.816341   -1.677707
      7          6           0       11.887965   -1.672991   -1.882502
      8          6           0       11.869890   -2.090511   -3.341583
      9          6           0       13.059887   -1.324394   -4.096504
     10          6           0       13.765522   -0.756906   -2.762860
     11          6           0       13.913334   -2.361280   -4.860881
     12          6           0       10.515662   -1.803971   -3.970110
     13          6           0        9.805517   -0.500054   -3.535039
     14          1           0        9.767218    0.656463   -4.571032
     15          7           0       15.576987    0.782515   -0.693008
     16          6           0       15.696857    0.842271   -2.064412
     17          6           0       16.847316    1.651690   -2.317906
     18          6           0       17.273680    2.306497   -1.100089
     19          6           0       16.453598    1.659558   -0.044763
     20          6           0       17.333272    1.961397   -3.714915
     21          6           0       18.228756    3.492399   -0.955654
     22          8           0       18.701294    4.017149   -1.945530
     23          6           0       18.603865    4.054584    0.307131
     24          7           0       14.542645    0.581603    2.170449
     25          6           0       15.587215    1.377366    2.346055
     26          6           0       15.704138    1.915225    3.762939
     27          6           0       14.347345    1.354667    4.371622
     28          6           0       13.930878    0.330663    3.378313
     29          6           0       17.009928    1.404393    4.546665
     30          6           0       13.315115    2.546942    4.628900
     31          6           0       12.940821    2.943257    6.029026
     32          7           0       12.596580   -1.401494    1.246189
     33          6           0       12.304465   -1.472720    2.623538
     34          6           0       11.160103   -2.370692    2.866680
     35          6           0       10.734993   -2.637448    1.565342
     36          6           0       11.528518   -1.950827    0.581137
     37          6           0       10.629031   -2.970990    4.214110
     38          6           0        9.695620   -3.360871    0.825924
     39          8           0        8.754395   -4.090724    1.178509
     40          6           0        9.909953   -3.092715   -0.700301
     41          6           0        8.634720   -2.388582   -1.012402
     42          8           0        8.251903   -1.375741   -0.485147
     43          8           0        7.914180   -3.108210   -1.867782
     44          6           0        6.619575   -2.550607   -2.394097
     45          1           0       15.355721    0.007089   -3.993011
     46          1           0       17.105659    2.609183    1.821844
     47          1           0       12.596193   -0.518834    4.624810
     48          1           0       12.014892   -3.161419   -3.199151
     49          1           0       12.697560   -0.536883   -4.757832
     50          1           0       13.890767   -2.103900   -5.919628
     51          1           0       13.548551   -3.386501   -4.792892
     52          1           0       14.929646   -2.242076   -4.486340
     53          1           0        9.831756   -2.623819   -3.750344
     54          1           0       10.610046   -1.702195   -5.051628
     55          1           0       10.247860    0.070219   -2.718320
     56          1           0        8.794028   -0.816303   -3.279871
     57          1           0       16.682926    1.529227   -4.475858
     58          1           0       18.378140    1.654910   -3.774874
     59          1           0       17.398232    3.045514   -3.800614
     60          1           0       17.793330    4.511249    0.875510
     61          1           0       19.351059    4.831606    0.146900
     62          1           0       18.971694    3.186163    0.854690
     63          1           0       15.621157    2.999388    3.834807
     64          1           0       14.673038    1.059925    5.369357
     65          1           0       17.624088    0.802824    3.875935
     66          1           0       16.666752    0.755059    5.352306
     67          1           0       17.612618    2.176562    5.027290
     68          1           0       12.323578    2.298976    4.249951
     69          1           0       13.646171    3.462264    4.140219
     70          1           0       11.972405    2.561264    6.352160
     71          1           0       12.898275    4.025517    5.902180
     72          1           0       13.739662    2.841369    6.763769
     73          1           0       10.088954   -2.181758    4.736398
     74          1           0       11.492648   -3.364640    4.750369
     75          1           0        9.893656   -3.740485    3.979858
     76          1           0       10.052701   -4.072022   -1.158593
     77          1           0        5.776375   -2.739970   -1.729436
     78          1           0        6.374958   -2.975616   -3.368411
     79          1           0        6.806954   -1.483265   -2.511309
     80         12           0      -13.192897    0.929130   -0.565633
     81          6           0      -13.986264   -2.419098    0.234252
     82          6           0      -10.008729    0.128643   -0.873427
     83          6           0      -12.477205    4.266762   -0.421306
     84          6           0      -16.507164    1.790487    0.830395
     85          7           0      -12.147015   -0.958422   -0.276386
     86          6           0      -12.678378   -2.195797   -0.199953
     87          6           0      -11.578619   -3.236300   -0.488841
     88          6           0      -10.361888   -2.448170   -0.854570
     89          6           0      -10.823103   -0.976894   -0.625911
     90          6           0       -9.053820   -2.955732   -0.120664
     91          6           0      -11.894173   -4.397996   -1.489465
     92          6           0      -10.799193   -4.998322   -2.471624
     93          1           0      -10.702042   -6.524257   -2.614817
     94          7           0      -11.491439    2.025645   -0.887732
     95          6           0      -10.232352    1.481149   -1.002996
     96          6           0       -9.316140    2.554580   -1.264523
     97          6           0       -9.986189    3.829746   -1.104933
     98          6           0      -11.357103    3.408971   -0.740706
     99          6           0       -7.895211    2.218498   -1.473699
    100          6           0       -9.475378    5.275723   -1.320939
    101          8           0      -10.183465    6.199965   -1.090962
    102          6           0       -8.195026    5.523570   -2.049929
    103          7           0      -14.349939    2.753580    0.175541
    104          6           0      -13.798397    3.969509   -0.036903
    105          6           0      -14.769607    5.130298    0.350141
    106          6           0      -16.077453    4.363702    0.715345
    107          6           0      -15.658893    2.877428    0.594509
    108          6           0      -14.302834    6.025509    1.467081
    109          6           0      -17.365685    4.652357   -0.132081
    110          6           0      -17.499350    4.040466   -1.485522
    111          7           0      -14.955329    0.003481    0.342143
    112          6           0      -16.163356    0.472860    0.772068
    113          6           0      -17.017640   -0.641229    1.103828
    114          6           0      -16.240277   -1.815565    0.923989
    115          6           0      -14.974941   -1.358788    0.502683
    116          6           0      -18.375919   -0.599764    1.710071
    117          6           0      -16.207589   -3.245599    1.039479
    118          8           0      -17.045508   -4.084654    1.349556
    119          6           0      -14.762481   -3.709912    0.551177
    120          6           0      -14.088551   -4.668296    1.518562
    121          8           0      -13.751145   -4.368672    2.634770
    122          8           0      -13.897340   -5.889253    0.891527
    123          6           0      -13.283377   -6.894676    1.759588
    124          1           0       -8.982495   -0.068633   -1.191476
    125          1           0      -12.181995    5.317519   -0.447324
    126          1           0      -17.524447    2.034698    1.143063
    127          1           0      -11.537361   -3.694942    0.499121
    128          1           0      -10.152315   -2.641656   -1.906948
    129          1           0       -9.273869   -3.881221    0.411203
    130          1           0       -8.660616   -2.123442    0.463038
    131          1           0       -8.302668   -3.288888   -0.837061
    132          1           0      -12.703627   -4.044181   -2.128450
    133          1           0      -12.318573   -5.265533   -0.983450
    134          1           0       -9.856218   -4.599573   -2.097061
    135          1           0      -10.948576   -4.578571   -3.466480
    136          1           0       -7.333151    3.027509   -1.007668
    137          1           0       -7.712466    2.263452   -2.546678
    138          1           0       -7.467811    1.276027   -1.130983
    139          1           0       -7.471536    5.561861   -1.236609
    140          1           0       -8.308233    6.408922   -2.676323
    141          1           0       -7.850100    4.698160   -2.673075
    142          1           0      -15.050528    5.730250   -0.515679
    143          1           0      -16.440844    4.377039    1.742422
    144          1           0      -13.255133    5.845409    1.711368
    145          1           0      -14.850245    5.849154    2.393386
    146          1           0      -14.440232    7.042768    1.101306
    147          1           0      -17.481528    5.727858   -0.266596
    148          1           0      -18.228519    4.441542    0.500126
    149          1           0      -16.512139    3.793874   -1.876777
    150          1           0      -17.924630    4.601184   -2.318186
    151          1           0      -18.167207    3.190385   -1.342557
    152          1           0      -18.431000   -0.100589    2.677056
    153          1           0      -18.567653   -1.617234    2.051711
    154          1           0      -19.120763   -0.219091    1.010670
    155          1           0      -14.920277   -4.193890   -0.412862
    156          1           0      -12.376557   -6.866503    1.156242
    157          1           0      -13.898630   -7.778165    1.590907
    158          1           0      -13.191460   -6.569681    2.796166
 ---------------------------------------------------------------------

 SCF Done:  E(RwB97XD) =  -4070.55691533     A.U. after   20 cycles

 Excitation energies and oscillator strengths:

 Excited State   1:      Singlet-A      1.6284 eV  761.38 nm  f=0.4299  <S**2>=0.000
     309 -> 315       -0.20565
     311 -> 313        0.67465
     309 <- 315       -0.12450
 This state for optimization and/or second-order correction.
 Total Energy, E(TD-HF/TD-DFT) =  -4070.49707208
 Copying the excited state density for this state as the 1-particle RhoCI density.

 Excited State   2:      Singlet-A      1.6419 eV  755.11 nm  f=0.3109  <S**2>=0.000
     310 -> 316       -0.19194
     312 -> 314        0.67774
     310 <- 316       -0.11934

 Excited State   3:      Singlet-A      2.1320 eV  581.55 nm  f=0.1044  <S**2>=0.000
     310 -> 314        0.63991
     312 -> 316        0.28516

 Excited State   4:      Singlet-A      2.1416 eV  578.93 nm  f=0.0715  <S**2>=0.000
     309 -> 313        0.61662
     311 -> 315        0.33144

 Excited State   5:      Singlet-A      3.1849 eV  389.29 nm  f=0.0152  <S**2>=0.000
     308 -> 313        0.65699
     308 -> 317        0.10733
     311 -> 315        0.20158

 The electronic state is 1-A.
 Alpha  occ. eigenvalues --  -46.96622 -46.96290 -19.30406 -19.29940 -19.24911
 Alpha  occ. eigenvalues --  -19.24557 -19.23991 -19.23896 -19.23640 -19.23154
 Alpha  occ. eigenvalues --  -14.47089 -14.46756 -14.46630 -14.46337 -14.44825
 Alpha  occ. eigenvalues --  -14.44229 -14.44067 -14.43348 -10.42922 -10.42671
 Alpha  occ. eigenvalues --  -10.39646 -10.39085 -10.38774 -10.38330 -10.36355
 Alpha  occ. eigenvalues --  -10.36192 -10.35637 -10.35475 -10.35101 -10.35085
 Alpha  occ. eigenvalues --  -10.35083 -10.34951 -10.34928 -10.34798 -10.34789
 Alpha  occ. eigenvalues --  -10.34706 -10.34310 -10.34042 -10.33989 -10.33570
 Alpha  occ. eigenvalues --  -10.33442 -10.33080 -10.33020 -10.32988 -10.32890
 Alpha  occ. eigenvalues --  -10.32789 -10.32527 -10.32515 -10.32485 -10.32296
 Alpha  occ. eigenvalues --  -10.32281 -10.32278 -10.32270 -10.32037 -10.32027
 Alpha  occ. eigenvalues --  -10.31983 -10.31838 -10.31789 -10.31653 -10.31629
 Alpha  occ. eigenvalues --  -10.31540 -10.31365 -10.31280 -10.31217 -10.31063
 Alpha  occ. eigenvalues --  -10.30935 -10.30919 -10.30739 -10.30719 -10.30711
 Alpha  occ. eigenvalues --  -10.30640 -10.30406 -10.30402 -10.30386 -10.30368
 Alpha  occ. eigenvalues --  -10.30217 -10.30156 -10.30016 -10.29899 -10.29564
 Alpha  occ. eigenvalues --  -10.29376 -10.29228 -10.29056 -10.28909 -10.28872
 Alpha  occ. eigenvalues --  -10.28741  -3.22416  -3.22085  -1.95960  -1.95637
 Alpha  occ. eigenvalues --   -1.95563  -1.95349  -1.95208  -1.95034  -1.19343
 Alpha  occ. eigenvalues --   -1.18413  -1.15084  -1.12493  -1.11402  -1.11126
 Alpha  occ. eigenvalues --   -1.10700  -1.10005  -1.06667  -1.06174  -1.05751
 Alpha  occ. eigenvalues --   -1.05094  -1.04504  -1.04474  -1.03832  -1.03735
 Alpha  occ. eigenvalues --   -0.94002  -0.93532  -0.91116  -0.90902  -0.90762
 Alpha  occ. eigenvalues --   -0.90700  -0.90233  -0.90149  -0.89263  -0.89098
 Alpha  occ. eigenvalues --   -0.89072  -0.88144  -0.87993  -0.87405  -0.86676
 Alpha  occ. eigenvalues --   -0.85987  -0.85840  -0.85552  -0.84856  -0.84611
 Alpha  occ. eigenvalues --   -0.84407  -0.83861  -0.83143  -0.82740  -0.82323
 Alpha  occ. eigenvalues --   -0.82288  -0.80221  -0.79917  -0.79373  -0.79017
 Alpha  occ. eigenvalues --   -0.78972  -0.78412  -0.78294  -0.77762  -0.76987
 Alpha  occ. eigenvalues --   -0.76558  -0.74923  -0.74278  -0.73793  -0.73388
 Alpha  occ. eigenvalues --   -0.71686  -0.71152  -0.70933  -0.70513  -0.70178
 Alpha  occ. eigenvalues --   -0.70168  -0.68891  -0.68764  -0.67559  -0.67237
 Alpha  occ. eigenvalues --   -0.66887  -0.66857  -0.66191  -0.66109  -0.66045
 Alpha  occ. eigenvalues --   -0.65962  -0.64516  -0.63645  -0.62320  -0.62001
 Alpha  occ. eigenvalues --   -0.61465  -0.61331  -0.61080  -0.60760  -0.60730
 Alpha  occ. eigenvalues --   -0.60275  -0.59936  -0.59891  -0.59345  -0.59330
 Alpha  occ. eigenvalues --   -0.58310  -0.58005  -0.57895  -0.57804  -0.57289
 Alpha  occ. eigenvalues --   -0.57055  -0.56971  -0.56951  -0.56558  -0.56485
 Alpha  occ. eigenvalues --   -0.55958  -0.55887  -0.55628  -0.55455  -0.55250
 Alpha  occ. eigenvalues --   -0.55087  -0.54669  -0.54653  -0.54534  -0.54254
 Alpha  occ. eigenvalues --   -0.54044  -0.53765  -0.53633  -0.53536  -0.53098
 Alpha  occ. eigenvalues --   -0.52832  -0.52719  -0.52690  -0.52476  -0.52190
 Alpha  occ. eigenvalues --   -0.52135  -0.51909  -0.51816  -0.51701  -0.51474
 Alpha  occ. eigenvalues --   -0.51385  -0.51246  -0.51068  -0.50996  -0.50893
 Alpha  occ. eigenvalues --   -0.50624  -0.50552  -0.50479  -0.50266  -0.50251
 Alpha  occ. eigenvalues --   -0.49779  -0.49602  -0.49298  -0.49134  -0.49031
 Alpha  occ. eigenvalues --   -0.48984  -0.48903  -0.48685  -0.48609  -0.48273
 Alpha  occ. eigenvalues --   -0.47924  -0.47823  -0.47712  -0.47623  -0.47420
 Alpha  occ. eigenvalues --   -0.47328  -0.47314  -0.47163  -0.47117  -0.46882
 Alpha  occ. eigenvalues --   -0.46515  -0.46467  -0.46337  -0.46207  -0.45990
 Alpha  occ. eigenvalues --   -0.45964  -0.45682  -0.45602  -0.45567  -0.45530
 Alpha  occ. eigenvalues --   -0.45211  -0.45180  -0.44941  -0.44935  -0.44863
 Alpha  occ. eigenvalues --   -0.44478  -0.44413  -0.44291  -0.44046  -0.43925
 Alpha  occ. eigenvalues --   -0.43726  -0.43518  -0.43428  -0.43376  -0.43346
 Alpha  occ. eigenvalues --   -0.42851  -0.42764  -0.42439  -0.42060  -0.42038
 Alpha  occ. eigenvalues --   -0.41984  -0.41794  -0.41059  -0.40808  -0.40610
 Alpha  occ. eigenvalues --   -0.40001  -0.39987  -0.39806  -0.39468  -0.39294
 Alpha  occ. eigenvalues --   -0.39220  -0.38958  -0.38933  -0.38415  -0.37875
 Alpha  occ. eigenvalues --   -0.37775  -0.37625  -0.36555  -0.36291  -0.36162
 Alpha  occ. eigenvalues --   -0.35688  -0.35521  -0.35331  -0.33710  -0.33667
 Alpha  occ. eigenvalues --   -0.32991  -0.32837  -0.32671  -0.32590  -0.32459
 Alpha  occ. eigenvalues --   -0.31973  -0.31466  -0.31190  -0.26273  -0.25697
 Alpha  occ. eigenvalues --   -0.23192  -0.22810
 Alpha virt. eigenvalues --   -0.07192  -0.06959  -0.00735   0.00334   0.02272
 Alpha virt. eigenvalues --    0.02511   0.04073   0.04286   0.04506   0.04678
 Alpha virt. eigenvalues --    0.07049   0.07106   0.07497   0.07838   0.08541

 Mulliken charges:
               1
     1  Mg   0.942219
     2  C   -0.038227
     3  C   -0.073557
     4  C   -0.078358
     5  C   -0.055518
     6  N   -0.320074
     7  C   -0.053025
     8  C   -0.003125
     9  C   -0.147433
    10  C    0.056784
    11  C    0.022587
    12  C   -0.011497
    13  C   -0.137970
    14  H    0.013675
    15  N   -0.462319
    16  C    0.168182
    17  C   -0.175002
    18  C   -0.086638
    19  C    0.201914
    20  C    0.084731
    21  C    0.035916
    22  O   -0.235934
    23  C    0.005315
    24  N   -0.322709
    25  C    0.047407
    26  C   -0.151742
    27  C   -0.062457
    28  C    0.046583
    29  C    0.017217
    30  C   -0.028968
    31  C   -0.050504
    32  N   -0.501372
    33  C    0.150863
    34  C   -0.184774
    35  C   -0.035160
    36  C    0.186985
    37  C    0.087890
    38  C    0.097769
    39  O   -0.231264
    40  C   -0.050533
    41  C    0.238312
    42  O   -0.236049
    43  O   -0.346770
    44  C    0.130938
    45  H    0.013672
    46  H   -0.019822
    47  H    0.003430
    48  H    0.035273
    49  H    0.061514
    50  H    0.033373
    51  H    0.044481
    52  H    0.040486
    53  H    0.041039
    54  H    0.041252
    55  H    0.087348
    56  H    0.047167
    57  H    0.029776
    58  H    0.048674
    59  H    0.062130
    60  H    0.066379
    61  H    0.056823
    62  H    0.054729
    63  H    0.040450
    64  H    0.018193
    65  H    0.043596
    66  H    0.031288
    67  H    0.046454
    68  H    0.037397
    69  H    0.032161
    70  H    0.053213
    71  H    0.028127
    72  H    0.026767
    73  H    0.054279
    74  H    0.056751
    75  H    0.062985
    76  H    0.067926
    77  H    0.072439
    78  H    0.058976
    79  H    0.066966
    80  Mg   0.948264
    81  C   -0.025422
    82  C   -0.065275
    83  C   -0.063948
    84  C   -0.102274
    85  N   -0.370798
    86  C   -0.015944
    87  C   -0.028315
    88  C   -0.134504
    89  C    0.098667
    90  C    0.020648
    91  C   -0.030113
    92  C   -0.123652
    93  H    0.053516
    94  N   -0.508392
    95  C    0.144431
    96  C   -0.141988
    97  C   -0.082446
    98  C    0.113033
    99  C    0.032845
   100  C    0.056498
   101  O   -0.199154
   102  C   -0.017875
   103  N   -0.306763
   104  C    0.065588
   105  C   -0.068757
   106  C   -0.048008
   107  C    0.007283
   108  C    0.036424
   109  C   -0.047560
   110  C   -0.031077
   111  N   -0.393296
   112  C    0.166167
   113  C   -0.184977
   114  C   -0.031474
   115  C    0.105847
   116  C    0.061931
   117  C    0.130837
   118  O   -0.210302
   119  C   -0.060600
   120  C    0.252685
   121  O   -0.228610
   122  O   -0.379448
   123  C    0.117890
   124  H   -0.017288
   125  H    0.026208
   126  H   -0.005251
   127  H    0.048874
   128  H    0.042117
   129  H    0.042753
   130  H    0.050255
   131  H    0.032153
   132  H    0.030146
   133  H    0.046395
   134  H    0.034944
   135  H    0.055756
   136  H    0.037360
   137  H    0.055345
   138  H    0.058480
   139  H    0.064697
   140  H    0.073627
   141  H    0.037331
   142  H    0.039887
   143  H    0.035200
   144  H    0.044225
   145  H    0.034836
   146  H    0.041284
   147  H    0.023672
   148  H    0.022382
   149  H    0.035783
   150  H    0.033286
   151  H    0.037186
   152  H    0.045419
   153  H    0.051347
   154  H    0.052564
   155  H    0.070837
   156  H    0.051534
   157  H    0.068736
   158  H    0.086335
 Sum of Mulliken charges =  -0.00000

 Dipole moment (field-independent basis, Debye):
    X=              5.4478    Y=              0.3977    Z=             -2.6294  Tot=              6.0622
 Quadrupole moment (field-independent basis, Debye-Ang):
   XX=           -557.9082   YY=           -522.5713   ZZ=           -481.0844
   XY=            -70.6247   XZ=             90.6920   YZ=             33.3194

 Normal termination of Gaussian 16 at Sat Sep 18 14:36:48 2021.
