 Gaussian 16, Revision A.03,
 Gaussian 16:  ES64L-G16RevA.03 25-Dec-2016

 --------------------------------
 #p wB97XD/Def2SVP td=(nstates=5)
 --------------------------------

 --------------------------------
 TDDFT excited states in gaussian
 --------------------------------
 Symbolic Z-matrix:
 Charge =  0 Multiplicity = 1

                         Standard orientation:
 ---------------------------------------------------------------------
 Center     Atomic      Atomic             Coordinates (Angstroms)
 Number     Number       Type             X           Y           Z
 ---------------------------------------------------------------------
      1         12           0      -31.385050    0.446605    0.436735
      2          6           0      -28.761847   -1.883069    0.232712
      3          6           0      -29.127278    2.941143   -0.271709
      4          6           0      -33.984249    2.421807   -0.100193
      5          6           0      -33.649532   -2.250466    0.901243
      6          7           0      -29.274383    0.475376   -0.214387
      7          6           0      -28.361716   -0.610896   -0.226891
      8          6           0      -26.955276   -0.175809   -0.278358
      9          6           0      -27.095221    1.406359   -0.341319
     10          6           0      -28.593172    1.644579   -0.234202
     11          6           0      -26.193201    2.124321    0.691594
     12          6           0      -26.210585   -0.607340   -1.504793
     13          6           0      -26.997387   -0.616475   -2.823892
     14          1           0      -26.312364   -0.231965   -4.192864
     15          7           0      -31.572820    2.449747   -0.082479
     16          6           0      -30.530271    3.294276   -0.198769
     17          6           0      -31.043697    4.630696   -0.367111
     18          6           0      -32.452017    4.532533   -0.248597
     19          6           0      -32.749997    3.098593   -0.103424
     20          6           0      -30.225325    5.862491   -0.646778
     21          6           0      -33.433030    5.704104   -0.280834
     22          8           0      -33.041992    6.845478   -0.428550
     23          6           0      -34.931525    5.639232   -0.259909
     24          7           0      -33.492339    0.097272    0.149779
     25          6           0      -34.391311    1.117053   -0.015304
     26          6           0      -35.858882    0.630683    0.221709
     27          6           0      -35.690515   -0.918913    0.227895
     28          6           0      -34.200118   -1.041794    0.457725
     29          6           0      -36.517023    1.116134    1.535825
     30          6           0      -35.944762   -1.659823   -1.168823
     31          6           0      -36.792745   -2.879468   -1.136658
     32          7           0      -31.291593   -1.562694    0.647977
     33          6           0      -32.236273   -2.442518    1.006733
     34          6           0      -31.595215   -3.705934    1.533709
     35          6           0      -30.208455   -3.463797    1.275425
     36          6           0      -30.094078   -2.213110    0.605072
     37          6           0      -32.220359   -4.954659    2.138809
     38          6           0      -28.927139   -4.108681    1.283350
     39          8           0      -28.605725   -5.234333    1.629972
     40          6           0      -27.926284   -3.075243    0.625340
     41          6           0      -27.462615   -3.682627   -0.682411
     42          8           0      -28.103755   -3.869387   -1.663252
     43          8           0      -26.102889   -3.892150   -0.593134
     44          6           0      -25.469434   -4.206211   -1.877823
     45          1           0      -28.384281    3.740712   -0.298593
     46          1           0      -34.850028    3.086113   -0.098279
     47          1           0      -34.394242   -2.999407    1.178597
     48          1           0      -26.455339   -0.572051    0.605465
     49          1           0      -26.920323    1.863887   -1.315010
     50          1           0      -25.729496    2.878534    0.055546
     51          1           0      -25.498285    1.378805    1.078282
     52          1           0      -26.759479    2.638964    1.468105
     53          1           0      -25.626174   -1.517864   -1.369822
     54          1           0      -25.367160    0.028983   -1.773701
     55          1           0      -27.851001    0.037405   -2.642141
     56          1           0      -27.389104   -1.633589   -2.845020
     57          1           0      -30.665700    6.450532   -1.452681
     58          1           0      -29.189589    5.582519   -0.838663
     59          1           0      -30.279574    6.430211    0.282429
     60          1           0      -35.392965    5.177565   -1.132264
     61          1           0      -35.185514    6.694082   -0.365292
     62          1           0      -35.336486    5.374584    0.717440
     63          1           0      -36.465532    0.994636   -0.607417
     64          1           0      -36.244703   -1.411949    1.026995
     65          1           0      -36.654513    0.256686    2.191738
     66          1           0      -37.360612    1.779389    1.345337
     67          1           0      -35.813887    1.768111    2.052879
     68          1           0      -35.003166   -1.890321   -1.666656
     69          1           0      -36.439766   -0.901643   -1.775888
     70          1           0      -37.650591   -2.820102   -1.806171
     71          1           0      -37.144470   -3.139270   -0.137946
     72          1           0      -36.250048   -3.758188   -1.484079
     73          1           0      -31.910406   -5.788651    1.509114
     74          1           0      -33.283945   -4.758233    2.279601
     75          1           0      -31.704759   -5.105648    3.087121
     76          1           0      -27.088256   -2.836526    1.279805
     77          1           0      -25.978597   -3.750536   -2.726955
     78          1           0      -25.536428   -5.292819   -1.932531
     79          1           0      -24.409415   -3.992610   -1.743287
     80         12           0       31.549211   -0.170311    0.256254
     81          6           0       28.176475    0.846154    0.135675
     82          6           0       30.471454   -3.295475   -0.306269
     83          6           0       34.712225   -0.903698   -0.115365
     84          6           0       32.367656    3.306027    0.131008
     85          7           0       29.539610   -1.086212   -0.092865
     86          6           0       28.301468   -0.541791   -0.026904
     87          6           0       27.183364   -1.550532   -0.195071
     88          6           0       28.002992   -2.895610   -0.053983
     89          6           0       29.445994   -2.449347   -0.167219
     90          6           0       27.738090   -3.701431    1.284232
     91          6           0       26.248171   -1.559694   -1.482013
     92          6           0       26.634428   -0.787428   -2.771402
     93          1           0       26.203998   -1.401386   -4.155798
     94          7           0       32.444394   -1.953990   -0.031095
     95          6           0       31.859950   -3.101798   -0.347290
     96          6           0       32.911169   -4.108780   -0.657280
     97          6           0       34.205061   -3.405922   -0.427093
     98          6           0       33.806141   -2.018299   -0.189830
     99          6           0       32.633079   -5.564560   -0.918557
    100          6           0       35.575389   -4.015154   -0.568793
    101          8           0       35.663917   -5.214015   -0.822183
    102          6           0       36.936380   -3.230673   -0.482622
    103          7           0       33.363327    1.070476   -0.082187
    104          6           0       34.480345    0.431832   -0.022800
    105          6           0       35.647608    1.515943    0.013724
    106          6           0       34.843601    2.806340   -0.158382
    107          6           0       33.392470    2.379765   -0.048031
    108          6           0       36.608406    1.542194    1.214119
    109          6           0       34.980923    3.464549   -1.627604
    110          6           0       35.700383    4.823541   -1.706165
    111          7           0       30.564037    1.704928    0.091334
    112          6           0       30.995819    3.002193    0.176144
    113          6           0       29.849190    3.923012    0.389187
    114          6           0       28.674368    3.130407    0.254024
    115          6           0       29.214132    1.773559    0.186578
    116          6           0       29.896576    5.463746    0.494130
    117          6           0       27.250842    3.088747    0.208595
    118          8           0       26.359181    3.951647    0.136054
    119          6           0       26.852606    1.590872    0.206557
    120          6           0       25.985094    1.361817    1.447634
    121          8           0       24.804970    1.186986    1.597191
    122          8           0       26.843876    1.163892    2.534298
    123          6           0       26.227594    0.803241    3.848823
    124          1           0       30.092526   -4.301718   -0.497903
    125          1           0       35.758794   -1.204867   -0.204782
    126          1           0       32.643826    4.338138    0.355087
    127          1           0       26.578359   -1.439771    0.704637
    128          1           0       27.727094   -3.570323   -0.864511
    129          1           0       27.055628   -3.158348    1.937136
    130          1           0       28.708708   -3.629275    1.773717
    131          1           0       27.408969   -4.712694    1.044514
    132          1           0       25.266982   -1.213630   -1.156778
    133          1           0       26.071881   -2.593834   -1.779882
    134          1           0       27.721885   -0.714880   -2.753334
    135          1           0       26.128312    0.171489   -2.878553
    136          1           0       33.523226   -6.190397   -0.858339
    137          1           0       32.079078   -5.605675   -1.857119
    138          1           0       31.881433   -5.819266   -0.170666
    139          1           0       37.164055   -2.588993    0.369396
    140          1           0       36.972427   -2.529544   -1.316426
    141          1           0       37.796883   -3.897459   -0.529569
    142          1           0       36.350185    1.371605   -0.806346
    143          1           0       35.045741    3.645776    0.507802
    144          1           0       36.381853    0.754352    1.932683
    145          1           0       36.626800    2.520983    1.694597
    146          1           0       37.645119    1.339986    0.944959
    147          1           0       34.007278    3.646024   -2.080717
    148          1           0       35.507942    2.723176   -2.228590
    149          1           0       35.341123    5.501350   -2.480906
    150          1           0       36.730461    4.584115   -1.970056
    151          1           0       35.541713    5.246520   -0.714116
    152          1           0       30.840102    5.918220    0.193729
    153          1           0       29.734076    5.659117    1.553810
    154          1           0       29.032782    5.865960   -0.034619
    155          1           0       26.272034    1.373549   -0.689388
    156          1           0       25.228920    1.175572    4.076067
    157          1           0       26.884508    1.289178    4.569986
    158          1           0       26.225815   -0.243682    4.152904
 ---------------------------------------------------------------------

 SCF Done:  E(RwB97XD) =  -4070.58495238     A.U. after   19 cycles

 Excitation energies and oscillator strengths:

 Excited State   1:      Singlet-A      1.6066 eV  771.70 nm  f=0.3724  <S**2>=0.000
     310 -> 316        0.17859
     312 -> 314        0.68544
     310 <- 316        0.11728
 This state for optimization and/or second-order correction.
 Total Energy, E(TD-HF/TD-DFT) =  -4070.52590946
 Copying the excited state density for this state as the 1-particle RhoCI density.

 Excited State   2:      Singlet-A      1.7163 eV  722.40 nm  f=0.4075  <S**2>=0.000
     309 -> 315       -0.19065
     311 -> 313        0.68129
     309 <- 315       -0.11532

 Excited State   3:      Singlet-A      2.2111 eV  560.74 nm  f=0.0989  <S**2>=0.000
     310 -> 314        0.62753
     312 -> 316       -0.31206

 Excited State   4:      Singlet-A      2.2310 eV  555.73 nm  f=0.0952  <S**2>=0.000
     309 -> 313        0.63454
     311 -> 315        0.29973

 Excited State   5:      Singlet-A      3.4112 eV  363.46 nm  f=0.0006  <S**2>=0.000
     300 -> 314       -0.11535
     306 -> 314       -0.17837
     307 -> 314        0.64819

 The electronic state is 1-A.
 Alpha  occ. eigenvalues --  -46.96423 -46.94930 -19.29882 -19.29833 -19.25404
 Alpha  occ. eigenvalues --  -19.25325 -19.24616 -19.24174 -19.23587 -19.23241
 Alpha  occ. eigenvalues --  -14.46985 -14.46924 -14.46480 -14.46382 -14.45078
 Alpha  occ. eigenvalues --  -14.44726 -14.44169 -14.44102 -10.43792 -10.43071
 Alpha  occ. eigenvalues --  -10.39787 -10.39562 -10.38999 -10.38555 -10.35658
 Alpha  occ. eigenvalues --  -10.35586 -10.35235 -10.35191 -10.35154 -10.35135
 Alpha  occ. eigenvalues --  -10.34964 -10.34827 -10.34770 -10.34701 -10.34647
 Alpha  occ. eigenvalues --  -10.34592 -10.34500 -10.34435 -10.34186 -10.34079
 Alpha  occ. eigenvalues --  -10.33986 -10.33832 -10.33384 -10.33316 -10.33075
 Alpha  occ. eigenvalues --  -10.32886 -10.32872 -10.32855 -10.32553 -10.32544
 Alpha  occ. eigenvalues --  -10.32448 -10.32284 -10.32170 -10.32097 -10.32074
 Alpha  occ. eigenvalues --  -10.31971 -10.31950 -10.31873 -10.31868 -10.31693
 Alpha  occ. eigenvalues --  -10.31535 -10.31513 -10.31435 -10.31327 -10.31133
 Alpha  occ. eigenvalues --  -10.31131 -10.31060 -10.30982 -10.30848 -10.30531
 Alpha  occ. eigenvalues --  -10.30484 -10.30459 -10.30429 -10.30413 -10.30356
 Alpha  occ. eigenvalues --  -10.30351 -10.30333 -10.30294 -10.30026 -10.29948
 Alpha  occ. eigenvalues --  -10.29615 -10.29426 -10.29357 -10.29265 -10.29174
 Alpha  occ. eigenvalues --  -10.29148  -3.22352  -3.21000  -1.95928  -1.95472
 Alpha  occ. eigenvalues --   -1.95321  -1.94552  -1.94130  -1.93989  -1.19398
 Alpha  occ. eigenvalues --   -1.18266  -1.12601  -1.12183  -1.11750  -1.11645
 Alpha  occ. eigenvalues --   -1.11149  -1.09539  -1.08748  -1.06853  -1.06583
 Alpha  occ. eigenvalues --   -1.06070  -1.06025  -1.05338  -1.05320  -1.04642
 Alpha  occ. eigenvalues --   -0.95628  -0.95150  -0.91739  -0.91735  -0.91303
 Alpha  occ. eigenvalues --   -0.90738  -0.90489  -0.90289  -0.90216  -0.89441
 Alpha  occ. eigenvalues --   -0.88913  -0.88275  -0.87746  -0.87332  -0.86845
 Alpha  occ. eigenvalues --   -0.86638  -0.86043  -0.85844  -0.84794  -0.84622
 Alpha  occ. eigenvalues --   -0.83721  -0.83591  -0.82808  -0.82787  -0.82484
 Alpha  occ. eigenvalues --   -0.82458  -0.80485  -0.79875  -0.79652  -0.79432
 Alpha  occ. eigenvalues --   -0.78957  -0.78770  -0.78631  -0.77970  -0.77320
 Alpha  occ. eigenvalues --   -0.77085  -0.75347  -0.74683  -0.74391  -0.73645
 Alpha  occ. eigenvalues --   -0.71614  -0.71548  -0.71210  -0.70801  -0.70608
 Alpha  occ. eigenvalues --   -0.70563  -0.69516  -0.69081  -0.68791  -0.67781
 Alpha  occ. eigenvalues --   -0.67656  -0.67519  -0.67065  -0.66890  -0.66512
 Alpha  occ. eigenvalues --   -0.66359  -0.65198  -0.64088  -0.62603  -0.62222
 Alpha  occ. eigenvalues --   -0.61967  -0.61460  -0.61417  -0.60997  -0.60915
 Alpha  occ. eigenvalues --   -0.60545  -0.60102  -0.60096  -0.59388  -0.59269
 Alpha  occ. eigenvalues --   -0.58527  -0.58360  -0.58008  -0.57876  -0.57665
 Alpha  occ. eigenvalues --   -0.57352  -0.57045  -0.57044  -0.56552  -0.56523
 Alpha  occ. eigenvalues --   -0.56015  -0.55925  -0.55602  -0.54982  -0.54911
 Alpha  occ. eigenvalues --   -0.54795  -0.54729  -0.54290  -0.54200  -0.54009
 Alpha  occ. eigenvalues --   -0.53978  -0.53677  -0.53543  -0.53522  -0.53332
 Alpha  occ. eigenvalues --   -0.53230  -0.53067  -0.53036  -0.52863  -0.52538
 Alpha  occ. eigenvalues --   -0.52090  -0.51968  -0.51760  -0.51542  -0.51471
 Alpha  occ. eigenvalues --   -0.51328  -0.51204  -0.51004  -0.50836  -0.50812
 Alpha  occ. eigenvalues --   -0.50679  -0.50541  -0.50485  -0.50463  -0.50275
 Alpha  occ. eigenvalues --   -0.50249  -0.49809  -0.49541  -0.49454  -0.49385
 Alpha  occ. eigenvalues --   -0.49218  -0.49120  -0.49035  -0.48887  -0.48815
 Alpha  occ. eigenvalues --   -0.48727  -0.48590  -0.48301  -0.48244  -0.48059
 Alpha  occ. eigenvalues --   -0.47939  -0.47814  -0.47809  -0.47502  -0.47415
 Alpha  occ. eigenvalues --   -0.47307  -0.47158  -0.46797  -0.46592  -0.46287
 Alpha  occ. eigenvalues --   -0.46133  -0.46014  -0.45921  -0.45826  -0.45531
 Alpha  occ. eigenvalues --   -0.45526  -0.45268  -0.45141  -0.45097  -0.44687
 Alpha  occ. eigenvalues --   -0.44591  -0.44512  -0.44371  -0.44267  -0.44103
 Alpha  occ. eigenvalues --   -0.44071  -0.44055  -0.44011  -0.43780  -0.43375
 Alpha  occ. eigenvalues --   -0.43122  -0.43048  -0.42863  -0.42664  -0.42607
 Alpha  occ. eigenvalues --   -0.42286  -0.41891  -0.41754  -0.41156  -0.41023
 Alpha  occ. eigenvalues --   -0.40774  -0.40399  -0.40145  -0.39800  -0.39734
 Alpha  occ. eigenvalues --   -0.39304  -0.39065  -0.38903  -0.38730  -0.38464
 Alpha  occ. eigenvalues --   -0.38287  -0.37700  -0.37075  -0.37037  -0.36270
 Alpha  occ. eigenvalues --   -0.36206  -0.35875  -0.35287  -0.34105  -0.33568
 Alpha  occ. eigenvalues --   -0.33500  -0.33283  -0.33109  -0.32879  -0.32455
 Alpha  occ. eigenvalues --   -0.32062  -0.31815  -0.31434  -0.26433  -0.26217
 Alpha  occ. eigenvalues --   -0.23356  -0.22841
 Alpha virt. eigenvalues --   -0.07275  -0.07110  -0.00139   0.00138   0.01403
 Alpha virt. eigenvalues --    0.02309   0.03840   0.04502   0.04508   0.04663
 Alpha virt. eigenvalues --    0.06802   0.07179   0.07588   0.07784   0.07959

 Mulliken charges:
               1
     1  Mg   0.971383
     2  C   -0.073407
     3  C   -0.088913
     4  C   -0.070178
     5  C   -0.087723
     6  N   -0.366556
     7  C    0.021228
     8  C   -0.041203
     9  C   -0.131876
    10  C    0.060140
    11  C    0.036727
    12  C   -0.026368
    13  C   -0.106096
    14  H    0.042099
    15  N   -0.438768
    16  C    0.155341
    17  C   -0.198968
    18  C   -0.050459
    19  C    0.165350
    20  C    0.110478
    21  C    0.017534
    22  O   -0.237353
    23  C   -0.009504
    24  N   -0.357034
    25  C    0.045763
    26  C   -0.080118
    27  C   -0.111524
    28  C    0.037608
    29  C    0.042906
    30  C    0.014721
    31  C   -0.045857
    32  N   -0.434647
    33  C    0.147983
    34  C   -0.205227
    35  C   -0.044345
    36  C    0.163022
    37  C    0.102108
    38  C    0.124281
    39  O   -0.206586
    40  C   -0.072823
    41  C    0.258001
    42  O   -0.210192
    43  O   -0.374946
    44  C    0.128893
    45  H   -0.001771
    46  H   -0.030315
    47  H    0.001569
    48  H    0.040546
    49  H    0.052529
    50  H    0.037927
    51  H    0.045551
    52  H    0.046133
    53  H    0.018162
    54  H    0.023484
    55  H    0.051755
    56  H    0.057119
    57  H    0.065839
    58  H    0.021482
    59  H    0.056329
    60  H    0.066098
    61  H    0.044684
    62  H    0.054447
    63  H    0.033930
    64  H    0.029518
    65  H    0.040564
    66  H    0.046098
    67  H    0.027750
    68  H    0.057245
    69  H    0.024514
    70  H    0.038659
    71  H    0.024902
    72  H    0.035852
    73  H    0.069380
    74  H    0.037709
    75  H    0.057394
    76  H    0.064940
    77  H    0.073208
    78  H    0.055932
    79  H    0.055943
    80  Mg   0.957777
    81  C   -0.036482
    82  C   -0.091671
    83  C   -0.036365
    84  C   -0.103679
    85  N   -0.341163
    86  C   -0.037785
    87  C    0.005151
    88  C   -0.158204
    89  C    0.057886
    90  C    0.033616
    91  C    0.002385
    92  C   -0.149920
    93  H    0.026846
    94  N   -0.476062
    95  C    0.164485
    96  C   -0.173385
    97  C   -0.081305
    98  C    0.167389
    99  C    0.085907
   100  C    0.055530
   101  O   -0.240337
   102  C   -0.027088
   103  N   -0.273807
   104  C    0.045782
   105  C   -0.055742
   106  C   -0.126035
   107  C    0.077264
   108  C    0.014295
   109  C   -0.041880
   110  C   -0.039883
   111  N   -0.402087
   112  C    0.127038
   113  C   -0.186128
   114  C   -0.008874
   115  C    0.160878
   116  C    0.075217
   117  C    0.093757
   118  O   -0.218096
   119  C   -0.083263
   120  C    0.279623
   121  O   -0.209538
   122  O   -0.398028
   123  C    0.134866
   124  H   -0.010888
   125  H   -0.053780
   126  H    0.002648
   127  H    0.040933
   128  H    0.037044
   129  H    0.035426
   130  H    0.038122
   131  H    0.054857
   132  H    0.045326
   133  H    0.044641
   134  H    0.072937
   135  H    0.074338
   136  H    0.077707
   137  H    0.041052
   138  H    0.036951
   139  H    0.056530
   140  H    0.057159
   141  H    0.052412
   142  H    0.035506
   143  H    0.023172
   144  H    0.033245
   145  H    0.036004
   146  H    0.027116
   147  H    0.043321
   148  H    0.025250
   149  H    0.043761
   150  H    0.037811
   151  H    0.028135
   152  H    0.042833
   153  H    0.054952
   154  H    0.069760
   155  H    0.068847
   156  H    0.065922
   157  H    0.044849
   158  H    0.047217
 Sum of Mulliken charges =  -0.00000

 Dipole moment (field-independent basis, Debye):
    X=              2.1025    Y=              1.7597    Z=              3.7344  Tot=              4.6328
 Quadrupole moment (field-independent basis, Debye-Ang):
   XX=           -183.9486   YY=           -570.6044   ZZ=           -504.0316
   XY=             70.9951   XZ=             20.0354   YZ=              3.9897

 Normal termination of Gaussian 16 at Sat Sep 18 16:12:08 2021.
