 Gaussian 16, Revision A.03,
 Gaussian 16:  ES64L-G16RevA.03 25-Dec-2016

 --------------------------------
 #p wB97XD/Def2SVP td=(nstates=5)
 --------------------------------

 --------------------------------
 TDDFT excited states in gaussian
 --------------------------------
 Symbolic Z-matrix:
 Charge =  0 Multiplicity = 1

                         Standard orientation:
 ---------------------------------------------------------------------
 Center     Atomic      Atomic             Coordinates (Angstroms)
 Number     Number       Type             X           Y           Z
 ---------------------------------------------------------------------
      1         12           0        4.929361    0.609668    0.011839
      2          6           0        2.894585   -2.228336    0.821174
      3          6           0        7.442697   -1.419925   -0.575937
      4          6           0        6.812424    3.335526    0.102405
      5          6           0        2.067635    2.649980    1.096453
      6          7           0        5.113837   -1.580929    0.071344
      7          6           0        4.186657   -2.570022    0.455505
      8          6           0        4.757177   -4.037011    0.387792
      9          6           0        6.270466   -3.670831   -0.157641
     10          6           0        6.316868   -2.149139   -0.254084
     11          6           0        7.407731   -4.206664    0.813939
     12          6           0        3.941087   -5.047875   -0.490905
     13          6           0        4.678186   -6.318779   -0.896049
     14          1           0        4.113889   -7.612796   -0.281500
     15          7           0        6.856260    0.917485   -0.307134
     16          6           0        7.820488   -0.026251   -0.572731
     17          6           0        9.121245    0.564454   -0.807126
     18          6           0        8.897270    1.984612   -0.610629
     19          6           0        7.425706    2.125421   -0.321364
     20          6           0       10.334193   -0.128545   -1.218084
     21          6           0        9.865674    3.149719   -0.718321
     22          8           0        9.541285    4.301984   -0.649214
     23          6           0       11.314172    2.755438   -0.833835
     24          7           0        4.514264    2.698499    0.590291
     25          6           0        5.500411    3.625367    0.492661
     26          6           0        4.959689    5.046831    0.802777
     27          6           0        3.422671    4.789678    0.978796
     28          6           0        3.298445    3.285313    0.832362
     29          6           0        5.578456    5.825908    2.013051
     30          6           0        2.478011    5.520233   -0.039599
     31          6           0        2.272512    7.017154    0.281650
     32          7           0        2.929188    0.356953    0.809469
     33          6           0        1.908174    1.228682    1.110510
     34          6           0        0.750196    0.488465    1.420263
     35          6           0        1.056335   -0.820249    1.387275
     36          6           0        2.434899   -0.900469    1.024058
     37          6           0       -0.586656    1.178024    1.659579
     38          6           0        0.640044   -2.209360    1.604870
     39          8           0       -0.415834   -2.663207    1.963702
     40          6           0        1.870679   -3.174356    1.253828
     41          6           0        2.330721   -3.789768    2.536792
     42          8           0        3.111855   -3.409410    3.379521
     43          8           0        1.687027   -5.010255    2.588715
     44          6           0        1.969333   -5.871104    3.761953
     45          1           0        8.347883   -2.007860   -0.740828
     46          1           0        7.508802    4.162331    0.261623
     47          1           0        1.289219    3.393773    1.281732
     48          1           0        4.882627   -4.389671    1.411641
     49          1           0        6.411535   -4.175039   -1.113947
     50          1           0        8.199940   -4.666096    0.223017
     51          1           0        7.137333   -4.884412    1.623217
     52          1           0        7.926957   -3.371287    1.282669
     53          1           0        3.659628   -4.390165   -1.314311
     54          1           0        2.964901   -5.375999   -0.133166
     55          1           0        5.722295   -6.234620   -0.595947
     56          1           0        4.523054   -6.485432   -1.961646
     57          1           0       10.458615    0.308855   -2.208665
     58          1           0       10.193177   -1.209428   -1.206122
     59          1           0       11.249448    0.066160   -0.659437
     60          1           0       11.592652    2.712756   -1.886711
     61          1           0       11.621887    2.002161   -0.108007
     62          1           0       11.821828    3.535724   -0.267488
     63          1           0        4.981199    5.569435   -0.153994
     64          1           0        3.152194    4.964460    2.020375
     65          1           0        4.885761    6.125504    2.800043
     66          1           0        5.893423    6.784674    1.601752
     67          1           0        6.399254    5.321758    2.523162
     68          1           0        1.493700    5.054007   -0.014879
     69          1           0        2.928882    5.340398   -1.016539
     70          1           0        2.492991    7.214991    1.330805
     71          1           0        1.241809    7.240369    0.006357
     72          1           0        2.943990    7.686120   -0.257421
     73          1           0       -1.419664    0.517715    1.418098
     74          1           0       -0.615854    2.097476    1.074806
     75          1           0       -0.648278    1.539708    2.686215
     76          1           0        1.596848   -3.923478    0.510526
     77          1           0        1.012255   -6.317739    4.031143
     78          1           0        2.380981   -5.340019    4.620076
     79          1           0        2.660533   -6.575588    3.298263
     80         12           0       -4.973895    0.468690   -0.329995
     81          6           0       -2.859347   -2.061954   -1.164039
     82          6           0       -7.491531   -1.774212    0.353955
     83          6           0       -7.017046    3.094921    0.293871
     84          6           0       -2.531430    2.741986   -1.495434
     85          7           0       -5.215492   -1.679571   -0.614226
     86          6           0       -4.126061   -2.492683   -0.646452
     87          6           0       -4.430235   -3.907268   -0.285974
     88          6           0       -6.024554   -3.786497   -0.052337
     89          6           0       -6.289113   -2.317452   -0.101897
     90          6           0       -6.870317   -4.577391   -1.150155
     91          6           0       -3.649811   -4.276080    1.060785
     92          6           0       -3.378413   -5.757604    1.331051
     93          1           0       -4.060795   -6.924233    0.574194
     94          7           0       -6.943071    0.688372    0.339693
     95          6           0       -7.827942   -0.383509    0.541094
     96          6           0       -9.091869    0.183891    0.950051
     97          6           0       -8.959895    1.587344    0.966243
     98          6           0       -7.578036    1.817267    0.567718
     99          6           0      -10.284946   -0.719470    1.340333
    100          6           0      -10.112314    2.684315    1.258142
    101          8           0       -9.868782    3.890594    1.388711
    102          6           0      -11.584250    2.351017    1.437173
    103          7           0       -4.739675    2.661774   -0.518429
    104          6           0       -5.771964    3.486737   -0.221105
    105          6           0       -5.500443    4.913655   -0.694723
    106          6           0       -3.889845    4.863469   -0.977449
    107          6           0       -3.625239    3.351403   -0.904928
    108          6           0       -6.433889    5.453910   -1.872611
    109          6           0       -2.942113    5.524822    0.146820
    110          6           0       -1.854262    6.500829   -0.262007
    111          7           0       -3.042063    0.443994   -1.123883
    112          6           0       -2.192551    1.393465   -1.553594
    113          6           0       -0.891316    0.768270   -1.947967
    114          6           0       -1.140433   -0.608796   -1.737976
    115          6           0       -2.500824   -0.724552   -1.361291
    116          6           0        0.387891    1.377898   -2.401330
    117          6           0       -0.486275   -1.858583   -1.847313
    118          8           0        0.677964   -2.131405   -2.205209
    119          6           0       -1.573412   -2.866718   -1.483567
    120          6           0       -1.792293   -3.743520   -2.611170
    121          8           0       -2.068020   -3.500791   -3.744387
    122          8           0       -1.735697   -5.040391   -2.109403
    123          6           0       -1.979844   -6.254038   -2.979363
    124          1           0       -8.252615   -2.417408    0.799732
    125          1           0       -7.711075    3.931150    0.404274
    126          1           0       -1.816462    3.357296   -2.044491
    127          1           0       -4.224192   -4.728709   -0.971897
    128          1           0       -6.312318   -4.174629    0.924704
    129          1           0       -7.784117   -5.053185   -0.794972
    130          1           0       -6.208611   -5.255598   -1.688715
    131          1           0       -7.196618   -3.833007   -1.877192
    132          1           0       -4.162643   -3.885093    1.939769
    133          1           0       -2.695886   -3.753397    0.986122
    134          1           0       -3.558669   -5.896317    2.397809
    135          1           0       -2.308618   -5.936471    1.230071
    136          1           0      -10.062626   -1.786408    1.328387
    137          1           0      -11.094452   -0.477615    0.652429
    138          1           0      -10.606362   -0.409834    2.335045
    139          1           0      -11.627436    1.818080    2.386302
    140          1           0      -11.915898    1.552903    0.772699
    141          1           0      -12.200125    3.228569    1.241510
    142          1           0       -5.648565    5.577079    0.158187
    143          1           0       -3.647199    5.327740   -1.933515
    144          1           0       -5.844425    5.753278   -2.739543
    145          1           0       -7.037891    6.288430   -1.518269
    146          1           0       -7.084024    4.660457   -2.241973
    147          1           0       -2.496537    4.771057    0.795809
    148          1           0       -3.609681    6.050131    0.829165
    149          1           0       -0.917991    6.096062    0.120679
    150          1           0       -2.033457    7.513698    0.097597
    151          1           0       -1.751274    6.500955   -1.348034
    152          1           0        0.406926    2.467540   -2.389145
    153          1           0        0.617604    1.082879   -3.425522
    154          1           0        1.186466    1.018500   -1.752632
    155          1           0       -1.302725   -3.469758   -0.616376
    156          1           0       -2.248120   -5.948199   -3.990827
    157          1           0       -2.831965   -6.814838   -2.592992
    158          1           0       -1.045564   -6.815101   -2.960443
 ---------------------------------------------------------------------

 SCF Done:  E(RwB97XD) =  -4070.64409492     A.U. after   19 cycles

 Excitation energies and oscillator strengths:

 Excited State   1:      Singlet-A      1.5914 eV  779.07 nm  f=0.8715  <S**2>=0.000
     310 -> 316       -0.13050
     311 -> 313       -0.14331
     311 -> 314       -0.39319
     312 -> 313        0.54276
 This state for optimization and/or second-order correction.
 Total Energy, E(TD-HF/TD-DFT) =  -4070.58561033
 Copying the excited state density for this state as the 1-particle RhoCI density.

 Excited State   2:      Singlet-A      1.6877 eV  734.64 nm  f=0.0642  <S**2>=0.000
     309 -> 315        0.16315
     310 -> 316       -0.10298
     311 -> 313       -0.39164
     311 -> 314        0.36838
     312 -> 313        0.13460
     312 -> 314        0.39373

 Excited State   3:      Singlet-A      2.1296 eV  582.19 nm  f=0.0349  <S**2>=0.000
     309 -> 314       -0.31275
     310 -> 313        0.55181
     310 -> 314        0.13108
     311 -> 316       -0.13373
     312 -> 316        0.18666

 Excited State   4:      Singlet-A      2.1686 eV  571.74 nm  f=0.1609  <S**2>=0.000
     309 -> 313       -0.33231
     309 -> 314        0.43519
     310 -> 313        0.12504
     310 -> 314        0.30252
     311 -> 315       -0.23710
     312 -> 315       -0.12324
     312 -> 316        0.11877

 Excited State   5:      Singlet-A      2.6655 eV  465.14 nm  f=0.0004  <S**2>=0.000
     311 -> 313        0.15364
     311 -> 314       -0.32968
     312 -> 313       -0.24051
     312 -> 314        0.54090

 The electronic state is 1-A.
 Alpha  occ. eigenvalues --  -46.95378 -46.94672 -19.29129 -19.28655 -19.24816
 Alpha  occ. eigenvalues --  -19.24621 -19.24246 -19.23968 -19.23876 -19.23847
 Alpha  occ. eigenvalues --  -14.46653 -14.46585 -14.45988 -14.45727 -14.44037
 Alpha  occ. eigenvalues --  -14.43811 -14.43682 -14.43299 -10.42774 -10.42171
 Alpha  occ. eigenvalues --  -10.39978 -10.39596 -10.38601 -10.38378 -10.35456
 Alpha  occ. eigenvalues --  -10.35353 -10.35026 -10.34673 -10.34654 -10.34448
 Alpha  occ. eigenvalues --  -10.34266 -10.34261 -10.34087 -10.34005 -10.33965
 Alpha  occ. eigenvalues --  -10.33953 -10.33752 -10.33566 -10.33432 -10.32953
 Alpha  occ. eigenvalues --  -10.32937 -10.32782 -10.32771 -10.32668 -10.32580
 Alpha  occ. eigenvalues --  -10.32449 -10.32295 -10.32274 -10.31997 -10.31944
 Alpha  occ. eigenvalues --  -10.31933 -10.31889 -10.31630 -10.31626 -10.31626
 Alpha  occ. eigenvalues --  -10.31488 -10.31309 -10.31283 -10.31052 -10.31041
 Alpha  occ. eigenvalues --  -10.30814 -10.30791 -10.30785 -10.30751 -10.30725
 Alpha  occ. eigenvalues --  -10.30722 -10.30672 -10.30630 -10.30528 -10.30303
 Alpha  occ. eigenvalues --  -10.30219 -10.30175 -10.30052 -10.29813 -10.29805
 Alpha  occ. eigenvalues --  -10.29793 -10.29674 -10.29659 -10.29574 -10.29519
 Alpha  occ. eigenvalues --  -10.29478 -10.29427 -10.29410 -10.29308 -10.28630
 Alpha  occ. eigenvalues --  -10.28537  -3.21244  -3.20670  -1.94852  -1.94346
 Alpha  occ. eigenvalues --   -1.94254  -1.94225  -1.93770  -1.93661  -1.17861
 Alpha  occ. eigenvalues --   -1.17506  -1.13485  -1.13463  -1.11480  -1.10494
 Alpha  occ. eigenvalues --   -1.09664  -1.09140  -1.07301  -1.06055  -1.05653
 Alpha  occ. eigenvalues --   -1.05283  -1.05171  -1.04383  -1.04336  -1.03366
 Alpha  occ. eigenvalues --   -0.95116  -0.94807  -0.90725  -0.90263  -0.90055
 Alpha  occ. eigenvalues --   -0.89559  -0.89383  -0.89109  -0.88931  -0.88772
 Alpha  occ. eigenvalues --   -0.88625  -0.88594  -0.87871  -0.87759  -0.85903
 Alpha  occ. eigenvalues --   -0.85611  -0.85082  -0.84997  -0.83995  -0.83920
 Alpha  occ. eigenvalues --   -0.83756  -0.83161  -0.82740  -0.82498  -0.81940
 Alpha  occ. eigenvalues --   -0.81893  -0.80083  -0.79937  -0.79177  -0.78821
 Alpha  occ. eigenvalues --   -0.78630  -0.78328  -0.77819  -0.77326  -0.76797
 Alpha  occ. eigenvalues --   -0.76606  -0.74584  -0.74272  -0.73631  -0.73110
 Alpha  occ. eigenvalues --   -0.71364  -0.70984  -0.70595  -0.70439  -0.69612
 Alpha  occ. eigenvalues --   -0.69533  -0.68795  -0.67594  -0.67101  -0.66894
 Alpha  occ. eigenvalues --   -0.66542  -0.66456  -0.66166  -0.66039  -0.65803
 Alpha  occ. eigenvalues --   -0.65726  -0.63563  -0.63394  -0.62153  -0.61953
 Alpha  occ. eigenvalues --   -0.61501  -0.61346  -0.60786  -0.60592  -0.60490
 Alpha  occ. eigenvalues --   -0.60271  -0.59957  -0.59689  -0.59470  -0.58821
 Alpha  occ. eigenvalues --   -0.57910  -0.57725  -0.57585  -0.57177  -0.56899
 Alpha  occ. eigenvalues --   -0.56819  -0.56363  -0.56059  -0.55938  -0.55885
 Alpha  occ. eigenvalues --   -0.55494  -0.55152  -0.54811  -0.54620  -0.54590
 Alpha  occ. eigenvalues --   -0.54300  -0.54169  -0.53916  -0.53836  -0.53733
 Alpha  occ. eigenvalues --   -0.53624  -0.53555  -0.53444  -0.53138  -0.52817
 Alpha  occ. eigenvalues --   -0.52713  -0.52498  -0.52230  -0.52213  -0.52050
 Alpha  occ. eigenvalues --   -0.51851  -0.51582  -0.51462  -0.51338  -0.51236
 Alpha  occ. eigenvalues --   -0.51096  -0.50834  -0.50796  -0.50659  -0.50298
 Alpha  occ. eigenvalues --   -0.50132  -0.49985  -0.49826  -0.49757  -0.49614
 Alpha  occ. eigenvalues --   -0.49549  -0.49494  -0.49278  -0.49037  -0.48835
 Alpha  occ. eigenvalues --   -0.48748  -0.48521  -0.48189  -0.48110  -0.48067
 Alpha  occ. eigenvalues --   -0.47903  -0.47713  -0.47627  -0.47498  -0.47288
 Alpha  occ. eigenvalues --   -0.47265  -0.47191  -0.46916  -0.46831  -0.46814
 Alpha  occ. eigenvalues --   -0.46642  -0.46500  -0.46273  -0.46074  -0.45924
 Alpha  occ. eigenvalues --   -0.45863  -0.45649  -0.45619  -0.45545  -0.45307
 Alpha  occ. eigenvalues --   -0.45249  -0.45002  -0.44787  -0.44560  -0.44331
 Alpha  occ. eigenvalues --   -0.43967  -0.43926  -0.43843  -0.43605  -0.43475
 Alpha  occ. eigenvalues --   -0.43262  -0.43097  -0.42993  -0.42907  -0.42882
 Alpha  occ. eigenvalues --   -0.42667  -0.42617  -0.42504  -0.42240  -0.42203
 Alpha  occ. eigenvalues --   -0.41942  -0.41549  -0.41163  -0.40632  -0.40393
 Alpha  occ. eigenvalues --   -0.40190  -0.39926  -0.39527  -0.39380  -0.38950
 Alpha  occ. eigenvalues --   -0.38746  -0.38326  -0.38236  -0.38226  -0.37989
 Alpha  occ. eigenvalues --   -0.37802  -0.37546  -0.36538  -0.36156  -0.35955
 Alpha  occ. eigenvalues --   -0.35775  -0.35089  -0.34681  -0.33390  -0.33084
 Alpha  occ. eigenvalues --   -0.32927  -0.32846  -0.32773  -0.32697  -0.32278
 Alpha  occ. eigenvalues --   -0.32003  -0.31929  -0.31645  -0.25436  -0.25249
 Alpha  occ. eigenvalues --   -0.22612  -0.22582
 Alpha virt. eigenvalues --   -0.06808  -0.06522   0.00535   0.00989   0.02106
 Alpha virt. eigenvalues --    0.03062   0.04582   0.04853   0.06047   0.06323
 Alpha virt. eigenvalues --    0.07755   0.07918   0.08216   0.08558   0.08654

 Mulliken charges:
               1
     1  Mg   0.977038
     2  C   -0.011886
     3  C   -0.070846
     4  C   -0.070096
     5  C   -0.097874
     6  N   -0.383257
     7  C   -0.009044
     8  C   -0.030257
     9  C   -0.121337
    10  C    0.111809
    11  C   -0.013708
    12  C   -0.023010
    13  C   -0.121731
    14  H    0.023795
    15  N   -0.491048
    16  C    0.112088
    17  C   -0.135781
    18  C   -0.128451
    19  C    0.165782
    20  C    0.081531
    21  C    0.041152
    22  O   -0.208455
    23  C   -0.027287
    24  N   -0.338628
    25  C    0.032372
    26  C   -0.031345
    27  C   -0.108970
    28  C    0.024368
    29  C    0.020163
    30  C   -0.035388
    31  C   -0.027727
    32  N   -0.402846
    33  C    0.152491
    34  C   -0.252071
    35  C    0.030279
    36  C    0.139176
    37  C    0.108778
    38  C    0.113941
    39  O   -0.182908
    40  C   -0.113068
    41  C    0.284351
    42  O   -0.232580
    43  O   -0.387845
    44  C    0.128205
    45  H   -0.028582
    46  H    0.024496
    47  H   -0.000880
    48  H    0.048330
    49  H    0.049485
    50  H    0.030775
    51  H    0.049657
    52  H    0.041717
    53  H    0.050608
    54  H    0.059276
    55  H    0.059058
    56  H    0.065393
    57  H    0.058156
    58  H    0.040195
    59  H    0.046807
    60  H    0.079786
    61  H    0.047200
    62  H    0.039553
    63  H    0.038489
    64  H    0.031998
    65  H    0.032200
    66  H    0.038859
    67  H    0.051811
    68  H    0.023119
    69  H    0.031870
    70  H    0.032122
    71  H    0.041372
    72  H    0.036557
    73  H    0.061999
    74  H    0.026147
    75  H    0.042039
    76  H    0.084215
    77  H    0.060513
    78  H    0.072809
    79  H    0.056588
    80  Mg   0.945686
    81  C   -0.067200
    82  C   -0.064648
    83  C   -0.056160
    84  C   -0.102587
    85  N   -0.358831
    86  C    0.033535
    87  C   -0.085617
    88  C   -0.108618
    89  C    0.091694
    90  C    0.023241
    91  C   -0.017085
    92  C   -0.096146
    93  H    0.022471
    94  N   -0.438504
    95  C    0.108876
    96  C   -0.179355
    97  C   -0.084057
    98  C    0.123021
    99  C    0.062441
   100  C    0.075751
   101  O   -0.250445
   102  C    0.010577
   103  N   -0.331985
   104  C    0.032059
   105  C   -0.062443
   106  C   -0.122715
   107  C    0.109136
   108  C    0.017551
   109  C   -0.017477
   110  C   -0.046169
   111  N   -0.387623
   112  C    0.081852
   113  C   -0.151883
   114  C   -0.049757
   115  C    0.188567
   116  C    0.082840
   117  C    0.127852
   118  O   -0.237101
   119  C   -0.057767
   120  C    0.257615
   121  O   -0.203823
   122  O   -0.413319
   123  C    0.131130
   124  H   -0.007787
   125  H    0.014125
   126  H   -0.003086
   127  H    0.039594
   128  H    0.032558
   129  H    0.042995
   130  H    0.032334
   131  H    0.036548
   132  H    0.030824
   133  H    0.055191
   134  H    0.041099
   135  H    0.056701
   136  H    0.042899
   137  H    0.050685
   138  H    0.048226
   139  H    0.054813
   140  H    0.026053
   141  H    0.074856
   142  H    0.036758
   143  H    0.034756
   144  H    0.032879
   145  H    0.050047
   146  H    0.045974
   147  H    0.035639
   148  H    0.021113
   149  H    0.033799
   150  H    0.050100
   151  H    0.026579
   152  H    0.019713
   153  H    0.059573
   154  H    0.075796
   155  H    0.075066
   156  H    0.064656
   157  H    0.055007
   158  H    0.065729
 Sum of Mulliken charges =  -0.00000

 Dipole moment (field-independent basis, Debye):
    X=              0.4849    Y=             -2.7417    Z=              0.1884  Tot=              2.7906
 Quadrupole moment (field-independent basis, Debye-Ang):
   XX=           -464.1022   YY=           -471.0040   ZZ=           -522.3657
   XY=              0.3197   XZ=             -7.9455   YZ=             -7.8822

 Normal termination of Gaussian 16 at Sun Sep 19 06:29:54 2021.
