 Gaussian 16, Revision A.03,
 Gaussian 16:  ES64L-G16RevA.03 25-Dec-2016

 --------------------------------
 #p wB97XD/Def2SVP td=(nstates=5)
 --------------------------------

 --------------------------------
 TDDFT excited states in gaussian
 --------------------------------
 Symbolic Z-matrix:
 Charge =  0 Multiplicity = 1

                         Standard orientation:
 ---------------------------------------------------------------------
 Center     Atomic      Atomic             Coordinates (Angstroms)
 Number     Number       Type             X           Y           Z
 ---------------------------------------------------------------------
      1         12           0       20.357879   -0.754636    0.189914
      2          6           0       19.664630    2.318569   -1.192989
      3          6           0       21.474656    0.904155    3.063902
      4          6           0       21.154515   -3.722793    1.586267
      5          6           0       19.614589   -2.271294   -2.753642
      6          7           0       20.784763    1.419328    0.733606
      7          6           0       20.175692    2.489055    0.065789
      8          6           0       20.161121    3.772167    0.919969
      9          6           0       20.860972    3.255973    2.230848
     10          6           0       21.030087    1.760668    2.068216
     11          6           0       22.181141    3.959098    2.520181
     12          6           0       18.796738    4.488519    1.218900
     13          6           0       18.569314    5.953746    0.556275
     14          1           0       18.330417    7.018023    1.631793
     15          7           0       21.273516   -1.329802    1.978693
     16          6           0       21.534256   -0.500250    3.081328
     17          6           0       21.856163   -1.286558    4.276769
     18          6           0       21.855449   -2.727174    3.865587
     19          6           0       21.353143   -2.679282    2.434561
     20          6           0       22.166227   -0.661842    5.619211
     21          6           0       22.181573   -3.940498    4.600831
     22          8           0       22.202014   -5.030655    4.010564
     23          6           0       22.573294   -3.940435    6.068096
     24          7           0       20.447201   -2.626482   -0.524438
     25          6           0       20.679660   -3.767376    0.265824
     26          6           0       20.419323   -5.148531   -0.460595
     27          6           0       19.943558   -4.591517   -1.900008
     28          6           0       19.989726   -3.059489   -1.702000
     29          6           0       21.702182   -6.114650   -0.538899
     30          6           0       18.520951   -5.124022   -2.286649
     31          6           0       18.267378   -5.471553   -3.720136
     32          7           0       19.848976   -0.072611   -1.671323
     33          6           0       19.514247   -0.835624   -2.793687
     34          6           0       18.986240   -0.013785   -3.828483
     35          6           0       18.937210    1.276978   -3.183100
     36          6           0       19.543899    1.157905   -1.926313
     37          6           0       18.472574   -0.345805   -5.166364
     38          6           0       18.659352    2.659275   -3.418351
     39          8           0       18.167316    3.306473   -4.349285
     40          6           0       19.272990    3.415830   -2.154211
     41          6           0       20.379846    4.295494   -2.614624
     42          8           0       21.530506    4.098576   -2.578424
     43          8           0       19.876242    5.529145   -3.020487
     44          6           0       20.810704    6.631916   -2.932081
     45          1           0       21.737181    1.423613    3.987893
     46          1           0       21.307590   -4.743540    1.942594
     47          1           0       19.232855   -2.766827   -3.648686
     48          1           0       20.820835    4.504457    0.455779
     49          1           0       20.274514    3.488784    3.120083
     50          1           0       22.989655    3.233777    2.432993
     51          1           0       22.063306    4.266478    3.558581
     52          1           0       22.375077    4.862521    1.942368
     53          1           0       18.700769    4.582997    2.300838
     54          1           0       17.954180    3.905569    0.846660
     55          1           0       17.633118    5.814417    0.015406
     56          1           0       19.418629    6.223656   -0.070956
     57          1           0       23.160916   -0.222439    5.534630
     58          1           0       22.173635   -1.455563    6.364657
     59          1           0       21.519895    0.180649    5.866253
     60          1           0       23.061044   -4.900552    6.237788
     61          1           0       21.734306   -3.789653    6.748211
     62          1           0       23.382870   -3.276104    6.369695
     63          1           0       19.550769   -5.638105   -0.021297
     64          1           0       20.561736   -4.905224   -2.741474
     65          1           0       21.704992   -6.602259   -1.513972
     66          1           0       21.707486   -6.977209    0.126372
     67          1           0       22.643608   -5.586848   -0.385153
     68          1           0       17.704052   -4.481522   -1.958464
     69          1           0       18.294762   -6.083478   -1.821876
     70          1           0       17.545820   -4.727533   -4.057233
     71          1           0       17.714993   -6.374184   -3.981360
     72          1           0       19.194679   -5.391324   -4.288332
     73          1           0       18.100537   -1.370514   -5.145901
     74          1           0       19.354776   -0.301498   -5.804885
     75          1           0       17.807303    0.454075   -5.492044
     76          1           0       18.509459    4.033716   -1.682289
     77          1           0       21.460459    6.491355   -3.795216
     78          1           0       21.366821    6.470085   -2.008832
     79          1           0       20.303893    7.594569   -3.005315
     80         12           0      -20.870627   -0.439940   -0.216224
     81          6           0      -18.434996    2.000893    0.545526
     82          6           0      -23.333316    1.742288    0.706382
     83          6           0      -22.986273   -2.967111   -0.303021
     84          6           0      -18.221700   -2.755067   -0.673637
     85          7           0      -20.851911    1.685165    0.432236
     86          6           0      -19.781496    2.424818    0.645059
     87          6           0      -20.217246    3.875822    0.740492
     88          6           0      -21.712738    3.770834    1.230650
     89          6           0      -22.019277    2.294967    0.776746
     90          6           0      -21.839173    4.101848    2.766291
     91          6           0      -20.180263    4.598783   -0.630430
     92          6           0      -20.118113    6.188290   -0.571198
     93          1           0      -20.131515    6.950620    0.756519
     94          7           0      -22.869422   -0.547485   -0.055190
     95          6           0      -23.786748    0.485209    0.267598
     96          6           0      -25.157836   -0.069247    0.179226
     97          6           0      -25.041562   -1.489015   -0.038867
     98          6           0      -23.594632   -1.773571   -0.152956
     99          6           0      -26.392965    0.750865    0.305654
    100          6           0      -26.108468   -2.641551   -0.194735
    101          8           0      -25.827357   -3.814837   -0.474741
    102          6           0      -27.537877   -2.338041    0.149369
    103          7           0      -20.630048   -2.611185   -0.344623
    104          6           0      -21.654306   -3.419428   -0.413854
    105          6           0      -21.315652   -4.867276   -0.633316
    106          6           0      -19.751426   -4.823213   -0.749774
    107          6           0      -19.494973   -3.284335   -0.677376
    108          6           0      -21.951477   -5.768276    0.429432
    109          6           0      -19.190940   -5.414991   -2.036940
    110          6           0      -17.876757   -6.265634   -1.908334
    111          7           0      -18.701018   -0.448180   -0.178940
    112          6           0      -17.769264   -1.473755   -0.432683
    113          6           0      -16.465374   -0.906216   -0.469081
    114          6           0      -16.622978    0.407743    0.076329
    115          6           0      -17.969467    0.647661    0.183490
    116          6           0      -15.234897   -1.571451   -1.015734
    117          6           0      -16.015959    1.714269    0.426983
    118          8           0      -14.851298    2.054586    0.441440
    119          6           0      -17.183275    2.663217    0.978940
    120          6           0      -16.884410    4.096054    0.681026
    121          8           0      -16.753710    4.588936   -0.400479
    122          8           0      -16.665449    4.829325    1.862221
    123          6           0      -15.725098    5.966286    1.769986
    124          1           0      -24.149333    2.306521    1.163619
    125          1           0      -23.607403   -3.844476   -0.491886
    126          1           0      -17.433056   -3.477283   -0.895107
    127          1           0      -19.442548    4.319740    1.365608
    128          1           0      -22.362246    4.457538    0.686766
    129          1           0      -20.858464    4.321684    3.186841
    130          1           0      -22.112419    3.143721    3.208419
    131          1           0      -22.477134    4.954612    2.998793
    132          1           0      -21.114158    4.304983   -1.111360
    133          1           0      -19.336906    4.187810   -1.185248
    134          1           0      -20.961247    6.514637   -1.181970
    135          1           0      -19.220555    6.449166   -1.132467
    136          1           0      -26.312477    1.837278    0.299793
    137          1           0      -26.918066    0.566414    1.242438
    138          1           0      -26.977986    0.469982   -0.570460
    139          1           0      -28.117909   -1.931728   -0.679091
    140          1           0      -27.373705   -1.636191    0.967946
    141          1           0      -27.955970   -3.267962    0.533810
    142          1           0      -21.768199   -5.054564   -1.606998
    143          1           0      -19.232582   -5.319632    0.069347
    144          1           0      -22.155320   -5.262076    1.373497
    145          1           0      -21.203185   -6.531856    0.638113
    146          1           0      -22.882518   -6.224553    0.092443
    147          1           0      -18.971954   -4.634378   -2.765296
    148          1           0      -20.049411   -5.908927   -2.491838
    149          1           0      -17.456626   -6.202015   -0.904715
    150          1           0      -17.183552   -5.796564   -2.606264
    151          1           0      -17.908179   -7.324891   -2.165566
    152          1           0      -15.223940   -2.558495   -0.553179
    153          1           0      -14.299593   -1.067088   -0.772305
    154          1           0      -15.341335   -1.722844   -2.090381
    155          1           0      -17.135235    2.670581    2.067387
    156          1           0      -16.288138    6.879641    1.962568
    157          1           0      -15.221958    6.010884    0.803458
    158          1           0      -14.994463    5.795407    2.560561
 ---------------------------------------------------------------------

 SCF Done:  E(RwB97XD) =  -4070.58455691     A.U. after   19 cycles

 Excitation energies and oscillator strengths:

 Excited State   1:      Singlet-A      1.6220 eV  764.38 nm  f=0.4085  <S**2>=0.000
     309 -> 315        0.16236
     311 -> 313        0.68613
     309 <- 315        0.10569
 This state for optimization and/or second-order correction.
 Total Energy, E(TD-HF/TD-DFT) =  -4070.52494828
 Copying the excited state density for this state as the 1-particle RhoCI density.

 Excited State   2:      Singlet-A      1.7665 eV  701.86 nm  f=0.3730  <S**2>=0.000
     310 -> 316       -0.19122
     312 -> 314        0.67833
     310 <- 316       -0.11016

 Excited State   3:      Singlet-A      2.1197 eV  584.93 nm  f=0.0945  <S**2>=0.000
     310 -> 314        0.63985
     312 -> 316        0.27484

 Excited State   4:      Singlet-A      2.1350 eV  580.73 nm  f=0.1246  <S**2>=0.000
     309 -> 313        0.64276
     311 -> 315       -0.25989

 Excited State   5:      Singlet-A      3.2681 eV  379.37 nm  f=0.0031  <S**2>=0.000
     303 -> 314        0.16826
     305 -> 314        0.15581
     308 -> 314        0.64102
     308 -> 318        0.10638

 The electronic state is 1-A.
 Alpha  occ. eigenvalues --  -46.94873 -46.94281 -19.28468 -19.27346 -19.25424
 Alpha  occ. eigenvalues --  -19.24448 -19.24413 -19.23923 -19.23324 -19.22934
 Alpha  occ. eigenvalues --  -14.47160 -14.46586 -14.46521 -14.46317 -14.44923
 Alpha  occ. eigenvalues --  -14.44440 -14.43114 -14.42563 -10.42363 -10.41863
 Alpha  occ. eigenvalues --  -10.40861 -10.39322 -10.38761 -10.38156 -10.36339
 Alpha  occ. eigenvalues --  -10.35899 -10.35728 -10.35328 -10.35144 -10.35132
 Alpha  occ. eigenvalues --  -10.34957 -10.34901 -10.34721 -10.34712 -10.34651
 Alpha  occ. eigenvalues --  -10.34582 -10.34306 -10.34196 -10.34061 -10.33664
 Alpha  occ. eigenvalues --  -10.33488 -10.33434 -10.33296 -10.33220 -10.32723
 Alpha  occ. eigenvalues --  -10.32283 -10.32281 -10.32257 -10.32173 -10.31986
 Alpha  occ. eigenvalues --  -10.31980 -10.31951 -10.31829 -10.31810 -10.31780
 Alpha  occ. eigenvalues --  -10.31738 -10.31658 -10.31654 -10.31624 -10.31615
 Alpha  occ. eigenvalues --  -10.31587 -10.31397 -10.31392 -10.31347 -10.31144
 Alpha  occ. eigenvalues --  -10.30822 -10.30746 -10.30562 -10.30474 -10.30343
 Alpha  occ. eigenvalues --  -10.30340 -10.30140 -10.30126 -10.30077 -10.29958
 Alpha  occ. eigenvalues --  -10.29917 -10.29850 -10.29774 -10.29719 -10.29717
 Alpha  occ. eigenvalues --  -10.29695 -10.29539 -10.29408 -10.29112 -10.28453
 Alpha  occ. eigenvalues --  -10.28371  -3.20783  -3.20449  -1.94385  -1.94013
 Alpha  occ. eigenvalues --   -1.93906  -1.93744  -1.93587  -1.93443  -1.18850
 Alpha  occ. eigenvalues --   -1.17307  -1.12781  -1.11799  -1.11701  -1.10270
 Alpha  occ. eigenvalues --   -1.09871  -1.09168  -1.07105  -1.06596  -1.06511
 Alpha  occ. eigenvalues --   -1.05420  -1.04039  -1.03657  -1.03078  -1.02680
 Alpha  occ. eigenvalues --   -0.94509  -0.93731  -0.91158  -0.91083  -0.90851
 Alpha  occ. eigenvalues --   -0.90469  -0.90361  -0.89670  -0.89539  -0.89250
 Alpha  occ. eigenvalues --   -0.89180  -0.89106  -0.88633  -0.87315  -0.86121
 Alpha  occ. eigenvalues --   -0.85909  -0.85579  -0.85328  -0.84844  -0.84312
 Alpha  occ. eigenvalues --   -0.83812  -0.83599  -0.82765  -0.82573  -0.82158
 Alpha  occ. eigenvalues --   -0.81800  -0.80745  -0.80619  -0.79297  -0.79083
 Alpha  occ. eigenvalues --   -0.78573  -0.78283  -0.77291  -0.77183  -0.77125
 Alpha  occ. eigenvalues --   -0.77088  -0.75031  -0.74456  -0.73685  -0.73649
 Alpha  occ. eigenvalues --   -0.71747  -0.71323  -0.70604  -0.70570  -0.69861
 Alpha  occ. eigenvalues --   -0.69519  -0.69230  -0.68637  -0.67948  -0.67567
 Alpha  occ. eigenvalues --   -0.67215  -0.67107  -0.66978  -0.66549  -0.65868
 Alpha  occ. eigenvalues --   -0.65440  -0.63016  -0.62809  -0.62267  -0.62192
 Alpha  occ. eigenvalues --   -0.61315  -0.61086  -0.60973  -0.60572  -0.60402
 Alpha  occ. eigenvalues --   -0.60221  -0.60015  -0.59624  -0.59534  -0.58772
 Alpha  occ. eigenvalues --   -0.58485  -0.58465  -0.57467  -0.57400  -0.57220
 Alpha  occ. eigenvalues --   -0.57014  -0.56150  -0.55823  -0.55675  -0.55543
 Alpha  occ. eigenvalues --   -0.55221  -0.55133  -0.55057  -0.54898  -0.54754
 Alpha  occ. eigenvalues --   -0.54563  -0.54226  -0.54136  -0.54053  -0.53923
 Alpha  occ. eigenvalues --   -0.53669  -0.53482  -0.53273  -0.53239  -0.53161
 Alpha  occ. eigenvalues --   -0.53061  -0.52859  -0.52639  -0.52470  -0.52447
 Alpha  occ. eigenvalues --   -0.52105  -0.52067  -0.51937  -0.51928  -0.51657
 Alpha  occ. eigenvalues --   -0.51546  -0.51178  -0.50904  -0.50834  -0.50638
 Alpha  occ. eigenvalues --   -0.50536  -0.50430  -0.50243  -0.49973  -0.49940
 Alpha  occ. eigenvalues --   -0.49908  -0.49751  -0.49473  -0.49225  -0.49196
 Alpha  occ. eigenvalues --   -0.48930  -0.48924  -0.48735  -0.48551  -0.48437
 Alpha  occ. eigenvalues --   -0.48369  -0.48081  -0.48030  -0.47884  -0.47494
 Alpha  occ. eigenvalues --   -0.47343  -0.47302  -0.47180  -0.46951  -0.46856
 Alpha  occ. eigenvalues --   -0.46758  -0.46592  -0.46159  -0.46051  -0.45884
 Alpha  occ. eigenvalues --   -0.45642  -0.45590  -0.45445  -0.45320  -0.45253
 Alpha  occ. eigenvalues --   -0.45012  -0.44971  -0.44828  -0.44710  -0.44531
 Alpha  occ. eigenvalues --   -0.44516  -0.44208  -0.43947  -0.43935  -0.43611
 Alpha  occ. eigenvalues --   -0.43591  -0.43457  -0.43282  -0.43262  -0.43058
 Alpha  occ. eigenvalues --   -0.43040  -0.42899  -0.42880  -0.42554  -0.42021
 Alpha  occ. eigenvalues --   -0.42020  -0.41889  -0.41796  -0.40982  -0.40968
 Alpha  occ. eigenvalues --   -0.40687  -0.40590  -0.39760  -0.39711  -0.39596
 Alpha  occ. eigenvalues --   -0.39582  -0.39214  -0.38374  -0.37997  -0.37671
 Alpha  occ. eigenvalues --   -0.37345  -0.36839  -0.36408  -0.36214  -0.36024
 Alpha  occ. eigenvalues --   -0.35780  -0.35366  -0.35208  -0.33920  -0.33641
 Alpha  occ. eigenvalues --   -0.33484  -0.33408  -0.32508  -0.32174  -0.32026
 Alpha  occ. eigenvalues --   -0.31806  -0.31345  -0.30387  -0.26280  -0.25663
 Alpha  occ. eigenvalues --   -0.23244  -0.23152
 Alpha virt. eigenvalues --   -0.07612  -0.06814  -0.00205  -0.00093   0.01818
 Alpha virt. eigenvalues --    0.01889   0.04338   0.04886   0.05281   0.06039
 Alpha virt. eigenvalues --    0.06990   0.07577   0.07938   0.08113   0.08596

 Mulliken charges:
               1
     1  Mg   0.967304
     2  C    0.011722
     3  C   -0.103205
     4  C   -0.069819
     5  C   -0.098388
     6  N   -0.364197
     7  C   -0.034122
     8  C   -0.002733
     9  C   -0.138110
    10  C    0.093013
    11  C    0.019364
    12  C   -0.009237
    13  C   -0.148501
    14  H    0.036431
    15  N   -0.481748
    16  C    0.200789
    17  C   -0.180100
    18  C   -0.027847
    19  C    0.193734
    20  C    0.079820
    21  C    0.021717
    22  O   -0.252898
    23  C   -0.034303
    24  N   -0.410814
    25  C    0.038759
    26  C   -0.045309
    27  C   -0.088378
    28  C    0.134012
    29  C   -0.000902
    30  C   -0.040885
    31  C   -0.058088
    32  N   -0.418716
    33  C    0.119632
    34  C   -0.179151
    35  C   -0.042491
    36  C    0.138616
    37  C    0.103181
    38  C    0.092984
    39  O   -0.217613
    40  C   -0.114273
    41  C    0.257064
    42  O   -0.187503
    43  O   -0.389611
    44  C    0.148330
    45  H   -0.010858
    46  H    0.025938
    47  H   -0.021869
    48  H    0.032293
    49  H    0.032497
    50  H    0.050088
    51  H    0.027193
    52  H    0.046195
    53  H    0.042874
    54  H    0.040710
    55  H    0.074301
    56  H    0.060361
    57  H    0.058474
    58  H    0.036749
    59  H    0.054109
    60  H    0.050743
    61  H    0.073275
    62  H    0.053547
    63  H    0.052020
    64  H    0.039582
    65  H    0.033955
    66  H    0.046030
    67  H    0.057322
    68  H    0.033738
    69  H    0.029689
    70  H    0.026249
    71  H    0.038832
    72  H    0.035078
    73  H    0.041521
    74  H    0.054354
    75  H    0.067192
    76  H    0.052295
    77  H    0.050813
    78  H    0.036997
    79  H    0.060181
    80  Mg   0.949695
    81  C    0.045669
    82  C   -0.095176
    83  C   -0.065657
    84  C   -0.086052
    85  N   -0.314017
    86  C    0.001001
    87  C   -0.120552
    88  C   -0.103263
    89  C    0.089443
    90  C    0.035015
    91  C   -0.006357
    92  C   -0.094843
    93  H    0.041411
    94  N   -0.554604
    95  C    0.176125
    96  C   -0.150986
    97  C   -0.082834
    98  C    0.208197
    99  C    0.035156
   100  C    0.081987
   101  O   -0.237298
   102  C   -0.013106
   103  N   -0.304562
   104  C   -0.029777
   105  C   -0.047676
   106  C   -0.103734
   107  C    0.058323
   108  C    0.030159
   109  C   -0.003904
   110  C   -0.057102
   111  N   -0.438383
   112  C    0.134180
   113  C   -0.193302
   114  C   -0.035316
   115  C    0.077483
   116  C    0.080568
   117  C    0.135344
   118  O   -0.202621
   119  C   -0.093221
   120  C    0.220937
   121  O   -0.208191
   122  O   -0.410343
   123  C    0.136774
   124  H    0.001450
   125  H    0.012945
   126  H   -0.022040
   127  H    0.032036
   128  H    0.036204
   129  H    0.038413
   130  H    0.032939
   131  H    0.048370
   132  H    0.023416
   133  H    0.054525
   134  H    0.041804
   135  H    0.065424
   136  H    0.042987
   137  H    0.065248
   138  H    0.060749
   139  H    0.080017
   140  H    0.041535
   141  H    0.065167
   142  H    0.042250
   143  H    0.040161
   144  H    0.046658
   145  H    0.033103
   146  H    0.056294
   147  H    0.030839
   148  H    0.022376
   149  H    0.035942
   150  H    0.038533
   151  H    0.045669
   152  H    0.035901
   153  H    0.058408
   154  H    0.050958
   155  H    0.080228
   156  H    0.051956
   157  H    0.069268
   158  H    0.055678
 Sum of Mulliken charges =  -0.00000

 Dipole moment (field-independent basis, Debye):
    X=             -6.4012    Y=             -2.6285    Z=              6.1924  Tot=              9.2860
 Quadrupole moment (field-independent basis, Debye-Ang):
   XX=           -294.2424   YY=           -484.0561   ZZ=           -498.5916
   XY=            -16.9482   XZ=             95.4633   YZ=             44.6540

 Normal termination of Gaussian 16 at Mon Sep 20 12:47:32 2021.
