 Gaussian 16, Revision A.03,
 Gaussian 16:  ES64L-G16RevA.03 25-Dec-2016

 --------------------------------
 #p wB97XD/Def2SVP td=(nstates=5)
 --------------------------------

 --------------------------------
 TDDFT excited states in gaussian
 --------------------------------
 Symbolic Z-matrix:
 Charge =  0 Multiplicity = 1

                         Standard orientation:
 ---------------------------------------------------------------------
 Center     Atomic      Atomic             Coordinates (Angstroms)
 Number     Number       Type             X           Y           Z
 ---------------------------------------------------------------------
      1         12           0      -21.824975   -0.673899   -0.142375
      2          6           0      -23.652396    2.136451    0.774042
      3          6           0      -20.181626    1.164024   -2.438231
      4          6           0      -20.644794   -3.520937   -1.535458
      5          6           0      -24.133445   -2.666066    1.662060
      6          7           0      -21.912363    1.397773   -0.621907
      7          6           0      -22.593413    2.455739   -0.060298
      8          6           0      -22.232509    3.781519   -0.785245
      9          6           0      -21.577364    3.242811   -2.094348
     10          6           0      -21.088964    1.867873   -1.662658
     11          6           0      -22.554430    3.122072   -3.316380
     12          6           0      -21.450109    4.662445    0.205925
     13          6           0      -21.836311    6.092411    0.185956
     14          1           0      -21.469161    6.847223    1.382440
     15          7           0      -20.425533   -1.065551   -1.604693
     16          6           0      -19.818885   -0.144567   -2.397318
     17          6           0      -18.691294   -0.770199   -3.041212
     18          6           0      -18.828632   -2.178519   -2.765699
     19          6           0      -20.068270   -2.314633   -1.995347
     20          6           0      -17.728163   -0.041895   -3.908604
     21          6           0      -18.014773   -3.412619   -3.274776
     22          8           0      -18.265926   -4.568544   -2.928011
     23          6           0      -16.778318   -3.239434   -4.111887
     24          7           0      -22.581484   -2.780697   -0.193004
     25          6           0      -21.771270   -3.794907   -0.772589
     26          6           0      -22.208335   -5.178213   -0.420109
     27          6           0      -23.166667   -4.819830    0.761881
     28          6           0      -23.256789   -3.296474    0.796493
     29          6           0      -22.872463   -5.963483   -1.601434
     30          6           0      -22.670771   -5.357299    2.153916
     31          6           0      -21.210060   -5.000794    2.530219
     32          7           0      -23.477842   -0.370734    1.077218
     33          6           0      -24.287670   -1.271905    1.785585
     34          6           0      -25.246973   -0.494394    2.476555
     35          6           0      -25.004410    0.827326    2.123775
     36          6           0      -23.944885    0.837583    1.277710
     37          6           0      -26.267195   -1.023829    3.433373
     38          6           0      -25.496528    2.116911    2.264806
     39          8           0      -26.475755    2.522889    2.916835
     40          6           0      -24.656785    3.112934    1.409476
     41          6           0      -24.084167    4.105357    2.469085
     42          8           0      -23.228412    3.829023    3.328512
     43          8           0      -24.701770    5.337225    2.281867
     44          6           0      -24.515487    6.392013    3.328420
     45          1           0      -19.790377    1.838382   -3.202936
     46          1           0      -20.300917   -4.532808   -1.762938
     47          1           0      -24.735793   -3.206385    2.395409
     48          1           0      -23.132726    4.363933   -0.978564
     49          1           0      -20.702177    3.847705   -2.329667
     50          1           0      -23.566978    3.495703   -3.161250
     51          1           0      -22.739246    2.075703   -3.556013
     52          1           0      -22.154612    3.710880   -4.141687
     53          1           0      -20.419748    4.652055   -0.146769
     54          1           0      -21.563182    4.223629    1.197636
     55          1           0      -22.925511    6.100578    0.141783
     56          1           0      -21.467747    6.536683   -0.738434
     57          1           0      -17.759799    1.032001   -3.725619
     58          1           0      -17.852978   -0.401375   -4.930577
     59          1           0      -16.712455   -0.322790   -3.629932
     60          1           0      -16.692663   -4.176324   -4.662813
     61          1           0      -15.893985   -3.139893   -3.482064
     62          1           0      -16.880088   -2.424865   -4.829650
     63          1           0      -21.408518   -5.808421   -0.028704
     64          1           0      -24.153875   -5.230307    0.547242
     65          1           0      -23.221307   -5.249406   -2.347913
     66          1           0      -23.730344   -6.589024   -1.354273
     67          1           0      -22.224834   -6.658988   -2.136019
     68          1           0      -22.868785   -6.429255    2.144240
     69          1           0      -23.397219   -4.944444    2.853781
     70          1           0      -21.142664   -4.427382    3.454965
     71          1           0      -20.800474   -4.438804    1.690408
     72          1           0      -20.586340   -5.882343    2.675301
     73          1           0      -27.230924   -0.685215    3.053129
     74          1           0      -26.024234   -0.637785    4.423331
     75          1           0      -26.347077   -2.109972    3.479916
     76          1           0      -25.337782    3.652943    0.752188
     77          1           0      -24.914788    5.973343    4.251925
     78          1           0      -24.997142    7.356482    3.167756
     79          1           0      -23.426947    6.427637    3.283802
     80         12           0       21.862175   -0.547897    0.543236
     81          6           0       21.301334    2.380482   -1.446654
     82          6           0       22.466178    1.383182    3.129294
     83          6           0       23.110295   -3.273284    1.957058
     84          6           0       21.509588   -2.436041   -2.593535
     85          7           0       21.831441    1.635399    0.805078
     86          6           0       21.613403    2.668736   -0.127777
     87          6           0       21.726497    4.114834    0.487158
     88          6           0       22.052636    3.678272    2.044295
     89          6           0       22.114929    2.154097    2.040649
     90          6           0       23.419529    4.294695    2.569732
     91          6           0       20.478160    5.042759    0.285738
     92          6           0       20.401341    6.258186    1.201974
     93          1           0       20.540352    7.613557    0.484879
     94          7           0       22.587356   -0.908734    2.346938
     95          6           0       22.771435   -0.007618    3.369200
     96          6           0       23.275203   -0.634084    4.573193
     97          6           0       23.444256   -2.024863    4.195334
     98          6           0       22.959717   -2.118738    2.772165
     99          6           0       23.480263    0.000140    5.867831
    100          6           0       23.934691   -3.206284    5.014234
    101          8           0       23.922115   -4.342018    4.629960
    102          6           0       24.536542   -2.842640    6.345582
    103          7           0       22.316110   -2.563681   -0.231803
    104          6           0       22.805115   -3.507271    0.611769
    105          6           0       22.911666   -4.884286   -0.096460
    106          6           0       22.264931   -4.592708   -1.495120
    107          6           0       21.956042   -3.109039   -1.437664
    108          6           0       24.326483   -5.546237   -0.217757
    109          6           0       20.970808   -5.409813   -1.842691
    110          6           0       21.262499   -6.864765   -2.271917
    111          7           0       21.515485   -0.193350   -1.567422
    112          6           0       21.327375   -1.018620   -2.652110
    113          6           0       20.948594   -0.237583   -3.761744
    114          6           0       20.970455    1.057625   -3.401882
    115          6           0       21.349279    1.084953   -2.025457
    116          6           0       20.533159   -0.884009   -5.076841
    117          6           0       20.835749    2.466331   -3.786175
    118          8           0       20.573661    2.966121   -4.849722
    119          6           0       21.079474    3.376937   -2.489910
    120          6           0       22.364955    4.111562   -2.700220
    121          8           0       23.514305    3.807797   -2.472720
    122          8           0       21.986415    5.338686   -3.207664
    123          6           0       23.068130    6.308689   -3.501320
    124          1           0       22.735345    1.941019    4.028508
    125          1           0       23.665366   -4.088308    2.427728
    126          1           0       21.334511   -3.148420   -3.403073
    127          1           0       22.641193    4.566189    0.102472
    128          1           0       21.262243    4.083037    2.676822
    129          1           0       23.275888    4.683588    3.577696
    130          1           0       23.923719    5.052818    1.971041
    131          1           0       24.151546    3.504061    2.731616
    132          1           0       19.681124    4.309699    0.416711
    133          1           0       20.265490    5.416408   -0.716130
    134          1           0       21.193919    6.191977    1.946788
    135          1           0       19.394253    6.319720    1.613462
    136          1           0       22.727295   -0.535173    6.446217
    137          1           0       23.332797    1.078434    5.805613
    138          1           0       24.438589   -0.148785    6.364946
    139          1           0       23.769597   -2.908317    7.117205
    140          1           0       25.255402   -2.024522    6.292052
    141          1           0       25.342152   -3.568602    6.451791
    142          1           0       22.142502   -5.499789    0.371015
    143          1           0       23.036782   -4.659684   -2.262162
    144          1           0       24.676090   -5.757753   -1.228685
    145          1           0       24.209149   -6.544857    0.202476
    146          1           0       25.139468   -5.003547    0.264562
    147          1           0       20.456936   -4.931825   -2.675943
    148          1           0       20.345312   -5.333508   -0.952202
    149          1           0       22.291009   -6.959736   -2.620667
    150          1           0       20.522589   -7.102069   -3.036234
    151          1           0       21.192555   -7.591989   -1.462443
    152          1           0       19.851637   -0.241217   -5.634128
    153          1           0       20.089609   -1.856714   -4.863972
    154          1           0       21.412748   -1.140905   -5.667535
    155          1           0       20.242619    4.051504   -2.307431
    156          1           0       22.779588    6.791208   -4.435056
    157          1           0       24.055881    5.860864   -3.609391
    158          1           0       22.963097    6.955264   -2.629556
 ---------------------------------------------------------------------

 SCF Done:  E(RwB97XD) =  -4070.62368430     A.U. after   19 cycles

 Excitation energies and oscillator strengths:

 Excited State   1:      Singlet-A      1.6038 eV  773.07 nm  f=0.3732  <S**2>=0.000
     309 -> 315        0.16813
     311 -> 313        0.68662
     309 <- 315        0.11352
 This state for optimization and/or second-order correction.
 Total Energy, E(TD-HF/TD-DFT) =  -4070.56474583
 Copying the excited state density for this state as the 1-particle RhoCI density.

 Excited State   2:      Singlet-A      1.6367 eV  757.52 nm  f=0.4003  <S**2>=0.000
     310 -> 316        0.18393
     312 -> 314        0.68411
     310 <- 316        0.11741

 Excited State   3:      Singlet-A      2.1545 eV  575.46 nm  f=0.1312  <S**2>=0.000
     310 -> 314        0.64880
     312 -> 316       -0.26857

 Excited State   4:      Singlet-A      2.1619 eV  573.50 nm  f=0.1282  <S**2>=0.000
     309 -> 313        0.64145
     311 -> 315       -0.27554

 Excited State   5:      Singlet-A      3.2511 eV  381.37 nm  f=0.0002  <S**2>=0.000
     305 -> 313       -0.18423
     305 -> 317        0.10956
     305 -> 319       -0.12671
     307 -> 313        0.55407
     308 -> 313       -0.31557

 The electronic state is 1-A.
 Alpha  occ. eigenvalues --  -46.94917 -46.94673 -19.29993 -19.29099 -19.24987
 Alpha  occ. eigenvalues --  -19.24861 -19.24181 -19.23981 -19.23741 -19.22758
 Alpha  occ. eigenvalues --  -14.46836 -14.46563 -14.46077 -14.45914 -14.44228
 Alpha  occ. eigenvalues --  -14.43921 -14.43464 -14.43113 -10.43946 -10.42830
 Alpha  occ. eigenvalues --  -10.39315 -10.39239 -10.38736 -10.37673 -10.35733
 Alpha  occ. eigenvalues --  -10.35016 -10.34979 -10.34951 -10.34900 -10.34560
 Alpha  occ. eigenvalues --  -10.34396 -10.34340 -10.34253 -10.34235 -10.34219
 Alpha  occ. eigenvalues --  -10.34153 -10.34123 -10.33372 -10.33370 -10.33164
 Alpha  occ. eigenvalues --  -10.33123 -10.32990 -10.32960 -10.32921 -10.32529
 Alpha  occ. eigenvalues --  -10.32408 -10.32345 -10.32341 -10.32211 -10.31977
 Alpha  occ. eigenvalues --  -10.31822 -10.31818 -10.31805 -10.31710 -10.31607
 Alpha  occ. eigenvalues --  -10.31593 -10.31251 -10.31159 -10.31059 -10.31057
 Alpha  occ. eigenvalues --  -10.30938 -10.30914 -10.30901 -10.30871 -10.30865
 Alpha  occ. eigenvalues --  -10.30860 -10.30799 -10.30790 -10.30663 -10.30530
 Alpha  occ. eigenvalues --  -10.30334 -10.30248 -10.30051 -10.29967 -10.29785
 Alpha  occ. eigenvalues --  -10.29743 -10.29691 -10.29673 -10.29641 -10.29610
 Alpha  occ. eigenvalues --  -10.29603 -10.29494 -10.29403 -10.29393 -10.28763
 Alpha  occ. eigenvalues --  -10.27820  -3.20906  -3.20701  -1.94492  -1.94270
 Alpha  occ. eigenvalues --   -1.94008  -1.93896  -1.93830  -1.93676  -1.17870
 Alpha  occ. eigenvalues --   -1.16602  -1.13597  -1.13061  -1.11663  -1.10194
 Alpha  occ. eigenvalues --   -1.09676  -1.08871  -1.06862  -1.05925  -1.05834
 Alpha  occ. eigenvalues --   -1.05525  -1.05353  -1.04512  -1.04237  -1.03628
 Alpha  occ. eigenvalues --   -0.95015  -0.94550  -0.91019  -0.90919  -0.90841
 Alpha  occ. eigenvalues --   -0.90457  -0.90153  -0.89983  -0.89709  -0.89111
 Alpha  occ. eigenvalues --   -0.89078  -0.88776  -0.88474  -0.87988  -0.86492
 Alpha  occ. eigenvalues --   -0.85835  -0.85446  -0.85097  -0.84082  -0.84058
 Alpha  occ. eigenvalues --   -0.83975  -0.83520  -0.82940  -0.82674  -0.82350
 Alpha  occ. eigenvalues --   -0.82053  -0.80152  -0.80093  -0.78988  -0.78897
 Alpha  occ. eigenvalues --   -0.78860  -0.78581  -0.77961  -0.77486  -0.77393
 Alpha  occ. eigenvalues --   -0.76773  -0.75243  -0.74774  -0.74003  -0.73292
 Alpha  occ. eigenvalues --   -0.71707  -0.71582  -0.70750  -0.70681  -0.69740
 Alpha  occ. eigenvalues --   -0.69520  -0.68979  -0.68488  -0.67329  -0.67021
 Alpha  occ. eigenvalues --   -0.66590  -0.66581  -0.66454  -0.66369  -0.66043
 Alpha  occ. eigenvalues --   -0.65909  -0.63598  -0.63480  -0.62086  -0.61875
 Alpha  occ. eigenvalues --   -0.61759  -0.61481  -0.61135  -0.60821  -0.60436
 Alpha  occ. eigenvalues --   -0.60276  -0.59842  -0.59562  -0.58964  -0.58915
 Alpha  occ. eigenvalues --   -0.58109  -0.57946  -0.57682  -0.57565  -0.57268
 Alpha  occ. eigenvalues --   -0.57001  -0.56972  -0.56726  -0.56387  -0.56212
 Alpha  occ. eigenvalues --   -0.56071  -0.55624  -0.55441  -0.54966  -0.54896
 Alpha  occ. eigenvalues --   -0.54769  -0.54633  -0.54381  -0.54321  -0.53910
 Alpha  occ. eigenvalues --   -0.53856  -0.53635  -0.53573  -0.53396  -0.53299
 Alpha  occ. eigenvalues --   -0.52951  -0.52465  -0.52420  -0.52276  -0.52113
 Alpha  occ. eigenvalues --   -0.51740  -0.51629  -0.51559  -0.51431  -0.51337
 Alpha  occ. eigenvalues --   -0.51096  -0.51078  -0.50819  -0.50780  -0.50686
 Alpha  occ. eigenvalues --   -0.50451  -0.50358  -0.50028  -0.49930  -0.49905
 Alpha  occ. eigenvalues --   -0.49755  -0.49676  -0.49638  -0.49323  -0.49003
 Alpha  occ. eigenvalues --   -0.48980  -0.48690  -0.48518  -0.48300  -0.48206
 Alpha  occ. eigenvalues --   -0.47891  -0.47842  -0.47682  -0.47645  -0.47393
 Alpha  occ. eigenvalues --   -0.47372  -0.47233  -0.47131  -0.46978  -0.46797
 Alpha  occ. eigenvalues --   -0.46668  -0.46546  -0.46406  -0.46077  -0.45975
 Alpha  occ. eigenvalues --   -0.45793  -0.45684  -0.45474  -0.45381  -0.45377
 Alpha  occ. eigenvalues --   -0.45118  -0.45116  -0.45002  -0.44692  -0.44599
 Alpha  occ. eigenvalues --   -0.44493  -0.44302  -0.44010  -0.43859  -0.43811
 Alpha  occ. eigenvalues --   -0.43754  -0.43597  -0.43510  -0.43063  -0.43057
 Alpha  occ. eigenvalues --   -0.42825  -0.42809  -0.42710  -0.42608  -0.42408
 Alpha  occ. eigenvalues --   -0.42156  -0.41865  -0.41237  -0.41056  -0.40721
 Alpha  occ. eigenvalues --   -0.40182  -0.40004  -0.39969  -0.39690  -0.39287
 Alpha  occ. eigenvalues --   -0.39010  -0.38889  -0.38541  -0.38527  -0.38472
 Alpha  occ. eigenvalues --   -0.38085  -0.37751  -0.36583  -0.36167  -0.36104
 Alpha  occ. eigenvalues --   -0.35944  -0.35470  -0.34886  -0.33538  -0.33491
 Alpha  occ. eigenvalues --   -0.32849  -0.32736  -0.32590  -0.32307  -0.32049
 Alpha  occ. eigenvalues --   -0.31939  -0.31915  -0.31538  -0.26159  -0.25517
 Alpha  occ. eigenvalues --   -0.23000  -0.22779
 Alpha virt. eigenvalues --   -0.07355  -0.06907   0.00432   0.00784   0.02605
 Alpha virt. eigenvalues --    0.02923   0.04464   0.04710   0.05400   0.05638
 Alpha virt. eigenvalues --    0.07134   0.07426   0.07478   0.08125   0.08806

 Mulliken charges:
               1
     1  Mg   0.955841
     2  C   -0.066657
     3  C   -0.119125
     4  C   -0.020954
     5  C   -0.102735
     6  N   -0.406803
     7  C    0.019958
     8  C   -0.101628
     9  C   -0.087802
    10  C    0.034014
    11  C    0.034853
    12  C    0.039885
    13  C   -0.123674
    14  H    0.052808
    15  N   -0.463869
    16  C    0.229655
    17  C   -0.175646
    18  C   -0.078341
    19  C    0.188198
    20  C    0.069334
    21  C    0.055843
    22  O   -0.248555
    23  C   -0.006266
    24  N   -0.316601
    25  C   -0.057195
    26  C   -0.058259
    27  C   -0.099745
    28  C    0.111927
    29  C    0.018226
    30  C   -0.021929
    31  C   -0.053816
    32  N   -0.434923
    33  C    0.116870
    34  C   -0.197868
    35  C    0.053994
    36  C    0.194151
    37  C    0.092948
    38  C    0.016707
    39  O   -0.242787
    40  C   -0.028816
    41  C    0.287607
    42  O   -0.268786
    43  O   -0.389782
    44  C    0.142348
    45  H   -0.000936
    46  H    0.018618
    47  H    0.002545
    48  H    0.020124
    49  H    0.019449
    50  H    0.035616
    51  H    0.053073
    52  H    0.043486
    53  H    0.021631
    54  H    0.065539
    55  H    0.039955
    56  H    0.040163
    57  H    0.041093
    58  H    0.067690
    59  H    0.043095
    60  H    0.054720
    61  H    0.075064
    62  H    0.027213
    63  H    0.045819
    64  H    0.030935
    65  H    0.039603
    66  H    0.032775
    67  H    0.042663
    68  H    0.031245
    69  H    0.022886
    70  H    0.046431
    71  H    0.045739
    72  H    0.042266
    73  H    0.058146
    74  H    0.067994
    75  H    0.019624
    76  H    0.066945
    77  H    0.068299
    78  H    0.069552
    79  H    0.058332
    80  Mg   0.977057
    81  C   -0.038792
    82  C   -0.071930
    83  C   -0.068495
    84  C   -0.096381
    85  N   -0.383305
    86  C   -0.009691
    87  C   -0.027037
    88  C   -0.121338
    89  C    0.109337
    90  C   -0.013741
    91  C   -0.019342
    92  C   -0.123095
    93  H    0.029465
    94  N   -0.491409
    95  C    0.111713
    96  C   -0.136030
    97  C   -0.128153
    98  C    0.164635
    99  C    0.081535
   100  C    0.041221
   101  O   -0.208212
   102  C   -0.027543
   103  N   -0.338888
   104  C    0.031218
   105  C   -0.031778
   106  C   -0.109720
   107  C    0.026849
   108  C    0.019866
   109  C   -0.035711
   110  C   -0.029324
   111  N   -0.401408
   112  C    0.165363
   113  C   -0.241975
   114  C    0.013990
   115  C    0.138279
   116  C    0.096230
   117  C    0.119906
   118  O   -0.173101
   119  C   -0.118090
   120  C    0.285107
   121  O   -0.233249
   122  O   -0.386742
   123  C    0.128192
   124  H   -0.028679
   125  H    0.025170
   126  H    0.001861
   127  H    0.050910
   128  H    0.047803
   129  H    0.031114
   130  H    0.050480
   131  H    0.042806
   132  H    0.033673
   133  H    0.059743
   134  H    0.061117
   135  H    0.063927
   136  H    0.057847
   137  H    0.039865
   138  H    0.047130
   139  H    0.079751
   140  H    0.047393
   141  H    0.039953
   142  H    0.038811
   143  H    0.032541
   144  H    0.032692
   145  H    0.039127
   146  H    0.051692
   147  H    0.028437
   148  H    0.032721
   149  H    0.031906
   150  H    0.042761
   151  H    0.037475
   152  H    0.058682
   153  H    0.027622
   154  H    0.045778
   155  H    0.080963
   156  H    0.063682
   157  H    0.072774
   158  H    0.054984
 Sum of Mulliken charges =  -0.00000

 Dipole moment (field-independent basis, Debye):
    X=              1.8459    Y=              1.1335    Z=              0.8197  Tot=              2.3160
 Quadrupole moment (field-independent basis, Debye-Ang):
   XX=           -631.7129   YY=           -470.9776   ZZ=           -504.7160
   XY=             21.2671   XZ=            138.1944   YZ=              9.8902

 Normal termination of Gaussian 16 at Sun Sep 19 08:56:23 2021.
