 Gaussian 16, Revision A.03,
 Gaussian 16:  ES64L-G16RevA.03 25-Dec-2016

 --------------------------------
 #p wB97XD/Def2SVP td=(nstates=5)
 --------------------------------

 --------------------------------
 TDDFT excited states in gaussian
 --------------------------------
 Symbolic Z-matrix:
 Charge =  0 Multiplicity = 1

                         Standard orientation:
 ---------------------------------------------------------------------
 Center     Atomic      Atomic             Coordinates (Angstroms)
 Number     Number       Type             X           Y           Z
 ---------------------------------------------------------------------
      1         12           0      -28.116334    0.432731    0.136928
      2          6           0      -25.227702   -1.548043    0.379045
      3          6           0      -26.117981    3.179693    0.081142
      4          6           0      -30.847640    2.105274   -0.525613
      5          6           0      -29.816111   -2.648493   -0.626760
      6          7           0      -25.959131    0.742158    0.288947
      7          6           0      -24.966288   -0.193824    0.359897
      8          6           0      -23.624823    0.509287    0.104059
      9          6           0      -23.922053    1.929647    0.571951
     10          6           0      -25.416302    1.972649    0.198710
     11          6           0      -23.705267    2.120818    2.090863
     12          6           0      -23.226195    0.450675   -1.416971
     13          6           0      -21.935284   -0.410238   -1.835985
     14          1           0      -22.109859   -1.600526   -2.794530
     15          7           0      -28.435098    2.366117   -0.236169
     16          6           0      -27.484552    3.359994   -0.191612
     17          6           0      -28.149941    4.618512   -0.321326
     18          6           0      -29.565743    4.398515   -0.383680
     19          6           0      -29.695185    2.912495   -0.391958
     20          6           0      -27.396369    5.992439   -0.340269
     21          6           0      -30.652125    5.534189   -0.408321
     22          8           0      -30.327735    6.674412   -0.278856
     23          6           0      -32.054833    5.149922   -0.308027
     24          7           0      -29.988820   -0.169089   -0.799396
     25          6           0      -30.996877    0.706243   -0.572234
     26          6           0      -32.353506    0.035418   -0.436298
     27          6           0      -32.069779   -1.404278   -0.836790
     28          6           0      -30.503591   -1.431662   -0.760961
     29          6           0      -32.948289    0.142206    1.016525
     30          6           0      -32.621879   -1.959539   -2.233223
     31          6           0      -33.760309   -2.941426   -2.307012
     32          7           0      -27.719466   -1.659589    0.112407
     33          6           0      -28.491018   -2.783384   -0.210165
     34          6           0      -27.706385   -3.998523   -0.172647
     35          6           0      -26.432640   -3.553242    0.082450
     36          6           0      -26.442413   -2.127076    0.229954
     37          6           0      -28.213035   -5.353107   -0.447097
     38          6           0      -25.057209   -3.989939    0.267339
     39          8           0      -24.594017   -5.136097    0.317444
     40          6           0      -24.253795   -2.742853    0.570848
     41          6           0      -23.677061   -2.906544    1.972857
     42          8           0      -24.413356   -3.081347    2.941100
     43          8           0      -22.274725   -2.960999    1.951995
     44          6           0      -21.663980   -3.149164    3.240755
     45          1           0      -25.463070    4.041420    0.223781
     46          1           0      -31.756649    2.699167   -0.418518
     47          1           0      -30.362005   -3.586460   -0.749580
     48          1           0      -22.862727   -0.073816    0.621679
     49          1           0      -23.292845    2.611195    0.000867
     50          1           0      -23.087500    3.017417    2.054033
     51          1           0      -23.168013    1.226154    2.406814
     52          1           0      -24.597256    2.254553    2.703003
     53          1           0      -22.999033    1.469881   -1.729329
     54          1           0      -24.112378    0.156473   -1.978751
     55          1           0      -21.581221   -0.862630   -0.909348
     56          1           0      -21.100590    0.177617   -2.215971
     57          1           0      -27.632129    6.694272   -1.139640
     58          1           0      -26.336985    5.743078   -0.408722
     59          1           0      -27.526208    6.555977    0.583846
     60          1           0      -32.396479    4.482508   -1.099488
     61          1           0      -32.660441    6.056001   -0.325036
     62          1           0      -32.277071    4.802182    0.699896
     63          1           0      -33.117100    0.504340   -1.057791
     64          1           0      -32.408859   -2.086733   -0.057426
     65          1           0      -33.679904    0.942638    1.125417
     66          1           0      -32.135155    0.164868    1.742044
     67          1           0      -33.485701   -0.787527    1.208746
     68          1           0      -31.896192   -2.258265   -2.988923
     69          1           0      -33.004724   -0.998505   -2.577685
     70          1           0      -34.661055   -2.529429   -2.760904
     71          1           0      -34.027736   -3.265753   -1.301040
     72          1           0      -33.362673   -3.770115   -2.892448
     73          1           0      -29.088366   -5.255502   -1.089832
     74          1           0      -28.548130   -5.738553    0.516256
     75          1           0      -27.429389   -6.000386   -0.838170
     76          1           0      -23.454410   -2.794713   -0.167097
     77          1           0      -21.636705   -2.255721    3.865119
     78          1           0      -20.635160   -3.496315    3.149519
     79          1           0      -22.134983   -3.917266    3.853570
     80         12           0       28.212792    0.233483    0.327793
     81          6           0       24.790871   -0.448162   -0.140456
     82          6           0       28.803733   -3.061097   -0.615787
     83          6           0       31.482457    0.866077    0.301734
     84          6           0       27.426272    3.613534    0.321964
     85          7           0       26.884399   -1.478101   -0.462905
     86          6           0       25.509155   -1.606905   -0.460971
     87          6           0       24.989471   -3.025125   -0.568752
     88          6           0       26.281466   -3.866750   -0.697786
     89          6           0       27.404801   -2.782405   -0.608102
     90          6           0       26.434479   -4.999703    0.396545
     91          6           0       23.991105   -3.327608   -1.773704
     92          6           0       24.170896   -2.530877   -3.076202
     93          1           0       24.830076   -3.244242   -4.293645
     94          7           0       29.866954   -0.917180   -0.081379
     95          6           0       29.912237   -2.247357   -0.388474
     96          6           0       31.309272   -2.698896   -0.454687
     97          6           0       32.118380   -1.553431   -0.182721
     98          6           0       31.131853   -0.448286    0.019715
     99          6           0       31.718405   -4.138765   -0.741321
    100          6           0       33.684537   -1.681255   -0.277241
    101          8           0       34.151606   -2.759125   -0.617970
    102          6           0       34.606712   -0.414961   -0.025971
    103          7           0       29.266761    1.965509    0.187730
    104          6           0       30.648842    1.999818    0.358365
    105          6           0       31.174868    3.539083    0.486387
    106          6           0       29.773063    4.341491    0.321133
    107          6           0       28.773076    3.231048    0.282724
    108          6           0       31.908015    3.812844    1.832531
    109          6           0       29.668975    5.267984   -0.965343
    110          6           0       29.245732    6.735101   -0.793763
    111          7           0       26.457947    1.405893    0.256549
    112          6           0       26.258427    2.762651    0.249406
    113          6           0       24.808775    3.023066    0.124342
    114          6           0       24.201884    1.739007    0.088276
    115          6           0       25.277520    0.808212    0.123948
    116          6           0       24.118015    4.355452    0.032546
    117          6           0       22.894755    1.075269   -0.075129
    118          8           0       21.729861    1.499307   -0.083785
    119          6           0       23.246196   -0.404230   -0.026397
    120          6           0       22.695565   -1.068303    1.106747
    121          8           0       23.216281   -0.981629    2.248960
    122          8           0       21.560151   -1.827131    0.759811
    123          6           0       20.974012   -2.697108    1.774382
    124          1           0       29.042638   -4.119612   -0.735265
    125          1           0       32.541151    1.082065    0.457076
    126          1           0       27.259537    4.690289    0.388003
    127          1           0       24.475815   -3.159931    0.382380
    128          1           0       26.311402   -4.195671   -1.735914
    129          1           0       26.332165   -5.976407   -0.076324
    130          1           0       25.636817   -4.826105    1.119330
    131          1           0       27.413597   -4.961621    0.875172
    132          1           0       23.038785   -3.025250   -1.336239
    133          1           0       23.971645   -4.401878   -1.958617
    134          1           0       24.740244   -1.619052   -2.892830
    135          1           0       23.193959   -2.157635   -3.380572
    136          1           0       32.080031   -4.318131   -1.753844
    137          1           0       30.966617   -4.839606   -0.378148
    138          1           0       32.532918   -4.445995   -0.085598
    139          1           0       34.254253    0.052951    0.893543
    140          1           0       34.490789    0.246175   -0.884374
    141          1           0       35.674269   -0.622224   -0.099893
    142          1           0       31.945148    3.653398   -0.275725
    143          1           0       29.620821    4.903817    1.242668
    144          1           0       31.173376    4.222167    2.525659
    145          1           0       32.795235    4.434689    1.712596
    146          1           0       32.352212    2.926947    2.286078
    147          1           0       29.011205    4.752217   -1.665667
    148          1           0       30.698570    5.251366   -1.322755
    149          1           0       28.876135    7.166440   -1.724462
    150          1           0       30.177281    7.207783   -0.483308
    151          1           0       28.470317    6.699399   -0.028257
    152          1           0       24.875691    5.015870   -0.388343
    153          1           0       23.977799    4.614609    1.081948
    154          1           0       23.145009    4.343471   -0.459475
    155          1           0       22.800935   -0.759329   -0.955516
    156          1           0       20.535904   -2.220538    2.651373
    157          1           0       21.717994   -3.413061    2.124904
    158          1           0       20.285550   -3.358920    1.248651
 ---------------------------------------------------------------------

 SCF Done:  E(RwB97XD) =  -4070.60599082     A.U. after   20 cycles

 Excitation energies and oscillator strengths:

 Excited State   1:      Singlet-A      1.6637 eV  745.25 nm  f=0.3697  <S**2>=0.000
     310 -> 316        0.18688
     312 -> 314        0.68285
     310 <- 316        0.11706
 This state for optimization and/or second-order correction.
 Total Energy, E(TD-HF/TD-DFT) =  -4070.54485266
 Copying the excited state density for this state as the 1-particle RhoCI density.

 Excited State   2:      Singlet-A      1.6668 eV  743.87 nm  f=0.3652  <S**2>=0.000
     309 -> 315       -0.19754
     311 -> 313        0.68090
     309 <- 315       -0.12066

 Excited State   3:      Singlet-A      2.2261 eV  556.95 nm  f=0.0511  <S**2>=0.000
     309 -> 313        0.60361
     311 -> 315        0.35681

 Excited State   4:      Singlet-A      2.2612 eV  548.31 nm  f=0.0696  <S**2>=0.000
     310 -> 314        0.61506
     312 -> 316       -0.33672

 Excited State   5:      Singlet-A      3.4376 eV  360.67 nm  f=0.5286  <S**2>=0.000
     304 -> 313        0.14645
     306 -> 313       -0.27371
     309 -> 313       -0.28734
     311 -> 315        0.55194
     309 <- 313        0.10585

 The electronic state is 1-A.
 Alpha  occ. eigenvalues --  -46.95293 -46.95025 -19.31282 -19.31030 -19.25549
 Alpha  occ. eigenvalues --  -19.25207 -19.24651 -19.24264 -19.24062 -19.23849
 Alpha  occ. eigenvalues --  -14.47296 -14.46722 -14.46672 -14.46663 -14.44568
 Alpha  occ. eigenvalues --  -14.43988 -14.43967 -14.43904 -10.44147 -10.43897
 Alpha  occ. eigenvalues --  -10.40514 -10.39392 -10.38973 -10.38607 -10.35980
 Alpha  occ. eigenvalues --  -10.35851 -10.35427 -10.35250 -10.35166 -10.35134
 Alpha  occ. eigenvalues --  -10.35013 -10.34867 -10.34689 -10.34625 -10.34589
 Alpha  occ. eigenvalues --  -10.34564 -10.34111 -10.33905 -10.33831 -10.33540
 Alpha  occ. eigenvalues --  -10.33371 -10.33276 -10.32976 -10.32620 -10.32567
 Alpha  occ. eigenvalues --  -10.32525 -10.32485 -10.32365 -10.32355 -10.32270
 Alpha  occ. eigenvalues --  -10.32192 -10.32141 -10.32137 -10.31940 -10.31938
 Alpha  occ. eigenvalues --  -10.31937 -10.31913 -10.31892 -10.31811 -10.31651
 Alpha  occ. eigenvalues --  -10.31621 -10.31366 -10.31259 -10.31209 -10.31030
 Alpha  occ. eigenvalues --  -10.31020 -10.30934 -10.30930 -10.30900 -10.30762
 Alpha  occ. eigenvalues --  -10.30726 -10.30686 -10.30672 -10.30493 -10.30448
 Alpha  occ. eigenvalues --  -10.30359 -10.30118 -10.30079 -10.29867 -10.29855
 Alpha  occ. eigenvalues --  -10.29707 -10.29494 -10.29424 -10.29419 -10.29234
 Alpha  occ. eigenvalues --  -10.29197  -3.21358  -3.21070  -1.94904  -1.94636
 Alpha  occ. eigenvalues --   -1.94498  -1.94332  -1.94209  -1.94039  -1.18164
 Alpha  occ. eigenvalues --   -1.17148  -1.14097  -1.12650  -1.11350  -1.11299
 Alpha  occ. eigenvalues --   -1.10459  -1.09224  -1.06776  -1.06273  -1.06159
 Alpha  occ. eigenvalues --   -1.05603  -1.04906  -1.04612  -1.04106  -1.03909
 Alpha  occ. eigenvalues --   -0.95137  -0.95051  -0.91064  -0.91007  -0.90839
 Alpha  occ. eigenvalues --   -0.90720  -0.90451  -0.89960  -0.89568  -0.89046
 Alpha  occ. eigenvalues --   -0.88731  -0.88020  -0.87543  -0.86930  -0.86498
 Alpha  occ. eigenvalues --   -0.86466  -0.86139  -0.85790  -0.84693  -0.84459
 Alpha  occ. eigenvalues --   -0.84439  -0.83579  -0.83003  -0.82959  -0.82822
 Alpha  occ. eigenvalues --   -0.82052  -0.80101  -0.79944  -0.79171  -0.79163
 Alpha  occ. eigenvalues --   -0.78703  -0.78452  -0.78335  -0.78214  -0.77038
 Alpha  occ. eigenvalues --   -0.76867  -0.74873  -0.74327  -0.74106  -0.73734
 Alpha  occ. eigenvalues --   -0.71241  -0.70948  -0.70877  -0.70593  -0.70374
 Alpha  occ. eigenvalues --   -0.70098  -0.68831  -0.68750  -0.67786  -0.67698
 Alpha  occ. eigenvalues --   -0.67557  -0.67194  -0.66859  -0.66588  -0.66468
 Alpha  occ. eigenvalues --   -0.66191  -0.64722  -0.64440  -0.62246  -0.62204
 Alpha  occ. eigenvalues --   -0.62046  -0.61605  -0.61100  -0.61034  -0.60875
 Alpha  occ. eigenvalues --   -0.60651  -0.60480  -0.59726  -0.59703  -0.59206
 Alpha  occ. eigenvalues --   -0.58213  -0.58116  -0.58059  -0.57537  -0.57245
 Alpha  occ. eigenvalues --   -0.56886  -0.56885  -0.56370  -0.56156  -0.55915
 Alpha  occ. eigenvalues --   -0.55720  -0.55475  -0.55099  -0.54993  -0.54934
 Alpha  occ. eigenvalues --   -0.54712  -0.54612  -0.54504  -0.54307  -0.54122
 Alpha  occ. eigenvalues --   -0.54061  -0.53724  -0.53489  -0.53160  -0.52949
 Alpha  occ. eigenvalues --   -0.52889  -0.52809  -0.52660  -0.52380  -0.52242
 Alpha  occ. eigenvalues --   -0.52087  -0.51949  -0.51731  -0.51575  -0.51324
 Alpha  occ. eigenvalues --   -0.51258  -0.51250  -0.51189  -0.51037  -0.50909
 Alpha  occ. eigenvalues --   -0.50606  -0.50482  -0.50269  -0.50257  -0.50079
 Alpha  occ. eigenvalues --   -0.50013  -0.49434  -0.49275  -0.49196  -0.49028
 Alpha  occ. eigenvalues --   -0.48555  -0.48513  -0.48383  -0.48304  -0.48204
 Alpha  occ. eigenvalues --   -0.48172  -0.48086  -0.48035  -0.47892  -0.47685
 Alpha  occ. eigenvalues --   -0.47369  -0.47300  -0.47279  -0.46901  -0.46728
 Alpha  occ. eigenvalues --   -0.46576  -0.46470  -0.46382  -0.46239  -0.46125
 Alpha  occ. eigenvalues --   -0.46092  -0.45875  -0.45790  -0.45525  -0.45260
 Alpha  occ. eigenvalues --   -0.45160  -0.45026  -0.45019  -0.44886  -0.44652
 Alpha  occ. eigenvalues --   -0.44532  -0.44375  -0.44358  -0.44181  -0.44084
 Alpha  occ. eigenvalues --   -0.44053  -0.43882  -0.43645  -0.43552  -0.43521
 Alpha  occ. eigenvalues --   -0.42995  -0.42962  -0.42755  -0.42599  -0.42492
 Alpha  occ. eigenvalues --   -0.42285  -0.42150  -0.41948  -0.41767  -0.41602
 Alpha  occ. eigenvalues --   -0.40892  -0.40847  -0.39936  -0.39604  -0.39466
 Alpha  occ. eigenvalues --   -0.39464  -0.39164  -0.39160  -0.38990  -0.38644
 Alpha  occ. eigenvalues --   -0.38616  -0.38581  -0.36826  -0.36746  -0.36712
 Alpha  occ. eigenvalues --   -0.36316  -0.35734  -0.35478  -0.33547  -0.33541
 Alpha  occ. eigenvalues --   -0.33241  -0.33192  -0.33022  -0.32943  -0.32449
 Alpha  occ. eigenvalues --   -0.32320  -0.31815  -0.31769  -0.26316  -0.26073
 Alpha  occ. eigenvalues --   -0.22797  -0.22641
 Alpha virt. eigenvalues --   -0.06651  -0.06511  -0.00327   0.00109   0.02338
 Alpha virt. eigenvalues --    0.02595   0.04101   0.04608   0.04919   0.05196
 Alpha virt. eigenvalues --    0.05575   0.06369   0.07482   0.07488   0.07802

 Mulliken charges:
               1
     1  Mg   0.957016
     2  C   -0.054870
     3  C   -0.098129
     4  C   -0.053099
     5  C   -0.094221
     6  N   -0.331865
     7  C   -0.023730
     8  C   -0.114923
     9  C   -0.115761
    10  C    0.039201
    11  C    0.060859
    12  C    0.025470
    13  C   -0.134587
    14  H    0.044831
    15  N   -0.518704
    16  C    0.210395
    17  C   -0.172904
    18  C   -0.106203
    19  C    0.151640
    20  C    0.083424
    21  C    0.062092
    22  O   -0.196877
    23  C   -0.021473
    24  N   -0.326757
    25  C    0.062339
    26  C   -0.102046
    27  C   -0.070072
    28  C    0.069846
    29  C    0.021094
    30  C   -0.022398
    31  C   -0.034776
    32  N   -0.428897
    33  C    0.127635
    34  C   -0.206673
    35  C   -0.016916
    36  C    0.192825
    37  C    0.097491
    38  C    0.099175
    39  O   -0.220862
    40  C   -0.022055
    41  C    0.288768
    42  O   -0.244373
    43  O   -0.362519
    44  C    0.139809
    45  H    0.001617
    46  H   -0.029231
    47  H   -0.001585
    48  H    0.017294
    49  H    0.023692
    50  H    0.042920
    51  H    0.038779
    52  H    0.055128
    53  H    0.032705
    54  H    0.055648
    55  H    0.047931
    56  H    0.058789
    57  H    0.056034
    58  H    0.011840
    59  H    0.051544
    60  H    0.070905
    61  H    0.042012
    62  H    0.069558
    63  H    0.033435
    64  H    0.024311
    65  H    0.046119
    66  H    0.041577
    67  H    0.029646
    68  H    0.043977
    69  H    0.016332
    70  H    0.044033
    71  H    0.026336
    72  H    0.041571
    73  H    0.036647
    74  H    0.058295
    75  H    0.066037
    76  H    0.061071
    77  H    0.042327
    78  H    0.050450
    79  H    0.054036
    80  Mg   0.987145
    81  C   -0.108951
    82  C   -0.085577
    83  C   -0.110630
    84  C   -0.095983
    85  N   -0.341953
    86  C   -0.038074
    87  C   -0.062641
    88  C   -0.058478
    89  C    0.026587
    90  C    0.027359
    91  C   -0.015087
    92  C   -0.118735
    93  H    0.036890
    94  N   -0.448592
    95  C    0.153464
    96  C   -0.157656
    97  C   -0.113663
    98  C    0.206888
    99  C    0.095325
   100  C    0.069661
   101  O   -0.226545
   102  C   -0.026095
   103  N   -0.421834
   104  C    0.079348
   105  C   -0.103176
   106  C   -0.075617
   107  C    0.085623
   108  C    0.009850
   109  C   -0.024327
   110  C   -0.038121
   111  N   -0.406737
   112  C    0.119660
   113  C   -0.211625
   114  C   -0.096373
   115  C    0.263520
   116  C    0.092509
   117  C    0.145540
   118  O   -0.217869
   119  C   -0.059360
   120  C    0.315815
   121  O   -0.277634
   122  O   -0.382224
   123  C    0.152237
   124  H   -0.009112
   125  H   -0.035046
   126  H   -0.015875
   127  H    0.049471
   128  H    0.045653
   129  H    0.043697
   130  H    0.040415
   131  H    0.046396
   132  H    0.038303
   133  H    0.048339
   134  H    0.063100
   135  H    0.056413
   136  H    0.065398
   137  H    0.023027
   138  H    0.044108
   139  H    0.073622
   140  H    0.060914
   141  H    0.052775
   142  H    0.044425
   143  H    0.036126
   144  H    0.037586
   145  H    0.038517
   146  H    0.031783
   147  H    0.048522
   148  H    0.025121
   149  H    0.051616
   150  H    0.041624
   151  H    0.037703
   152  H    0.034742
   153  H    0.054937
   154  H    0.066677
   155  H    0.059793
   156  H    0.069364
   157  H    0.033786
   158  H    0.052218
 Sum of Mulliken charges =  -0.00000

 Dipole moment (field-independent basis, Debye):
    X=              0.3660    Y=              0.8481    Z=              1.4392  Tot=              1.7102
 Quadrupole moment (field-independent basis, Debye-Ang):
   XX=           -242.3837   YY=           -521.0069   ZZ=           -516.5947
   XY=             48.1978   XZ=             18.9117   YZ=              4.7033

 Normal termination of Gaussian 16 at Mon Sep 20 17:55:21 2021.
