 Gaussian 16, Revision A.03,
 Gaussian 16:  ES64L-G16RevA.03 25-Dec-2016

 --------------------------------
 #p wB97XD/Def2SVP td=(nstates=5)
 --------------------------------

 --------------------------------
 TDDFT excited states in gaussian
 --------------------------------
 Symbolic Z-matrix:
 Charge =  0 Multiplicity = 1

                         Standard orientation:
 ---------------------------------------------------------------------
 Center     Atomic      Atomic             Coordinates (Angstroms)
 Number     Number       Type             X           Y           Z
 ---------------------------------------------------------------------
      1         12           0      -21.242739    0.090235   -0.463628
      2          6           0      -17.871791   -0.874567   -0.063312
      3          6           0      -22.214486   -3.127427    0.469135
      4          6           0      -24.360420    1.333295    0.127342
      5          6           0      -20.021911    3.431917   -0.879079
      6          7           0      -20.165935   -1.740236    0.084449
      7          6           0      -18.829987   -1.891076    0.206158
      8          6           0      -18.473331   -3.304641    0.770793
      9          6           0      -19.863616   -4.059095    0.545818
     10          6           0      -20.874294   -2.890897    0.307205
     11          6           0      -20.046602   -5.051386   -0.624903
     12          6           0      -18.048881   -3.157930    2.280942
     13          6           0      -16.918165   -4.129940    2.718380
     14          1           0      -17.084887   -4.768456    4.157183
     15          7           0      -23.140963   -0.826177    0.024139
     16          6           0      -23.281057   -2.157922    0.311952
     17          6           0      -24.660993   -2.383855    0.519149
     18          6           0      -25.343105   -1.130990    0.505602
     19          6           0      -24.296281   -0.112803    0.157194
     20          6           0      -25.284339   -3.729128    0.807477
     21          6           0      -26.754490   -0.876334    0.912272
     22          8           0      -27.462366   -1.757328    1.373256
     23          6           0      -27.402632    0.408735    0.875703
     24          7           0      -22.026718    2.159503   -0.286591
     25          6           0      -23.414147    2.346536   -0.198909
     26          6           0      -23.765817    3.785361   -0.414329
     27          6           0      -22.387659    4.498856   -0.674221
     28          6           0      -21.411326    3.336726   -0.615442
     29          6           0      -24.760932    3.887210   -1.577358
     30          6           0      -22.156419    5.776049    0.218163
     31          6           0      -21.888359    7.064256   -0.499235
     32          7           0      -19.320316    1.137313   -0.515524
     33          6           0      -19.027401    2.459035   -0.746160
     34          6           0      -17.567655    2.645138   -0.898611
     35          6           0      -17.113643    1.341990   -0.563146
     36          6           0      -18.188381    0.482342   -0.434074
     37          6           0      -16.772874    3.921233   -1.127272
     38          6           0      -15.919621    0.603524   -0.248265
     39          8           0      -14.739832    0.983986   -0.191653
     40          6           0      -16.299880   -0.842947    0.066837
     41          6           0      -15.578637   -1.787950   -0.806024
     42          8           0      -14.870017   -2.627293   -0.381824
     43          8           0      -15.960687   -1.725238   -2.114873
     44          6           0      -15.401033   -2.861502   -2.878549
     45          1           0      -22.554217   -4.143645    0.681875
     46          1           0      -25.399193    1.648446    0.237798
     47          1           0      -19.469427    4.371222   -0.956906
     48          1           0      -17.656573   -3.710444    0.173603
     49          1           0      -20.342255   -4.431973    1.451192
     50          1           0      -19.361414   -4.809278   -1.438106
     51          1           0      -21.053762   -5.140506   -1.032199
     52          1           0      -19.745817   -6.023023   -0.234497
     53          1           0      -18.913953   -3.255816    2.937431
     54          1           0      -17.699281   -2.128980    2.366004
     55          1           0      -16.024571   -3.506665    2.680594
     56          1           0      -16.883106   -4.840745    1.892476
     57          1           0      -26.347323   -3.826885    0.586629
     58          1           0      -25.104219   -3.866590    1.873325
     59          1           0      -24.736054   -4.605299    0.461288
     60          1           0      -27.402032    0.730782   -0.166423
     61          1           0      -26.908673    1.118668    1.539725
     62          1           0      -28.427278    0.287664    1.227312
     63          1           0      -24.121094    4.236060    0.512049
     64          1           0      -22.138140    4.756135   -1.703848
     65          1           0      -25.212467    2.931095   -1.843158
     66          1           0      -24.281846    4.245996   -2.488319
     67          1           0      -25.654124    4.415622   -1.245382
     68          1           0      -21.313488    5.511562    0.856621
     69          1           0      -23.030542    6.076977    0.794461
     70          1           0      -20.951644    7.459468   -0.107126
     71          1           0      -22.651419    7.813465   -0.287407
     72          1           0      -21.929352    6.968566   -1.584296
     73          1           0      -16.592739    4.475851   -0.206152
     74          1           0      -17.204920    4.565905   -1.893705
     75          1           0      -15.803799    3.509559   -1.408990
     76          1           0      -15.931150   -1.110910    1.056121
     77          1           0      -15.736342   -2.762385   -3.911276
     78          1           0      -15.730442   -3.810186   -2.454997
     79          1           0      -14.317535   -2.837771   -2.989810
     80         12           0       20.470981    0.771863   -0.221122
     81          6           0       20.316138   -2.659189   -0.586278
     82          6           0       17.303086    0.675478    1.122557
     83          6           0       20.841943    4.062187    0.692857
     84          6           0       23.679035    0.769890   -1.469953
     85          7           0       19.075695   -0.811248    0.397391
     86          6           0       19.222368   -2.143888    0.066266
     87          6           0       18.013964   -2.972619    0.493792
     88          6           0       16.938529   -1.845195    0.718469
     89          6           0       17.822118   -0.608692    0.795408
     90          6           0       15.729906   -1.767171   -0.320459
     91          6           0       18.227943   -3.942257    1.699594
     92          6           0       17.662576   -5.336649    1.530489
     93          1           0       16.470729   -5.586461    2.441476
     94          7           0       19.241764    2.121254    0.771942
     95          6           0       17.996014    1.908272    1.210616
     96          6           0       17.421755    3.130384    1.746236
     97          6           0       18.342759    4.162565    1.680533
     98          6           0       19.567613    3.479755    1.078999
     99          6           0       15.960462    3.181495    2.402040
    100          6           0       18.111173    5.662294    2.067406
    101          8           0       17.002442    5.991932    2.575998
    102          6           0       19.167055    6.687135    1.901773
    103          7           0       22.175939    2.216085   -0.144084
    104          6           0       22.023619    3.497724    0.097946
    105          6           0       23.181769    4.332999   -0.406474
    106          6           0       24.205902    3.335390   -1.046401
    107          6           0       23.305999    2.010357   -0.972061
    108          6           0       22.908617    5.674684   -1.158455
    109          6           0       25.606929    3.119727   -0.404156
    110          6           0       26.597534    2.471679   -1.349209
    111          7           0       21.778738   -0.678167   -0.897368
    112          6           0       23.061609   -0.526328   -1.472562
    113          6           0       23.484988   -1.814191   -1.950700
    114          6           0       22.427518   -2.711419   -1.663551
    115          6           0       21.471565   -1.950042   -0.996889
    116          6           0       24.694030   -2.102465   -2.828165
    117          6           0       22.046300   -4.026365   -1.820721
    118          8           0       22.574517   -5.031010   -2.212820
    119          6           0       20.670170   -4.111761   -0.977062
    120          6           0       21.089193   -4.757561    0.342753
    121          8           0       21.618826   -4.185698    1.276050
    122          8           0       20.766706   -6.101779    0.248709
    123          6           0       21.184052   -6.937308    1.370028
    124          1           0       16.241216    0.742655    1.367612
    125          1           0       20.886455    5.109413    0.998096
    126          1           0       24.619077    0.639749   -2.010150
    127          1           0       17.686627   -3.542430   -0.375361
    128          1           0       16.607678   -1.935011    1.753793
    129          1           0       15.426190   -0.724964   -0.222779
    130          1           0       14.837285   -2.311501   -0.011187
    131          1           0       15.948930   -2.042369   -1.352064
    132          1           0       17.723688   -3.430533    2.519581
    133          1           0       19.228773   -3.983830    2.128879
    134          1           0       18.467893   -6.039732    1.744405
    135          1           0       17.309451   -5.524027    0.516249
    136          1           0       15.438005    2.225056    2.448342
    137          1           0       15.324554    3.885654    1.864455
    138          1           0       15.975973    3.433183    3.461565
    139          1           0       19.450653    6.750575    0.851701
    140          1           0       19.975403    6.551154    2.620352
    141          1           0       18.635771    7.630247    2.023585
    142          1           0       23.850067    4.722232    0.361901
    143          1           0       24.252531    3.424295   -2.132025
    144          1           0       21.853700    5.898483   -0.993932
    145          1           0       23.226027    5.668274   -2.201833
    146          1           0       23.442799    6.532986   -0.750686
    147          1           0       25.433316    2.552829    0.510395
    148          1           0       25.907309    4.115858   -0.079366
    149          1           0       27.588601    2.845472   -1.090771
    150          1           0       26.439824    2.682537   -2.407591
    151          1           0       26.647090    1.404460   -1.132981
    152          1           0       24.710920   -3.112082   -3.238738
    153          1           0       25.585593   -1.903712   -2.234840
    154          1           0       24.738468   -1.419811   -3.676833
    155          1           0       19.882915   -4.603767   -1.549084
    156          1           0       22.272847   -6.969131    1.413436
    157          1           0       20.750644   -7.935360    1.315420
    158          1           0       20.870622   -6.472298    2.304283
 ---------------------------------------------------------------------

 SCF Done:  E(RwB97XD) =  -4070.58468405     A.U. after   20 cycles

 Excitation energies and oscillator strengths:

 Excited State   1:      Singlet-A      1.6192 eV  765.71 nm  f=0.4089  <S**2>=0.000
     309 -> 315       -0.17888
     311 -> 313        0.68466
     309 <- 315       -0.11647
 This state for optimization and/or second-order correction.
 Total Energy, E(TD-HF/TD-DFT) =  -4070.52517967
 Copying the excited state density for this state as the 1-particle RhoCI density.

 Excited State   2:      Singlet-A      1.8716 eV  662.46 nm  f=0.3744  <S**2>=0.000
     310 -> 316        0.14188
     312 -> 314        0.68597

 Excited State   3:      Singlet-A      2.1452 eV  577.97 nm  f=0.1098  <S**2>=0.000
     309 -> 313        0.63985
     311 -> 315        0.28462

 Excited State   4:      Singlet-A      2.2255 eV  557.11 nm  f=0.1259  <S**2>=0.000
     310 -> 314        0.64385
     312 -> 316       -0.24649
     312 -> 317        0.10809

 Excited State   5:      Singlet-A      3.2204 eV  385.00 nm  f=0.0034  <S**2>=0.000
     304 -> 313       -0.13555
     305 -> 313       -0.11703
     307 -> 313        0.65572
     307 -> 318        0.10334

 The electronic state is 1-A.
 Alpha  occ. eigenvalues --  -46.97183 -46.95726 -19.30365 -19.29658 -19.25319
 Alpha  occ. eigenvalues --  -19.24872 -19.24703 -19.23968 -19.22625 -19.22327
 Alpha  occ. eigenvalues --  -14.47625 -14.47294 -14.46892 -14.46606 -14.45192
 Alpha  occ. eigenvalues --  -14.44499 -14.43914 -14.42989 -10.42862 -10.42589
 Alpha  occ. eigenvalues --  -10.41075 -10.38847 -10.37424 -10.37320 -10.37266
 Alpha  occ. eigenvalues --  -10.36503 -10.36324 -10.36031 -10.35902 -10.35804
 Alpha  occ. eigenvalues --  -10.35597 -10.35225 -10.35114 -10.35022 -10.34821
 Alpha  occ. eigenvalues --  -10.34326 -10.34261 -10.34057 -10.33884 -10.33745
 Alpha  occ. eigenvalues --  -10.33542 -10.33361 -10.33132 -10.33128 -10.33092
 Alpha  occ. eigenvalues --  -10.32779 -10.32600 -10.32517 -10.32511 -10.32463
 Alpha  occ. eigenvalues --  -10.32392 -10.32298 -10.32277 -10.32214 -10.32210
 Alpha  occ. eigenvalues --  -10.32185 -10.32097 -10.31862 -10.31591 -10.31573
 Alpha  occ. eigenvalues --  -10.31539 -10.31336 -10.31153 -10.31082 -10.31027
 Alpha  occ. eigenvalues --  -10.31010 -10.30994 -10.30924 -10.30920 -10.30803
 Alpha  occ. eigenvalues --  -10.30774 -10.30756 -10.30756 -10.30754 -10.30747
 Alpha  occ. eigenvalues --  -10.30465 -10.30406 -10.30270 -10.29852 -10.29612
 Alpha  occ. eigenvalues --  -10.29582 -10.29553 -10.29182 -10.29148 -10.29061
 Alpha  occ. eigenvalues --  -10.26968  -3.22826  -3.21622  -1.96419  -1.95918
 Alpha  occ. eigenvalues --   -1.95778  -1.95191  -1.94745  -1.94593  -1.20165
 Alpha  occ. eigenvalues --   -1.17525  -1.11908  -1.11744  -1.11416  -1.11284
 Alpha  occ. eigenvalues --   -1.11243  -1.10003  -1.07196  -1.06581  -1.05848
 Alpha  occ. eigenvalues --   -1.05770  -1.05461  -1.05256  -1.04581  -1.04516
 Alpha  occ. eigenvalues --   -0.94657  -0.93442  -0.91308  -0.91010  -0.90976
 Alpha  occ. eigenvalues --   -0.90324  -0.90142  -0.89979  -0.89926  -0.89015
 Alpha  occ. eigenvalues --   -0.88978  -0.88674  -0.87774  -0.87691  -0.86804
 Alpha  occ. eigenvalues --   -0.86619  -0.86381  -0.85521  -0.85101  -0.84654
 Alpha  occ. eigenvalues --   -0.84421  -0.83965  -0.82913  -0.82592  -0.82545
 Alpha  occ. eigenvalues --   -0.82126  -0.80633  -0.79577  -0.79565  -0.79077
 Alpha  occ. eigenvalues --   -0.78825  -0.78613  -0.78434  -0.77384  -0.77235
 Alpha  occ. eigenvalues --   -0.77064  -0.75178  -0.74520  -0.74329  -0.73652
 Alpha  occ. eigenvalues --   -0.71639  -0.71383  -0.71221  -0.71074  -0.69950
 Alpha  occ. eigenvalues --   -0.69820  -0.69342  -0.68870  -0.68314  -0.67674
 Alpha  occ. eigenvalues --   -0.67519  -0.67372  -0.67032  -0.66674  -0.66674
 Alpha  occ. eigenvalues --   -0.66003  -0.65337  -0.63642  -0.62113  -0.62050
 Alpha  occ. eigenvalues --   -0.62008  -0.61399  -0.61011  -0.61009  -0.60893
 Alpha  occ. eigenvalues --   -0.60443  -0.60303  -0.59735  -0.59297  -0.59076
 Alpha  occ. eigenvalues --   -0.58476  -0.58438  -0.58049  -0.57562  -0.57380
 Alpha  occ. eigenvalues --   -0.57102  -0.56941  -0.56533  -0.56062  -0.55890
 Alpha  occ. eigenvalues --   -0.55635  -0.55517  -0.55339  -0.55245  -0.55116
 Alpha  occ. eigenvalues --   -0.55084  -0.54794  -0.54672  -0.54591  -0.54231
 Alpha  occ. eigenvalues --   -0.53923  -0.53696  -0.53474  -0.53459  -0.53304
 Alpha  occ. eigenvalues --   -0.52947  -0.52846  -0.52640  -0.52468  -0.52104
 Alpha  occ. eigenvalues --   -0.51990  -0.51933  -0.51808  -0.51715  -0.51561
 Alpha  occ. eigenvalues --   -0.51377  -0.51260  -0.51053  -0.50956  -0.50587
 Alpha  occ. eigenvalues --   -0.50584  -0.50373  -0.50345  -0.50127  -0.50103
 Alpha  occ. eigenvalues --   -0.49495  -0.49482  -0.49278  -0.49251  -0.49141
 Alpha  occ. eigenvalues --   -0.48963  -0.48732  -0.48644  -0.48474  -0.48290
 Alpha  occ. eigenvalues --   -0.48271  -0.48090  -0.48010  -0.47891  -0.47702
 Alpha  occ. eigenvalues --   -0.47117  -0.47100  -0.47083  -0.47059  -0.46934
 Alpha  occ. eigenvalues --   -0.46821  -0.46770  -0.46658  -0.46571  -0.46320
 Alpha  occ. eigenvalues --   -0.46229  -0.46014  -0.45821  -0.45550  -0.45477
 Alpha  occ. eigenvalues --   -0.45324  -0.45287  -0.45056  -0.44948  -0.44837
 Alpha  occ. eigenvalues --   -0.44742  -0.44571  -0.44427  -0.44419  -0.44362
 Alpha  occ. eigenvalues --   -0.44061  -0.43949  -0.43719  -0.43472  -0.43321
 Alpha  occ. eigenvalues --   -0.42922  -0.42666  -0.42620  -0.42308  -0.42083
 Alpha  occ. eigenvalues --   -0.42054  -0.41736  -0.41561  -0.41203  -0.41150
 Alpha  occ. eigenvalues --   -0.40852  -0.40606  -0.39974  -0.39944  -0.39681
 Alpha  occ. eigenvalues --   -0.39263  -0.39245  -0.38958  -0.38570  -0.38353
 Alpha  occ. eigenvalues --   -0.38288  -0.37247  -0.36928  -0.36357  -0.36153
 Alpha  occ. eigenvalues --   -0.36115  -0.35774  -0.35307  -0.34449  -0.34099
 Alpha  occ. eigenvalues --   -0.33734  -0.33038  -0.33000  -0.32628  -0.31930
 Alpha  occ. eigenvalues --   -0.31574  -0.31349  -0.31130  -0.26448  -0.26022
 Alpha  occ. eigenvalues --   -0.23386  -0.23323
 Alpha virt. eigenvalues --   -0.07776  -0.06708  -0.00362   0.00179   0.02210
 Alpha virt. eigenvalues --    0.02310   0.04123   0.04393   0.04529   0.04961
 Alpha virt. eigenvalues --    0.07256   0.07651   0.07984   0.08188   0.08215

 Mulliken charges:
               1
     1  Mg   0.930514
     2  C   -0.012409
     3  C   -0.078678
     4  C   -0.029842
     5  C   -0.055279
     6  N   -0.359386
     7  C   -0.011317
     8  C   -0.090490
     9  C   -0.100325
    10  C    0.079410
    11  C    0.032994
    12  C    0.011786
    13  C   -0.106994
    14  H    0.041726
    15  N   -0.446539
    16  C    0.131674
    17  C   -0.166255
    18  C   -0.071369
    19  C    0.121624
    20  C    0.092367
    21  C   -0.000448
    22  O   -0.245879
    23  C    0.011314
    24  N   -0.354189
    25  C    0.049256
    26  C   -0.068697
    27  C   -0.054125
    28  C    0.053387
    29  C    0.028781
    30  C   -0.008407
    31  C   -0.059103
    32  N   -0.368100
    33  C    0.038821
    34  C   -0.158778
    35  C   -0.038400
    36  C    0.117549
    37  C    0.062059
    38  C    0.094560
    39  O   -0.225749
    40  C   -0.017663
    41  C    0.221554
    42  O   -0.212630
    43  O   -0.366512
    44  C    0.140019
    45  H    0.006064
    46  H   -0.031056
    47  H   -0.001364
    48  H    0.038012
    49  H    0.035496
    50  H    0.032284
    51  H    0.046126
    52  H    0.040164
    53  H    0.042489
    54  H    0.036096
    55  H    0.065942
    56  H    0.053270
    57  H    0.070776
    58  H    0.039812
    59  H    0.017349
    60  H    0.051115
    61  H    0.064326
    62  H    0.052307
    63  H    0.047999
    64  H    0.037671
    65  H    0.035147
    66  H    0.041430
    67  H    0.037086
    68  H    0.041957
    69  H    0.039585
    70  H    0.042332
    71  H    0.030778
    72  H    0.032993
    73  H    0.064833
    74  H    0.051566
    75  H    0.065763
    76  H    0.062072
    77  H    0.046746
    78  H    0.053354
    79  H    0.057647
    80  Mg   0.966586
    81  C   -0.041301
    82  C   -0.128767
    83  C   -0.109122
    84  C   -0.042243
    85  N   -0.333005
    86  C   -0.011797
    87  C   -0.074617
    88  C   -0.075994
    89  C    0.063642
    90  C    0.034888
    91  C    0.028236
    92  C   -0.107179
    93  H    0.024848
    94  N   -0.466044
    95  C    0.186054
    96  C   -0.152920
    97  C   -0.065484
    98  C    0.142332
    99  C    0.072125
   100  C    0.052339
   101  O   -0.253936
   102  C    0.003656
   103  N   -0.331016
   104  C    0.128613
   105  C   -0.083482
   106  C   -0.090967
   107  C    0.027357
   108  C    0.020529
   109  C    0.009902
   110  C   -0.034516
   111  N   -0.438464
   112  C    0.046376
   113  C   -0.148276
   114  C    0.002740
   115  C    0.157717
   116  C    0.059516
   117  C    0.057904
   118  O   -0.195186
   119  C   -0.117877
   120  C    0.297059
   121  O   -0.238886
   122  O   -0.364145
   123  C    0.141293
   124  H   -0.003472
   125  H   -0.019503
   126  H   -0.016904
   127  H    0.023299
   128  H    0.032818
   129  H    0.025055
   130  H    0.044763
   131  H    0.053870
   132  H    0.020269
   133  H    0.052787
   134  H    0.048220
   135  H    0.048695
   136  H    0.019660
   137  H    0.064712
   138  H    0.059526
   139  H    0.061853
   140  H    0.091257
   141  H    0.055061
   142  H    0.038372
   143  H    0.031560
   144  H    0.030263
   145  H    0.041574
   146  H    0.029125
   147  H    0.042108
   148  H    0.025783
   149  H    0.032418
   150  H    0.043052
   151  H    0.051684
   152  H    0.058553
   153  H    0.038041
   154  H    0.040729
   155  H    0.054840
   156  H    0.058120
   157  H    0.060948
   158  H    0.042375
 Sum of Mulliken charges =  -0.00000

 Dipole moment (field-independent basis, Debye):
    X=             -3.2095    Y=              7.2579    Z=             -3.6711  Tot=              8.7438
 Quadrupole moment (field-independent basis, Debye-Ang):
   XX=           -472.8136   YY=           -478.8670   ZZ=           -511.3479
   XY=             46.1518   XZ=             59.5372   YZ=            -15.7081

 Normal termination of Gaussian 16 at Sat Sep 18 21:50:28 2021.
