 Gaussian 16, Revision A.03,
 Gaussian 16:  ES64L-G16RevA.03 25-Dec-2016

 --------------------------------
 #p wB97XD/Def2SVP td=(nstates=5)
 --------------------------------

 --------------------------------
 TDDFT excited states in gaussian
 --------------------------------
 Symbolic Z-matrix:
 Charge =  0 Multiplicity = 1

                         Standard orientation:
 ---------------------------------------------------------------------
 Center     Atomic      Atomic             Coordinates (Angstroms)
 Number     Number       Type             X           Y           Z
 ---------------------------------------------------------------------
      1         12           0       25.538635   -0.885812    0.181984
      2          6           0       26.474194    2.429631   -0.790016
      3          6           0       25.809439    0.147916    3.422530
      4          6           0       25.160901   -3.908464    1.063750
      5          6           0       26.440241   -1.920642   -3.021435
      6          7           0       26.078790    1.066243    1.075496
      7          6           0       26.357181    2.273214    0.592911
      8          6           0       26.438635    3.374372    1.692088
      9          6           0       26.779383    2.452317    2.947358
     10          6           0       26.155085    1.152707    2.470713
     11          6           0       28.274544    2.232307    3.153735
     12          6           0       25.077529    4.124077    1.884608
     13          6           0       25.154598    5.420056    2.696920
     14          1           0       24.289519    6.530358    2.327848
     15          7           0       25.020175   -1.656541    1.925552
     16          6           0       25.190017   -1.089714    3.144218
     17          6           0       24.643287   -2.054654    4.122308
     18          6           0       24.314983   -3.308883    3.389355
     19          6           0       24.850146   -3.013532    2.084844
     20          6           0       24.435701   -1.730614    5.569946
     21          6           0       23.637313   -4.577075    3.802373
     22          8           0       23.660729   -5.628649    3.075587
     23          6           0       23.012397   -4.583291    5.137470
     24          7           0       25.970770   -2.702069   -0.751881
     25          6           0       25.653243   -3.866793   -0.176052
     26          6           0       25.794807   -5.008348   -1.138730
     27          6           0       26.043999   -4.349735   -2.571869
     28          6           0       26.085550   -2.861997   -2.143875
     29          6           0       26.920448   -6.006050   -0.832899
     30          6           0       25.080226   -4.762419   -3.712593
     31          6           0       23.691681   -4.235640   -3.427035
     32          7           0       26.151775    0.081045   -1.662004
     33          6           0       26.500111   -0.545684   -2.867220
     34          6           0       26.948085    0.512781   -3.790820
     35          6           0       26.844268    1.687488   -3.048437
     36          6           0       26.386975    1.379115   -1.735395
     37          6           0       27.434433    0.314048   -5.113093
     38          6           0       27.036746    3.128599   -3.051231
     39          8           0       27.318364    3.964177   -3.911460
     40          6           0       26.921217    3.652448   -1.551877
     41          6           0       26.009928    4.849455   -1.557588
     42          8           0       24.797787    4.729385   -1.828998
     43          8           0       26.649314    5.897529   -1.016044
     44          6           0       25.790492    7.110752   -0.964386
     45          1           0       26.089897    0.292179    4.467744
     46          1           0       24.939261   -4.953379    1.290613
     47          1           0       26.656151   -2.158314   -4.064674
     48          1           0       27.231243    4.107799    1.542819
     49          1           0       26.284738    2.800168    3.854026
     50          1           0       28.855200    2.640441    2.326579
     51          1           0       28.404232    1.151498    3.213112
     52          1           0       28.594407    2.625944    4.118885
     53          1           0       24.431738    3.535066    2.535823
     54          1           0       24.610778    4.329962    0.920719
     55          1           0       26.184716    5.759403    2.809214
     56          1           0       24.827675    5.205356    3.714381
     57          1           0       24.922790   -0.795922    5.844972
     58          1           0       24.963046   -2.491270    6.145289
     59          1           0       23.380322   -1.729123    5.842905
     60          1           0       23.771052   -4.370427    5.890916
     61          1           0       22.499898   -5.540635    5.225142
     62          1           0       22.288878   -3.769384    5.192458
     63          1           0       24.884658   -5.605713   -1.173519
     64          1           0       27.034460   -4.583731   -2.962902
     65          1           0       26.576496   -7.035182   -0.726650
     66          1           0       27.433024   -5.670049    0.068023
     67          1           0       27.735236   -6.011779   -1.556435
     68          1           0       25.005629   -5.847712   -3.771919
     69          1           0       25.390819   -4.397323   -4.691618
     70          1           0       23.275919   -4.992650   -2.763025
     71          1           0       23.114212   -4.165736   -4.349453
     72          1           0       23.727931   -3.298734   -2.870816
     73          1           0       26.971753    1.086271   -5.727558
     74          1           0       27.190015   -0.682845   -5.479246
     75          1           0       28.504415    0.450997   -4.957406
     76          1           0       27.930461    3.907804   -1.230407
     77          1           0       26.325705    7.905265   -1.484511
     78          1           0       25.542700    7.270539    0.085125
     79          1           0       24.866591    7.072294   -1.542544
     80         12           0      -26.009707   -0.558124   -0.120790
     81          6           0      -23.866549    2.100758   -0.593211
     82          6           0      -26.976560    1.033730    2.938473
     83          6           0      -27.827402   -3.164675    0.624221
     84          6           0      -24.740884   -2.140411   -2.922872
     85          7           0      -25.281203    1.302179    1.133415
     86          6           0      -24.586599    2.290908    0.595976
     87          6           0      -24.792135    3.611943    1.389837
     88          6           0      -25.307863    3.026758    2.750913
     89          6           0      -25.915849    1.687883    2.303271
     90          6           0      -24.152906    2.838792    3.797804
     91          6           0      -25.849284    4.421885    0.606742
     92          6           0      -26.129005    5.846075    1.105609
     93          1           0      -25.582109    6.307017    2.441739
     94          7           0      -27.312647   -1.031207    1.428553
     95          6           0      -27.589024   -0.209338    2.574890
     96          6           0      -28.698242   -0.850444    3.267763
     97          6           0      -29.025282   -2.028925    2.526833
     98          6           0      -28.016315   -2.155177    1.476084
     99          6           0      -29.406240   -0.278154    4.552055
    100          6           0      -30.238957   -2.986716    2.765955
    101          8           0      -30.294109   -3.998690    2.122458
    102          6           0      -31.272586   -2.662054    3.795013
    103          7           0      -26.319413   -2.377322   -1.085899
    104          6           0      -27.138082   -3.331522   -0.588369
    105          6           0      -27.139224   -4.616776   -1.415177
    106          6           0      -26.254417   -4.220814   -2.619906
    107          6           0      -25.725788   -2.796457   -2.176298
    108          6           0      -26.626942   -5.904993   -0.672199
    109          6           0      -26.866536   -4.324282   -3.993573
    110          6           0      -28.276050   -3.758214   -4.290909
    111          7           0      -24.596373   -0.191643   -1.513714
    112          6           0      -24.180526   -0.899643   -2.604815
    113          6           0      -23.240799   -0.064138   -3.322238
    114          6           0      -23.075561    1.172063   -2.607796
    115          6           0      -23.938368    1.012361   -1.489062
    116          6           0      -22.563244   -0.467706   -4.594513
    117          6           0      -22.385717    2.415562   -2.526996
    118          8           0      -21.509959    2.951305   -3.240688
    119          6           0      -22.717725    2.922785   -1.019488
    120          6           0      -22.866072    4.443164   -1.097165
    121          8           0      -23.575339    5.022877   -1.827329
    122          8           0      -21.996299    4.996241   -0.200939
    123          6           0      -22.195682    6.380898    0.174567
    124          1           0      -27.216477    1.491552    3.899922
    125          1           0      -28.376260   -4.081361    0.849900
    126          1           0      -24.286969   -2.592184   -3.806510
    127          1           0      -23.852814    4.132816    1.574912
    128          1           0      -26.072746    3.740503    3.057841
    129          1           0      -24.213445    3.626906    4.547335
    130          1           0      -23.206473    2.868878    3.257592
    131          1           0      -24.227815    1.911906    4.366532
    132          1           0      -26.799542    3.899143    0.712472
    133          1           0      -25.674726    4.392129   -0.468342
    134          1           0      -27.154148    6.170214    0.925007
    135          1           0      -25.662381    6.485459    0.356007
    136          1           0      -29.485384   -1.019743    5.347519
    137          1           0      -30.371951    0.094075    4.210457
    138          1           0      -28.875336    0.611341    4.893372
    139          1           0      -32.154965   -3.154331    3.385541
    140          1           0      -31.526967   -1.602982    3.816234
    141          1           0      -31.051506   -2.770066    4.856843
    142          1           0      -28.179052   -4.759812   -1.708263
    143          1           0      -25.317500   -4.776329   -2.660418
    144          1           0      -26.104545   -6.488694   -1.429686
    145          1           0      -27.559513   -6.381854   -0.369794
    146          1           0      -26.070189   -5.632145    0.224229
    147          1           0      -27.073826   -5.393416   -4.024520
    148          1           0      -26.255257   -4.019733   -4.843757
    149          1           0      -29.053948   -4.451559   -4.607918
    150          1           0      -28.264481   -3.100522   -5.160020
    151          1           0      -28.656478   -3.260253   -3.398932
    152          1           0      -21.883826    0.349664   -4.834483
    153          1           0      -23.291979   -0.520930   -5.404462
    154          1           0      -22.109735   -1.458422   -4.587710
    155          1           0      -21.875285    2.577757   -0.419672
    156          1           0      -21.163540    6.623794   -0.078394
    157          1           0      -22.557573    6.512634    1.194486
    158          1           0      -22.853186    6.938911   -0.492584
 ---------------------------------------------------------------------

 SCF Done:  E(RwB97XD) =  -4070.60988804     A.U. after   19 cycles

 Excitation energies and oscillator strengths:

 Excited State   1:      Singlet-A      1.6216 eV  764.57 nm  f=0.3845  <S**2>=0.000
     309 -> 316        0.18180
     312 -> 313        0.68329
     309 <- 316        0.11454
 This state for optimization and/or second-order correction.
 Total Energy, E(TD-HF/TD-DFT) =  -4070.55029496
 Copying the excited state density for this state as the 1-particle RhoCI density.

 Excited State   2:      Singlet-A      1.6762 eV  739.68 nm  f=0.3740  <S**2>=0.000
     310 -> 315       -0.20177
     311 -> 314        0.67875
     310 <- 315       -0.12039

 Excited State   3:      Singlet-A      2.1386 eV  579.76 nm  f=0.0951  <S**2>=0.000
     309 -> 313        0.63835
     312 -> 316       -0.28191

 Excited State   4:      Singlet-A      2.1629 eV  573.24 nm  f=0.0894  <S**2>=0.000
     310 -> 314        0.63324
     311 -> 315        0.30172

 Excited State   5:      Singlet-A      3.3015 eV  375.54 nm  f=0.0077  <S**2>=0.000
     306 -> 313       -0.44229
     308 -> 313        0.48828
     312 -> 316       -0.17000

 The electronic state is 1-A.
 Alpha  occ. eigenvalues --  -46.94609 -46.94099 -19.31470 -19.29635 -19.25193
 Alpha  occ. eigenvalues --  -19.24131 -19.24066 -19.23963 -19.23859 -19.23196
 Alpha  occ. eigenvalues --  -14.47016 -14.46326 -14.46291 -14.46024 -14.43993
 Alpha  occ. eigenvalues --  -14.43902 -14.43896 -14.43133 -10.42909 -10.42777
 Alpha  occ. eigenvalues --  -10.39405 -10.39198 -10.39143 -10.38384 -10.35425
 Alpha  occ. eigenvalues --  -10.35404 -10.35209 -10.34881 -10.34744 -10.34631
 Alpha  occ. eigenvalues --  -10.34583 -10.34583 -10.34517 -10.34442 -10.34308
 Alpha  occ. eigenvalues --  -10.34169 -10.33868 -10.33802 -10.33681 -10.33377
 Alpha  occ. eigenvalues --  -10.33217 -10.32958 -10.32797 -10.32787 -10.32745
 Alpha  occ. eigenvalues --  -10.32575 -10.32439 -10.32305 -10.32155 -10.32120
 Alpha  occ. eigenvalues --  -10.31847 -10.31840 -10.31803 -10.31769 -10.31763
 Alpha  occ. eigenvalues --  -10.31729 -10.31703 -10.31683 -10.31621 -10.31543
 Alpha  occ. eigenvalues --  -10.31522 -10.31485 -10.31447 -10.31403 -10.31162
 Alpha  occ. eigenvalues --  -10.30705 -10.30606 -10.30584 -10.30519 -10.30387
 Alpha  occ. eigenvalues --  -10.30249 -10.30129 -10.30113 -10.30054 -10.30053
 Alpha  occ. eigenvalues --  -10.30045 -10.29965 -10.29851 -10.29705 -10.29651
 Alpha  occ. eigenvalues --  -10.29248 -10.29071 -10.28928 -10.28840 -10.28778
 Alpha  occ. eigenvalues --  -10.28448  -3.20674  -3.20258  -1.94266  -1.93835
 Alpha  occ. eigenvalues --   -1.93816  -1.93634  -1.93402  -1.93239  -1.19788
 Alpha  occ. eigenvalues --   -1.18794  -1.13698  -1.12020  -1.10824  -1.10291
 Alpha  occ. eigenvalues --   -1.09406  -1.08806  -1.07223  -1.06541  -1.06087
 Alpha  occ. eigenvalues --   -1.05742  -1.05229  -1.05112  -1.04409  -1.04090
 Alpha  occ. eigenvalues --   -0.95041  -0.93899  -0.91383  -0.91211  -0.91020
 Alpha  occ. eigenvalues --   -0.90594  -0.90392  -0.90142  -0.89761  -0.89562
 Alpha  occ. eigenvalues --   -0.89247  -0.89202  -0.88398  -0.87595  -0.86848
 Alpha  occ. eigenvalues --   -0.85986  -0.85786  -0.85611  -0.84868  -0.84532
 Alpha  occ. eigenvalues --   -0.84318  -0.83654  -0.83492  -0.83376  -0.82525
 Alpha  occ. eigenvalues --   -0.82247  -0.80742  -0.79939  -0.79265  -0.79112
 Alpha  occ. eigenvalues --   -0.78819  -0.78735  -0.77826  -0.77825  -0.77439
 Alpha  occ. eigenvalues --   -0.76783  -0.74722  -0.74679  -0.73983  -0.73600
 Alpha  occ. eigenvalues --   -0.72174  -0.71768  -0.70865  -0.70802  -0.70084
 Alpha  occ. eigenvalues --   -0.69617  -0.69144  -0.68184  -0.67190  -0.67156
 Alpha  occ. eigenvalues --   -0.66862  -0.66809  -0.66564  -0.66281  -0.66195
 Alpha  occ. eigenvalues --   -0.66126  -0.64350  -0.64250  -0.62479  -0.62407
 Alpha  occ. eigenvalues --   -0.61729  -0.61628  -0.61145  -0.60942  -0.60823
 Alpha  occ. eigenvalues --   -0.60463  -0.60155  -0.59879  -0.59517  -0.59239
 Alpha  occ. eigenvalues --   -0.58264  -0.58122  -0.58103  -0.57828  -0.57635
 Alpha  occ. eigenvalues --   -0.57465  -0.57281  -0.57232  -0.56437  -0.56194
 Alpha  occ. eigenvalues --   -0.55784  -0.55625  -0.55464  -0.55213  -0.55134
 Alpha  occ. eigenvalues --   -0.54896  -0.54845  -0.54651  -0.54314  -0.54292
 Alpha  occ. eigenvalues --   -0.54203  -0.54002  -0.53804  -0.53711  -0.53500
 Alpha  occ. eigenvalues --   -0.53100  -0.52714  -0.52646  -0.52506  -0.52063
 Alpha  occ. eigenvalues --   -0.51913  -0.51905  -0.51849  -0.51620  -0.51492
 Alpha  occ. eigenvalues --   -0.51419  -0.51251  -0.51211  -0.51141  -0.50987
 Alpha  occ. eigenvalues --   -0.50752  -0.50484  -0.50393  -0.50353  -0.50178
 Alpha  occ. eigenvalues --   -0.50077  -0.49898  -0.49591  -0.49561  -0.49213
 Alpha  occ. eigenvalues --   -0.48821  -0.48666  -0.48546  -0.48466  -0.48446
 Alpha  occ. eigenvalues --   -0.48283  -0.48073  -0.47919  -0.47755  -0.47705
 Alpha  occ. eigenvalues --   -0.47536  -0.47166  -0.47075  -0.46942  -0.46617
 Alpha  occ. eigenvalues --   -0.46473  -0.46385  -0.46022  -0.45966  -0.45910
 Alpha  occ. eigenvalues --   -0.45795  -0.45349  -0.45295  -0.45291  -0.45203
 Alpha  occ. eigenvalues --   -0.44933  -0.44909  -0.44852  -0.44628  -0.44628
 Alpha  occ. eigenvalues --   -0.44532  -0.44266  -0.44052  -0.43952  -0.43886
 Alpha  occ. eigenvalues --   -0.43789  -0.43681  -0.43573  -0.43399  -0.43336
 Alpha  occ. eigenvalues --   -0.43000  -0.42852  -0.42832  -0.42711  -0.42423
 Alpha  occ. eigenvalues --   -0.42116  -0.42093  -0.41495  -0.41353  -0.41323
 Alpha  occ. eigenvalues --   -0.40332  -0.40296  -0.39856  -0.39660  -0.39563
 Alpha  occ. eigenvalues --   -0.39328  -0.39168  -0.39161  -0.38682  -0.38381
 Alpha  occ. eigenvalues --   -0.38159  -0.37757  -0.37178  -0.36256  -0.35944
 Alpha  occ. eigenvalues --   -0.35752  -0.35572  -0.35317  -0.33669  -0.33328
 Alpha  occ. eigenvalues --   -0.33159  -0.33021  -0.32504  -0.32022  -0.31975
 Alpha  occ. eigenvalues --   -0.31591  -0.31509  -0.31453  -0.25977  -0.25731
 Alpha  occ. eigenvalues --   -0.22904  -0.22896
 Alpha virt. eigenvalues --   -0.07078  -0.06790   0.00025   0.00207   0.02011
 Alpha virt. eigenvalues --    0.02237   0.04338   0.04715   0.06103   0.06293
 Alpha virt. eigenvalues --    0.07129   0.07285   0.07999   0.08222   0.08504

 Mulliken charges:
               1
     1  Mg   0.978496
     2  C   -0.019950
     3  C   -0.101344
     4  C   -0.061317
     5  C   -0.070986
     6  N   -0.323264
     7  C   -0.008665
     8  C   -0.058159
     9  C   -0.138066
    10  C    0.061915
    11  C    0.058272
    12  C    0.014103
    13  C   -0.126979
    14  H    0.052405
    15  N   -0.518367
    16  C    0.183514
    17  C   -0.195914
    18  C   -0.036980
    19  C    0.166595
    20  C    0.060583
    21  C    0.056638
    22  O   -0.280035
    23  C    0.001804
    24  N   -0.410178
    25  C    0.066191
    26  C   -0.084875
    27  C   -0.063872
    28  C    0.089627
    29  C    0.031867
    30  C   -0.016716
    31  C   -0.058105
    32  N   -0.398688
    33  C    0.097327
    34  C   -0.187943
    35  C   -0.040051
    36  C    0.126337
    37  C    0.081438
    38  C    0.128835
    39  O   -0.224740
    40  C   -0.076890
    41  C    0.275788
    42  O   -0.284557
    43  O   -0.335604
    44  C    0.120610
    45  H    0.007871
    46  H    0.010693
    47  H   -0.017353
    48  H    0.026009
    49  H    0.022609
    50  H    0.047113
    51  H    0.037788
    52  H    0.040076
    53  H    0.035377
    54  H    0.067713
    55  H    0.038941
    56  H    0.040613
    57  H    0.029670
    58  H    0.048997
    59  H    0.062166
    60  H    0.057783
    61  H    0.061827
    62  H    0.053024
    63  H    0.042936
    64  H    0.035659
    65  H    0.045316
    66  H    0.034317
    67  H    0.025709
    68  H    0.032611
    69  H    0.029414
    70  H    0.029202
    71  H    0.042213
    72  H    0.049655
    73  H    0.070909
    74  H    0.031411
    75  H    0.069397
    76  H    0.065860
    77  H    0.061277
    78  H    0.062801
    79  H    0.070293
    80  Mg   0.965725
    81  C   -0.025729
    82  C   -0.077180
    83  C   -0.087925
    84  C   -0.117648
    85  N   -0.288320
    86  C   -0.035932
    87  C   -0.084052
    88  C   -0.089700
    89  C    0.019705
    90  C    0.040483
    91  C    0.000299
    92  C   -0.089387
    93  H    0.044116
    94  N   -0.478674
    95  C    0.175996
    96  C   -0.189402
    97  C   -0.081127
    98  C    0.188628
    99  C    0.062510
   100  C    0.064907
   101  O   -0.213724
   102  C   -0.007328
   103  N   -0.342113
   104  C    0.014547
   105  C   -0.099252
   106  C   -0.054351
   107  C    0.091101
   108  C    0.035509
   109  C   -0.009982
   110  C   -0.072541
   111  N   -0.486480
   112  C    0.144565
   113  C   -0.184419
   114  C   -0.031085
   115  C    0.180464
   116  C    0.067899
   117  C    0.153416
   118  O   -0.233727
   119  C   -0.147714
   120  C    0.243102
   121  O   -0.185877
   122  O   -0.368653
   123  C    0.110580
   124  H    0.003751
   125  H    0.009636
   126  H   -0.005486
   127  H    0.019529
   128  H    0.022936
   129  H    0.039825
   130  H    0.043877
   131  H    0.040350
   132  H    0.025779
   133  H    0.065920
   134  H    0.042742
   135  H    0.038163
   136  H    0.059020
   137  H    0.057766
   138  H    0.030212
   139  H    0.058166
   140  H    0.020579
   141  H    0.069264
   142  H    0.047936
   143  H    0.031242
   144  H    0.046322
   145  H    0.047906
   146  H    0.054218
   147  H    0.029218
   148  H    0.040702
   149  H    0.032780
   150  H    0.032891
   151  H    0.039561
   152  H    0.062284
   153  H    0.042958
   154  H    0.047411
   155  H    0.085721
   156  H    0.070096
   157  H    0.062577
   158  H    0.062915
 Sum of Mulliken charges =  -0.00000

 Dipole moment (field-independent basis, Debye):
    X=             -1.7705    Y=             -1.1447    Z=              8.0193  Tot=              8.2918
 Quadrupole moment (field-independent basis, Debye-Ang):
   XX=           -337.8620   YY=           -505.7628   ZZ=           -477.9571
   XY=            -17.5582   XZ=             36.8203   YZ=             68.0245

 Normal termination of Gaussian 16 at Sun Sep 19 08:19:42 2021.
