 Gaussian 16, Revision A.03,
 Gaussian 16:  ES64L-G16RevA.03 25-Dec-2016

 --------------------------------
 #p wB97XD/Def2SVP td=(nstates=5)
 --------------------------------

 --------------------------------
 TDDFT excited states in gaussian
 --------------------------------
 Symbolic Z-matrix:
 Charge =  0 Multiplicity = 1

                         Standard orientation:
 ---------------------------------------------------------------------
 Center     Atomic      Atomic             Coordinates (Angstroms)
 Number     Number       Type             X           Y           Z
 ---------------------------------------------------------------------
      1         12           0      -15.516439    0.446318    0.251626
      2          6           0      -14.535987   -2.639242   -1.078527
      3          6           0      -12.142542    1.188413    0.415293
      4          6           0      -16.354689    3.536438    1.195289
      5          6           0      -18.797777   -0.175844   -0.780907
      6          7           0      -13.489994   -0.647897   -0.512663
      7          6           0      -13.379517   -1.933987   -0.896905
      8          6           0      -11.956501   -2.366862   -1.156273
      9          6           0      -11.263882   -1.189263   -0.370098
     10          6           0      -12.309493   -0.098387   -0.162677
     11          6           0      -10.791841   -1.687391    1.021966
     12          6           0      -11.694277   -2.554940   -2.655887
     13          6           0      -12.298918   -1.562943   -3.671185
     14          1           0      -11.336499   -1.006828   -4.713955
     15          7           0      -14.426775    2.106416    0.743013
     16          6           0      -13.062681    2.151221    0.858588
     17          6           0      -12.694129    3.301888    1.693608
     18          6           0      -13.887657    4.119519    1.819424
     19          6           0      -14.951536    3.237150    1.250198
     20          6           0      -11.196959    3.693257    1.995297
     21          6           0      -13.977685    5.531174    2.404396
     22          8           0      -13.030239    6.029635    2.945359
     23          6           0      -15.273640    6.287207    2.346181
     24          7           0      -17.347817    1.587755   -0.010530
     25          6           0      -17.507290    2.856930    0.576076
     26          6           0      -18.988180    3.414622    0.452652
     27          6           0      -19.753484    2.137993   -0.141588
     28          6           0      -18.565507    1.080870   -0.290351
     29          6           0      -19.719371    4.071304    1.727776
     30          6           0      -20.595912    2.342505   -1.482287
     31          6           0      -21.895318    1.395115   -1.483643
     32          7           0      -16.552879   -1.104376   -0.691026
     33          6           0      -17.899579   -1.244894   -0.957949
     34          6           0      -18.145912   -2.582954   -1.481578
     35          6           0      -16.890340   -3.243088   -1.508326
     36          6           0      -15.925083   -2.259792   -1.084595
     37          6           0      -19.489573   -3.206981   -1.753698
     38          6           0      -16.096890   -4.458245   -1.884694
     39          8           0      -16.440930   -5.473737   -2.447288
     40          6           0      -14.588867   -4.086668   -1.554996
     41          6           0      -14.126584   -5.061000   -0.506649
     42          8           0      -13.807668   -6.252414   -0.746700
     43          8           0      -13.970445   -4.402183    0.704279
     44          6           0      -13.320130   -5.148465    1.729056
     45          1           0      -11.078284    1.390320    0.553913
     46          1           0      -16.774329    4.432328    1.658099
     47          1           0      -19.852673   -0.426783   -0.911031
     48          1           0      -11.702050   -3.270311   -0.602394
     49          1           0      -10.399410   -0.709696   -0.827230
     50          1           0      -10.897404   -0.834961    1.693464
     51          1           0       -9.793492   -2.117611    0.956270
     52          1           0      -11.399722   -2.415141    1.560435
     53          1           0      -12.162234   -3.503651   -2.916875
     54          1           0      -10.616194   -2.616681   -2.804788
     55          1           0      -12.674865   -0.693424   -3.132583
     56          1           0      -13.074901   -2.084297   -4.230928
     57          1           0      -10.672671    4.182610    1.174021
     58          1           0      -10.641232    2.803725    2.292138
     59          1           0      -11.033245    4.320346    2.870931
     60          1           0      -15.154519    7.325808    2.656477
     61          1           0      -16.059091    5.840423    2.956058
     62          1           0      -15.457596    6.326931    1.272222
     63          1           0      -18.827556    4.170688   -0.314976
     64          1           0      -20.435913    1.714384    0.594698
     65          1           0      -19.493742    5.136930    1.711100
     66          1           0      -19.381264    3.618820    2.659590
     67          1           0      -20.789969    3.883096    1.644600
     68          1           0      -20.042724    1.984880   -2.350653
     69          1           0      -20.842086    3.393537   -1.635395
     70          1           0      -21.864869    0.691576   -2.315733
     71          1           0      -22.790064    2.008943   -1.583091
     72          1           0      -22.044125    0.699962   -0.658094
     73          1           0      -20.009100   -2.594713   -2.490024
     74          1           0      -20.078149   -3.221583   -0.836133
     75          1           0      -19.404569   -4.207245   -2.178052
     76          1           0      -14.051227   -4.352366   -2.464916
     77          1           0      -13.164891   -4.506711    2.596022
     78          1           0      -12.424216   -5.641327    1.351134
     79          1           0      -13.967529   -5.918967    2.147661
     80         12           0       15.623106    0.691844   -0.156815
     81          6           0       15.302143   -2.573383    1.130621
     82          6           0       12.950316    1.561788    1.854159
     83          6           0       15.736464    3.867919   -1.403526
     84          6           0       17.978446   -0.366942   -2.301719
     85          7           0       14.286653   -0.392829    1.368385
     86          6           0       14.414988   -1.691542    1.845957
     87          6           0       13.547202   -1.892643    3.072038
     88          6           0       12.561627   -0.668677    3.030841
     89          6           0       13.313803    0.206261    2.053369
     90          6           0       11.068229   -1.003794    2.642621
     91          6           0       14.342430   -1.876261    4.386002
     92          6           0       13.850330   -2.846926    5.464897
     93          1           0       12.485602   -2.562008    6.151490
     94          7           0       14.572682    2.484770    0.232625
     95          6           0       13.506444    2.559986    1.062067
     96          6           0       12.955382    3.873303    0.975870
     97          6           0       13.805801    4.676651    0.140134
     98          6           0       14.704638    3.679134   -0.413153
     99          6           0       11.715268    4.271502    1.726964
    100          6           0       13.746289    6.151437   -0.258218
    101          8           0       14.685723    6.705787   -0.870354
    102          6           0       12.518022    7.019788   -0.010445
    103          7           0       16.753488    1.623534   -1.559386
    104          6           0       16.600120    2.939040   -1.986615
    105          6           0       17.533934    3.192614   -3.125261
    106          6           0       18.349345    1.885265   -3.432187
    107          6           0       17.720210    0.978439   -2.362119
    108          6           0       16.880888    3.878587   -4.362792
    109          6           0       19.880594    2.001540   -3.271221
    110          6           0       20.619137    2.274668   -4.595762
    111          7           0       16.454098   -1.051984   -0.580449
    112          6           0       17.485805   -1.388274   -1.455783
    113          6           0       17.893423   -2.837860   -1.344744
    114          6           0       17.005593   -3.289048   -0.354630
    115          6           0       16.209103   -2.193622    0.110221
    116          6           0       18.981706   -3.541686   -2.134721
    117          6           0       16.646416   -4.492222    0.380715
    118          8           0       17.066290   -5.646981    0.295357
    119          6           0       15.593589   -4.007449    1.465590
    120          6           0       14.392494   -4.962163    1.318353
    121          8           0       13.928135   -5.382525    0.278715
    122          8           0       14.021331   -5.406281    2.586040
    123          6           0       12.886423   -6.329133    2.558239
    124          1           0       12.157933    1.821160    2.559091
    125          1           0       15.865951    4.848572   -1.865644
    126          1           0       18.655491   -0.653421   -3.108752
    127          1           0       12.945298   -2.800950    3.058344
    128          1           0       12.443886   -0.147069    3.980702
    129          1           0       10.834340   -2.064317    2.545070
    130          1           0       10.708735   -0.602616    1.695336
    131          1           0       10.383172   -0.665902    3.420217
    132          1           0       14.357361   -0.880258    4.827959
    133          1           0       15.375393   -2.180032    4.215088
    134          1           0       14.598118   -3.004408    6.242021
    135          1           0       13.761276   -3.860137    5.073562
    136          1           0       11.035547    3.456321    1.478404
    137          1           0       11.211811    5.189787    1.425010
    138          1           0       11.826637    4.302396    2.810579
    139          1           0       11.614433    6.525258   -0.367293
    140          1           0       12.761731    7.919204   -0.575727
    141          1           0       12.378197    7.208085    1.054017
    142          1           0       18.171781    4.023700   -2.822816
    143          1           0       18.136789    1.421932   -4.396504
    144          1           0       15.814511    3.980193   -4.160088
    145          1           0       17.007316    3.231121   -5.230080
    146          1           0       17.379411    4.846846   -4.419091
    147          1           0       20.215085    1.122258   -2.721140
    148          1           0       20.143502    2.888209   -2.693921
    149          1           0       19.939294    2.744321   -5.306906
    150          1           0       20.971820    1.402956   -5.147287
    151          1           0       21.417521    2.989030   -4.392662
    152          1           0       19.938022   -3.183840   -1.752861
    153          1           0       18.987805   -3.345711   -3.206759
    154          1           0       18.853650   -4.604034   -1.927681
    155          1           0       15.936927   -4.029770    2.499692
    156          1           0       11.907826   -5.853418    2.629328
    157          1           0       13.075594   -6.995227    3.399927
    158          1           0       12.737640   -6.963060    1.684126
 ---------------------------------------------------------------------

 SCF Done:  E(RwB97XD) =  -4070.63566198     A.U. after   17 cycles

 Excitation energies and oscillator strengths:

 Excited State   1:      Singlet-A      1.6476 eV  752.53 nm  f=0.3622  <S**2>=0.000
     310 -> 316        0.19170
     312 -> 314        0.68108
     310 <- 316        0.11853
 This state for optimization and/or second-order correction.
 Total Energy, E(TD-HF/TD-DFT) =  -4070.57511545
 Copying the excited state density for this state as the 1-particle RhoCI density.

 Excited State   2:      Singlet-A      1.6938 eV  732.00 nm  f=0.3674  <S**2>=0.000
     309 -> 315        0.19912
     311 -> 313        0.67826
     309 <- 315        0.11858

 Excited State   3:      Singlet-A      2.1798 eV  568.79 nm  f=0.1004  <S**2>=0.000
     310 -> 314        0.63281
     312 -> 316       -0.29956

 Excited State   4:      Singlet-A      2.1840 eV  567.69 nm  f=0.0990  <S**2>=0.000
     309 -> 313        0.63204
     311 -> 315       -0.30025

 Excited State   5:      Singlet-A      3.4329 eV  361.16 nm  f=0.1160  <S**2>=0.000
     306 -> 314       -0.16699
     307 -> 314        0.56583
     310 -> 314        0.11131
     312 -> 316        0.34322

 The electronic state is 1-A.
 Alpha  occ. eigenvalues --  -46.96782 -46.93988 -19.31286 -19.30982 -19.25337
 Alpha  occ. eigenvalues --  -19.25024 -19.24607 -19.24268 -19.24134 -19.24121
 Alpha  occ. eigenvalues --  -14.47289 -14.46883 -14.46455 -14.45880 -14.45170
 Alpha  occ. eigenvalues --  -14.44492 -14.44101 -14.44083 -10.43887 -10.43537
 Alpha  occ. eigenvalues --  -10.39861 -10.39845 -10.39332 -10.39095 -10.36993
 Alpha  occ. eigenvalues --  -10.35990 -10.35745 -10.35455 -10.35225 -10.35224
 Alpha  occ. eigenvalues --  -10.35000 -10.34905 -10.34833 -10.34795 -10.34600
 Alpha  occ. eigenvalues --  -10.34316 -10.34283 -10.34239 -10.33994 -10.33843
 Alpha  occ. eigenvalues --  -10.33656 -10.33599 -10.33291 -10.33194 -10.33086
 Alpha  occ. eigenvalues --  -10.33056 -10.32921 -10.32888 -10.32837 -10.32702
 Alpha  occ. eigenvalues --  -10.32628 -10.32589 -10.32546 -10.32521 -10.32493
 Alpha  occ. eigenvalues --  -10.32439 -10.32208 -10.32183 -10.32078 -10.31948
 Alpha  occ. eigenvalues --  -10.31897 -10.31856 -10.31765 -10.31689 -10.31662
 Alpha  occ. eigenvalues --  -10.31307 -10.31225 -10.31166 -10.31024 -10.30858
 Alpha  occ. eigenvalues --  -10.30485 -10.30377 -10.30331 -10.30319 -10.30256
 Alpha  occ. eigenvalues --  -10.30246 -10.30193 -10.30160 -10.30145 -10.30035
 Alpha  occ. eigenvalues --  -10.29975 -10.29972 -10.29820 -10.29719 -10.29525
 Alpha  occ. eigenvalues --  -10.29369  -3.22627  -3.20183  -1.96170  -1.95759
 Alpha  occ. eigenvalues --   -1.95578  -1.93778  -1.93288  -1.93200  -1.18668
 Alpha  occ. eigenvalues --   -1.18461  -1.13796  -1.12921  -1.11447  -1.11166
 Alpha  occ. eigenvalues --   -1.10377  -1.09286  -1.06839  -1.06726  -1.06002
 Alpha  occ. eigenvalues --   -1.05745  -1.05076  -1.04991  -1.03946  -1.03448
 Alpha  occ. eigenvalues --   -0.94541  -0.94506  -0.91299  -0.90937  -0.90917
 Alpha  occ. eigenvalues --   -0.90339  -0.90212  -0.89624  -0.89400  -0.89304
 Alpha  occ. eigenvalues --   -0.88991  -0.88085  -0.88019  -0.87712  -0.86802
 Alpha  occ. eigenvalues --   -0.86328  -0.85436  -0.85287  -0.84656  -0.84217
 Alpha  occ. eigenvalues --   -0.83846  -0.83671  -0.82918  -0.82792  -0.82384
 Alpha  occ. eigenvalues --   -0.82046  -0.80434  -0.79537  -0.79385  -0.79261
 Alpha  occ. eigenvalues --   -0.79200  -0.78677  -0.78362  -0.78090  -0.77323
 Alpha  occ. eigenvalues --   -0.77004  -0.74832  -0.74675  -0.74081  -0.73635
 Alpha  occ. eigenvalues --   -0.71899  -0.71374  -0.71353  -0.70736  -0.70263
 Alpha  occ. eigenvalues --   -0.70164  -0.69329  -0.69249  -0.67864  -0.67725
 Alpha  occ. eigenvalues --   -0.67446  -0.66894  -0.66885  -0.66661  -0.66489
 Alpha  occ. eigenvalues --   -0.66164  -0.65733  -0.64555  -0.62365  -0.62153
 Alpha  occ. eigenvalues --   -0.62122  -0.61310  -0.60984  -0.60941  -0.60477
 Alpha  occ. eigenvalues --   -0.60195  -0.59754  -0.59704  -0.59498  -0.59376
 Alpha  occ. eigenvalues --   -0.58308  -0.58061  -0.58037  -0.57520  -0.57462
 Alpha  occ. eigenvalues --   -0.57085  -0.57045  -0.56539  -0.56250  -0.55758
 Alpha  occ. eigenvalues --   -0.55692  -0.55429  -0.55176  -0.55089  -0.55062
 Alpha  occ. eigenvalues --   -0.54823  -0.54802  -0.54512  -0.54120  -0.53890
 Alpha  occ. eigenvalues --   -0.53782  -0.53700  -0.53666  -0.53390  -0.53167
 Alpha  occ. eigenvalues --   -0.53067  -0.52687  -0.52517  -0.52394  -0.52199
 Alpha  occ. eigenvalues --   -0.52056  -0.52001  -0.51947  -0.51726  -0.51720
 Alpha  occ. eigenvalues --   -0.51539  -0.51270  -0.51013  -0.50926  -0.50850
 Alpha  occ. eigenvalues --   -0.50631  -0.50404  -0.50339  -0.50192  -0.50010
 Alpha  occ. eigenvalues --   -0.49584  -0.49552  -0.49328  -0.49313  -0.49216
 Alpha  occ. eigenvalues --   -0.48922  -0.48779  -0.48672  -0.48595  -0.48455
 Alpha  occ. eigenvalues --   -0.48298  -0.48215  -0.48048  -0.47835  -0.47659
 Alpha  occ. eigenvalues --   -0.47495  -0.47454  -0.47289  -0.47155  -0.46870
 Alpha  occ. eigenvalues --   -0.46839  -0.46590  -0.46464  -0.46297  -0.46263
 Alpha  occ. eigenvalues --   -0.46216  -0.45934  -0.45849  -0.45642  -0.45521
 Alpha  occ. eigenvalues --   -0.45435  -0.45372  -0.45276  -0.45142  -0.44971
 Alpha  occ. eigenvalues --   -0.44963  -0.44740  -0.44637  -0.44303  -0.44283
 Alpha  occ. eigenvalues --   -0.44211  -0.43968  -0.43859  -0.43734  -0.43671
 Alpha  occ. eigenvalues --   -0.43528  -0.43164  -0.43116  -0.42978  -0.42400
 Alpha  occ. eigenvalues --   -0.42304  -0.42167  -0.41860  -0.41601  -0.41042
 Alpha  occ. eigenvalues --   -0.40896  -0.40603  -0.40242  -0.40119  -0.39863
 Alpha  occ. eigenvalues --   -0.39392  -0.39298  -0.39270  -0.38854  -0.38830
 Alpha  occ. eigenvalues --   -0.38722  -0.38285  -0.37153  -0.36958  -0.36716
 Alpha  occ. eigenvalues --   -0.36443  -0.35427  -0.35099  -0.33599  -0.33508
 Alpha  occ. eigenvalues --   -0.33271  -0.33159  -0.32966  -0.32942  -0.32858
 Alpha  occ. eigenvalues --   -0.32684  -0.32209  -0.31898  -0.25998  -0.25876
 Alpha  occ. eigenvalues --   -0.23254  -0.22891
 Alpha virt. eigenvalues --   -0.07029  -0.06920  -0.00217   0.00134   0.02041
 Alpha virt. eigenvalues --    0.02142   0.03846   0.03886   0.04105   0.06620
 Alpha virt. eigenvalues --    0.06776   0.07109   0.07418   0.07860   0.08321

 Mulliken charges:
               1
     1  Mg   0.954848
     2  C    0.126672
     3  C   -0.086978
     4  C   -0.102785
     5  C   -0.086737
     6  N   -0.280299
     7  C   -0.106202
     8  C    0.024766
     9  C   -0.115411
    10  C    0.019694
    11  C    0.017966
    12  C    0.021057
    13  C   -0.133110
    14  H    0.032722
    15  N   -0.458776
    16  C    0.175526
    17  C   -0.148471
    18  C   -0.099933
    19  C    0.211634
    20  C    0.047987
    21  C    0.038195
    22  O   -0.200732
    23  C   -0.012914
    24  N   -0.368068
    25  C    0.007616
    26  C   -0.062958
    27  C   -0.084169
    28  C    0.069803
    29  C    0.005022
    30  C   -0.009957
    31  C   -0.094022
    32  N   -0.439763
    33  C    0.138837
    34  C   -0.213445
    35  C   -0.016304
    36  C    0.079048
    37  C    0.071687
    38  C    0.140005
    39  O   -0.173327
    40  C   -0.211006
    41  C    0.295899
    42  O   -0.266881
    43  O   -0.352078
    44  C    0.141240
    45  H    0.007096
    46  H   -0.025073
    47  H   -0.020831
    48  H    0.029495
    49  H    0.028242
    50  H    0.024498
    51  H    0.050053
    52  H    0.027548
    53  H    0.037050
    54  H    0.046161
    55  H    0.070664
    56  H    0.060522
    57  H    0.063187
    58  H    0.025671
    59  H    0.055954
    60  H    0.046979
    61  H    0.080195
    62  H    0.053790
    63  H    0.053711
    64  H    0.040293
    65  H    0.049438
    66  H    0.047493
    67  H    0.050523
    68  H    0.049762
    69  H    0.044013
    70  H    0.038445
    71  H    0.044490
    72  H    0.040035
    73  H    0.037505
    74  H    0.051997
    75  H    0.058941
    76  H    0.085146
    77  H    0.049483
    78  H    0.054973
    79  H    0.046661
    80  Mg   1.001396
    81  C   -0.064938
    82  C   -0.110775
    83  C   -0.083491
    84  C   -0.100680
    85  N   -0.307618
    86  C    0.022438
    87  C   -0.031765
    88  C   -0.097721
    89  C    0.019030
    90  C    0.007973
    91  C    0.023182
    92  C   -0.123360
    93  H    0.016924
    94  N   -0.427940
    95  C    0.224048
    96  C   -0.180450
    97  C   -0.042819
    98  C    0.127558
    99  C    0.061791
   100  C    0.049304
   101  O   -0.257554
   102  C   -0.024004
   103  N   -0.456734
   104  C    0.108986
   105  C   -0.100382
   106  C   -0.055395
   107  C    0.059332
   108  C    0.015927
   109  C    0.000238
   110  C   -0.055616
   111  N   -0.483406
   112  C    0.140288
   113  C   -0.167202
   114  C   -0.071775
   115  C    0.182896
   116  C    0.080933
   117  C    0.161368
   118  O   -0.208520
   119  C   -0.105907
   120  C    0.266247
   121  O   -0.223753
   122  O   -0.369635
   123  C    0.126354
   124  H   -0.009105
   125  H    0.016379
   126  H   -0.010427
   127  H    0.030611
   128  H    0.039894
   129  H    0.034282
   130  H    0.041853
   131  H    0.034206
   132  H    0.040670
   133  H    0.036938
   134  H    0.048539
   135  H    0.050356
   136  H    0.046103
   137  H    0.026925
   138  H    0.058676
   139  H    0.061444
   140  H    0.063772
   141  H    0.063676
   142  H    0.042771
   143  H    0.042960
   144  H    0.043676
   145  H    0.034143
   146  H    0.043587
   147  H    0.037031
   148  H    0.028018
   149  H    0.024580
   150  H    0.041198
   151  H    0.040914
   152  H    0.050546
   153  H    0.047788
   154  H    0.066179
   155  H    0.072887
   156  H    0.043169
   157  H    0.055702
   158  H    0.065285
 Sum of Mulliken charges =  -0.00000

 Dipole moment (field-independent basis, Debye):
    X=             -4.2664    Y=              6.7356    Z=              5.1499  Tot=              9.4917
 Quadrupole moment (field-independent basis, Debye-Ang):
   XX=           -469.6701   YY=           -592.4799   ZZ=           -498.3902
   XY=            -42.3659   XZ=            -40.7204   YZ=            -33.7238

 Normal termination of Gaussian 16 at Sun Sep 19 20:20:17 2021.
