 Gaussian 16, Revision A.03,
 Gaussian 16:  ES64L-G16RevA.03 25-Dec-2016

 --------------------------------
 #p wB97XD/Def2SVP td=(nstates=5)
 --------------------------------

 --------------------------------
 TDDFT excited states in gaussian
 --------------------------------
 Symbolic Z-matrix:
 Charge =  0 Multiplicity = 1

                         Standard orientation:
 ---------------------------------------------------------------------
 Center     Atomic      Atomic             Coordinates (Angstroms)
 Number     Number       Type             X           Y           Z
 ---------------------------------------------------------------------
      1         12           0      -32.078566   -0.189655   -0.759935
      2          6           0      -28.807585    0.826977    0.477841
      3          6           0      -31.300712   -3.380328    0.242126
      4          6           0      -35.350861   -0.812358   -0.465422
      5          6           0      -32.620080    2.995083   -1.813759
      6          7           0      -30.297187   -1.105889    0.437652
      7          6           0      -29.032457   -0.496538    0.764880
      8          6           0      -28.055910   -1.576534    1.238950
      9          6           0      -28.721617   -2.916867    0.808614
     10          6           0      -30.215748   -2.504066    0.446588
     11          6           0      -28.013385   -3.610776   -0.449396
     12          6           0      -27.562673   -1.483977    2.653346
     13          6           0      -28.360197   -0.588639    3.630800
     14          1           0      -28.088879   -0.394544    5.133853
     15          7           0      -33.193400   -1.933663   -0.316124
     16          6           0      -32.673564   -3.141483    0.093902
     17          6           0      -33.800931   -4.119332    0.201463
     18          6           0      -34.942257   -3.327052    0.107457
     19          6           0      -34.568069   -1.944980   -0.183120
     20          6           0      -33.542626   -5.555489    0.491114
     21          6           0      -36.395256   -3.850222    0.301780
     22          8           0      -36.540944   -5.011032    0.641457
     23          6           0      -37.618610   -2.996407    0.248563
     24          7           0      -33.713524    1.036201   -0.957944
     25          6           0      -34.980631    0.455547   -0.916980
     26          6           0      -36.053742    1.450285   -1.359487
     27          6           0      -35.211464    2.565577   -2.078485
     28          6           0      -33.796160    2.175615   -1.646305
     29          6           0      -37.214769    0.938531   -2.250450
     30          6           0      -35.592958    4.042179   -1.739114
     31          6           0      -36.357161    4.847789   -2.886854
     32          7           0      -30.947802    1.573206   -0.781831
     33          6           0      -31.297865    2.795571   -1.336672
     34          6           0      -30.144145    3.661071   -1.334541
     35          6           0      -29.221345    2.934850   -0.569550
     36          6           0      -29.773134    1.660644   -0.288117
     37          6           0      -30.147867    5.090911   -1.902488
     38          6           0      -27.894727    2.927539   -0.033602
     39          8           0      -27.059876    3.844552   -0.169698
     40          6           0      -27.477794    1.509619    0.560389
     41          6           0      -26.957353    1.816165    1.907720
     42          8           0      -27.498741    2.520992    2.765988
     43          8           0      -25.834765    1.072842    2.065012
     44          6           0      -25.017742    1.355675    3.286554
     45          1           0      -31.058331   -4.390547    0.577116
     46          1           0      -36.416552   -1.035173   -0.378055
     47          1           0      -32.784657    3.971305   -2.273780
     48          1           0      -27.247803   -1.343794    0.545441
     49          1           0      -28.866274   -3.606593    1.640338
     50          1           0      -27.583181   -4.515727   -0.022176
     51          1           0      -27.287303   -2.922068   -0.882019
     52          1           0      -28.822717   -3.869775   -1.132965
     53          1           0      -26.508158   -1.216963    2.586485
     54          1           0      -27.609337   -2.531708    2.952187
     55          1           0      -29.390010   -0.936232    3.542710
     56          1           0      -28.320256    0.446558    3.291281
     57          1           0      -33.918980   -5.727908    1.499022
     58          1           0      -32.469788   -5.729411    0.413918
     59          1           0      -34.020978   -6.169500   -0.272758
     60          1           0      -37.742618   -2.226215    1.008878
     61          1           0      -38.533676   -3.562315    0.420735
     62          1           0      -37.573069   -2.652511   -0.784669
     63          1           0      -36.404182    1.718792   -0.362222
     64          1           0      -35.315829    2.341612   -3.140342
     65          1           0      -38.136078    0.749420   -1.698585
     66          1           0      -36.944675   -0.024717   -2.681948
     67          1           0      -37.344744    1.657228   -3.060311
     68          1           0      -34.751567    4.662447   -1.428935
     69          1           0      -36.202666    3.953217   -0.839892
     70          1           0      -37.140737    5.351644   -2.321512
     71          1           0      -36.787327    4.229826   -3.675148
     72          1           0      -35.611282    5.467623   -3.383143
     73          1           0      -29.187842    5.445354   -2.278401
     74          1           0      -30.408593    5.660712   -1.011267
     75          1           0      -30.772606    5.140041   -2.794064
     76          1           0      -26.735696    1.050553   -0.094449
     77          1           0      -24.152125    0.692498    3.300848
     78          1           0      -25.589822    1.169418    4.195670
     79          1           0      -24.753132    2.402158    3.141710
     80         12           0       31.835369    0.586905   -0.493050
     81          6           0       30.289804   -2.580104    0.181849
     82          6           0       29.571880    1.893711    1.941853
     83          6           0       33.692515    3.365062   -0.144172
     84          6           0       34.302913   -1.060385   -2.194218
     85          7           0       30.190890   -0.283589    0.884050
     86          6           0       29.727569   -1.564405    0.963580
     87          6           0       28.559918   -1.699931    2.002212
     88          6           0       28.145832   -0.163321    2.197549
     89          6           0       29.416106    0.517825    1.713767
     90          6           0       26.959908    0.281910    1.372921
     91          6           0       28.933514   -2.514759    3.229449
     92          6           0       27.903169   -3.555867    3.738864
     93          1           0       26.958177   -3.233391    4.988207
     94          7           0       31.617008    2.488644    0.682389
     95          6           0       30.549683    2.821284    1.542456
     96          6           0       30.740072    4.197103    2.017828
     97          6           0       31.947400    4.655114    1.357268
     98          6           0       32.512073    3.507722    0.679949
     99          6           0       29.900874    4.930474    2.995241
    100          6           0       32.470567    6.069163    1.392435
    101          8           0       31.766792    6.926156    1.877713
    102          6           0       33.814644    6.496354    0.849282
    103          7           0       33.719351    0.974049   -0.986030
    104          6           0       34.196962    2.276446   -0.870112
    105          6           0       35.601740    2.303271   -1.476883
    106          6           0       35.685927    0.967551   -2.302537
    107          6           0       34.461551    0.258545   -1.830638
    108          6           0       36.050703    3.592832   -2.257435
    109          6           0       36.998383    0.129876   -2.212970
    110          6           0       37.696665   -0.216929   -3.487371
    111          7           0       32.202857   -1.352283   -1.045453
    112          6           0       33.220259   -1.888052   -1.815675
    113          6           0       32.919200   -3.285650   -2.181380
    114          6           0       31.783306   -3.586442   -1.333786
    115          6           0       31.434755   -2.395197   -0.689968
    116          6           0       33.640842   -4.226007   -3.110417
    117          6           0       30.836132   -4.680537   -0.967964
    118          8           0       30.832943   -5.840780   -1.266426
    119          6           0       29.936219   -4.067849    0.100282
    120          6           0       28.514203   -4.253277   -0.338138
    121          8           0       28.127679   -3.672818   -1.329754
    122          8           0       27.690193   -5.037712    0.523669
    123          6           0       26.228950   -5.059541    0.211292
    124          1           0       28.864219    2.343355    2.641716
    125          1           0       34.402704    4.193587   -0.152403
    126          1           0       35.008838   -1.498769   -2.902280
    127          1           0       27.663944   -2.125260    1.550989
    128          1           0       28.038877    0.089210    3.252418
    129          1           0       27.305264    0.491622    0.360834
    130          1           0       26.524369    1.143371    1.878984
    131          1           0       26.136792   -0.415804    1.215254
    132          1           0       29.053628   -1.796514    4.039909
    133          1           0       29.940362   -2.903212    3.076503
    134          1           0       28.526796   -4.417021    3.980076
    135          1           0       27.204191   -3.884384    2.969606
    136          1           0       29.228662    5.555561    2.408229
    137          1           0       30.524717    5.638824    3.540452
    138          1           0       29.318581    4.385597    3.739272
    139          1           0       34.092970    7.530137    1.053104
    140          1           0       33.740522    6.378389   -0.231848
    141          1           0       34.701424    5.915825    1.100949
    142          1           0       36.221913    2.335794   -0.580630
    143          1           0       35.416310    1.191700   -3.334173
    144          1           0       35.183063    4.173903   -2.571089
    145          1           0       36.698117    3.326875   -3.092835
    146          1           0       36.685061    4.212807   -1.624314
    147          1           0       36.786406   -0.795839   -1.678077
    148          1           0       37.662852    0.653065   -1.525453
    149          1           0       37.547004   -1.275568   -3.698434
    150          1           0       38.767603   -0.049126   -3.374009
    151          1           0       37.393822    0.313958   -4.389633
    152          1           0       32.983690   -5.029721   -3.441894
    153          1           0       34.494509   -4.613149   -2.553408
    154          1           0       34.071979   -3.631059   -3.915768
    155          1           0       30.211304   -4.517807    1.054323
    156          1           0       26.050680   -5.751564   -0.611943
    157          1           0       25.891069   -4.083716   -0.136919
    158          1           0       25.648761   -5.331155    1.092959
 ---------------------------------------------------------------------

 SCF Done:  E(RwB97XD) =  -4070.57605734     A.U. after   19 cycles

 Excitation energies and oscillator strengths:

 Excited State   1:      Singlet-A      1.6105 eV  769.85 nm  f=0.2875  <S**2>=0.000
     309 -> 315       -0.15950
     311 -> 313       -0.10740
     312 -> 314        0.68008
     309 <- 315       -0.10863
 This state for optimization and/or second-order correction.
 Total Energy, E(TD-HF/TD-DFT) =  -4070.51687280
 Copying the excited state density for this state as the 1-particle RhoCI density.

 Excited State   2:      Singlet-A      1.6114 eV  769.44 nm  f=0.4697  <S**2>=0.000
     310 -> 316        0.17310
     311 -> 313        0.67777
     312 -> 314        0.10775
     310 <- 316        0.11449

 Excited State   3:      Singlet-A      2.1827 eV  568.04 nm  f=0.1249  <S**2>=0.000
     310 -> 313        0.63924
     311 -> 316       -0.28434

 Excited State   4:      Singlet-A      2.2277 eV  556.56 nm  f=0.0763  <S**2>=0.000
     309 -> 314        0.61811
     312 -> 315        0.32524

 Excited State   5:      Singlet-A      3.1515 eV  393.42 nm  f=0.0019  <S**2>=0.000
     305 -> 313       -0.12211
     308 -> 313        0.66857
     311 -> 316        0.10229

 The electronic state is 1-A.
 Alpha  occ. eigenvalues --  -46.95667 -46.95650 -19.30563 -19.30513 -19.25679
 Alpha  occ. eigenvalues --  -19.24793 -19.24348 -19.24143 -19.22969 -19.22093
 Alpha  occ. eigenvalues --  -14.47401 -14.47069 -14.46266 -14.46193 -14.44365
 Alpha  occ. eigenvalues --  -14.43944 -14.43747 -14.43268 -10.44115 -10.42961
 Alpha  occ. eigenvalues --  -10.39525 -10.39443 -10.38448 -10.37524 -10.36061
 Alpha  occ. eigenvalues --  -10.36038 -10.35862 -10.35746 -10.35422 -10.35334
 Alpha  occ. eigenvalues --  -10.35009 -10.34964 -10.34949 -10.34703 -10.34525
 Alpha  occ. eigenvalues --  -10.34481 -10.34303 -10.34286 -10.33506 -10.33227
 Alpha  occ. eigenvalues --  -10.33117 -10.33063 -10.32951 -10.32903 -10.32852
 Alpha  occ. eigenvalues --  -10.32804 -10.32788 -10.32697 -10.32556 -10.32449
 Alpha  occ. eigenvalues --  -10.32397 -10.32092 -10.32062 -10.31964 -10.31879
 Alpha  occ. eigenvalues --  -10.31853 -10.31829 -10.31682 -10.31669 -10.31629
 Alpha  occ. eigenvalues --  -10.31550 -10.31391 -10.31295 -10.31276 -10.31224
 Alpha  occ. eigenvalues --  -10.31110 -10.31043 -10.30854 -10.30822 -10.30794
 Alpha  occ. eigenvalues --  -10.30704 -10.30603 -10.30493 -10.30392 -10.30362
 Alpha  occ. eigenvalues --  -10.30291 -10.30236 -10.30218 -10.29905 -10.29888
 Alpha  occ. eigenvalues --  -10.29867 -10.29740 -10.29626 -10.29539 -10.29277
 Alpha  occ. eigenvalues --  -10.27943  -3.21700  -3.21591  -1.95232  -1.95149
 Alpha  occ. eigenvalues --   -1.94822  -1.94736  -1.94671  -1.94538  -1.18227
 Alpha  occ. eigenvalues --   -1.17530  -1.13994  -1.12953  -1.12399  -1.10100
 Alpha  occ. eigenvalues --   -1.09635  -1.08853  -1.06828  -1.06579  -1.06031
 Alpha  occ. eigenvalues --   -1.05592  -1.04925  -1.04802  -1.03537  -1.02351
 Alpha  occ. eigenvalues --   -0.94756  -0.93878  -0.91265  -0.91260  -0.90883
 Alpha  occ. eigenvalues --   -0.90762  -0.90499  -0.90347  -0.89532  -0.88800
 Alpha  occ. eigenvalues --   -0.88645  -0.88173  -0.87997  -0.87587  -0.86401
 Alpha  occ. eigenvalues --   -0.86291  -0.85852  -0.85597  -0.84666  -0.84406
 Alpha  occ. eigenvalues --   -0.84258  -0.83738  -0.82914  -0.82495  -0.82175
 Alpha  occ. eigenvalues --   -0.82113  -0.80085  -0.80024  -0.79657  -0.79435
 Alpha  occ. eigenvalues --   -0.78745  -0.78419  -0.78257  -0.77920  -0.77190
 Alpha  occ. eigenvalues --   -0.77165  -0.75000  -0.74645  -0.73752  -0.73686
 Alpha  occ. eigenvalues --   -0.71560  -0.71444  -0.70965  -0.70897  -0.69917
 Alpha  occ. eigenvalues --   -0.69564  -0.68919  -0.68685  -0.68140  -0.67856
 Alpha  occ. eigenvalues --   -0.67374  -0.67063  -0.66681  -0.66553  -0.66321
 Alpha  occ. eigenvalues --   -0.65514  -0.64345  -0.64110  -0.61803  -0.61666
 Alpha  occ. eigenvalues --   -0.61504  -0.61192  -0.61116  -0.61043  -0.61027
 Alpha  occ. eigenvalues --   -0.60328  -0.59934  -0.59632  -0.59525  -0.59188
 Alpha  occ. eigenvalues --   -0.58762  -0.58496  -0.58159  -0.57601  -0.57422
 Alpha  occ. eigenvalues --   -0.57099  -0.56527  -0.56233  -0.56179  -0.55831
 Alpha  occ. eigenvalues --   -0.55628  -0.55440  -0.55311  -0.55056  -0.54842
 Alpha  occ. eigenvalues --   -0.54744  -0.54519  -0.54245  -0.54167  -0.53767
 Alpha  occ. eigenvalues --   -0.53736  -0.53670  -0.53376  -0.53237  -0.53144
 Alpha  occ. eigenvalues --   -0.53027  -0.52986  -0.52837  -0.52578  -0.52340
 Alpha  occ. eigenvalues --   -0.51895  -0.51866  -0.51809  -0.51675  -0.51546
 Alpha  occ. eigenvalues --   -0.51533  -0.51240  -0.51013  -0.50838  -0.50714
 Alpha  occ. eigenvalues --   -0.50645  -0.50526  -0.50261  -0.50092  -0.50069
 Alpha  occ. eigenvalues --   -0.49697  -0.49601  -0.49561  -0.49119  -0.49008
 Alpha  occ. eigenvalues --   -0.48932  -0.48857  -0.48783  -0.48477  -0.48369
 Alpha  occ. eigenvalues --   -0.48339  -0.48147  -0.48129  -0.47982  -0.47901
 Alpha  occ. eigenvalues --   -0.47749  -0.47661  -0.47414  -0.47198  -0.47115
 Alpha  occ. eigenvalues --   -0.46902  -0.46890  -0.46596  -0.46330  -0.45933
 Alpha  occ. eigenvalues --   -0.45844  -0.45717  -0.45565  -0.45401  -0.45400
 Alpha  occ. eigenvalues --   -0.45309  -0.45243  -0.44869  -0.44814  -0.44652
 Alpha  occ. eigenvalues --   -0.44550  -0.44487  -0.44484  -0.44392  -0.44233
 Alpha  occ. eigenvalues --   -0.44060  -0.43909  -0.43832  -0.43679  -0.43550
 Alpha  occ. eigenvalues --   -0.43018  -0.42958  -0.42780  -0.42727  -0.42469
 Alpha  occ. eigenvalues --   -0.42152  -0.41823  -0.41246  -0.41182  -0.40994
 Alpha  occ. eigenvalues --   -0.40446  -0.40414  -0.39650  -0.39356  -0.39351
 Alpha  occ. eigenvalues --   -0.39237  -0.39157  -0.38609  -0.38564  -0.38285
 Alpha  occ. eigenvalues --   -0.37797  -0.37763  -0.36995  -0.36389  -0.36314
 Alpha  occ. eigenvalues --   -0.35813  -0.35455  -0.34922  -0.33745  -0.33631
 Alpha  occ. eigenvalues --   -0.33318  -0.33167  -0.32396  -0.32322  -0.31860
 Alpha  occ. eigenvalues --   -0.31544  -0.31148  -0.30912  -0.26397  -0.26224
 Alpha  occ. eigenvalues --   -0.22917  -0.22579
 Alpha virt. eigenvalues --   -0.07340  -0.06921   0.00130   0.00437   0.02722
 Alpha virt. eigenvalues --    0.03146   0.04237   0.04472   0.04639   0.04824
 Alpha virt. eigenvalues --    0.06515   0.06921   0.07080   0.07774   0.07980

 Mulliken charges:
               1
     1  Mg   0.954200
     2  C   -0.033121
     3  C   -0.082915
     4  C   -0.079747
     5  C   -0.083045
     6  N   -0.368444
     7  C   -0.053257
     8  C   -0.005202
     9  C   -0.142249
    10  C    0.044406
    11  C    0.037058
    12  C    0.030786
    13  C   -0.102251
    14  H    0.037276
    15  N   -0.470988
    16  C    0.144954
    17  C   -0.159875
    18  C   -0.079486
    19  C    0.169582
    20  C    0.104758
    21  C    0.036121
    22  O   -0.227570
    23  C    0.002014
    24  N   -0.386208
    25  C    0.091624
    26  C   -0.126883
    27  C   -0.015537
    28  C    0.025822
    29  C    0.031674
    30  C   -0.022238
    31  C   -0.061813
    32  N   -0.378167
    33  C    0.092290
    34  C   -0.180410
    35  C   -0.010847
    36  C    0.118981
    37  C    0.073238
    38  C    0.083825
    39  O   -0.250552
    40  C   -0.041195
    41  C    0.265107
    42  O   -0.260770
    43  O   -0.368574
    44  C    0.138662
    45  H    0.004110
    46  H   -0.041768
    47  H   -0.008981
    48  H    0.025766
    49  H    0.039994
    50  H    0.048685
    51  H    0.050477
    52  H    0.040819
    53  H    0.031486
    54  H    0.017640
    55  H    0.047102
    56  H    0.072063
    57  H    0.073556
    58  H    0.022208
    59  H    0.060949
    60  H    0.076676
    61  H    0.048887
    62  H    0.056613
    63  H    0.052206
    64  H    0.031509
    65  H    0.041499
    66  H    0.036520
    67  H    0.042384
    68  H    0.044460
    69  H    0.024544
    70  H    0.051163
    71  H    0.034948
    72  H    0.047437
    73  H    0.051624
    74  H    0.071753
    75  H    0.038763
    76  H    0.074320
    77  H    0.059700
    78  H    0.067131
    79  H    0.072724
    80  Mg   0.981445
    81  C   -0.076505
    82  C   -0.054014
    83  C   -0.080076
    84  C   -0.124305
    85  N   -0.312948
    86  C   -0.015848
    87  C   -0.066064
    88  C   -0.119687
    89  C    0.049008
    90  C    0.041506
    91  C    0.037340
    92  C   -0.107605
    93  H    0.023538
    94  N   -0.419655
    95  C    0.112231
    96  C   -0.143692
    97  C   -0.073750
    98  C    0.168808
    99  C    0.081105
   100  C    0.035413
   101  O   -0.234898
   102  C   -0.011945
   103  N   -0.451715
   104  C    0.092041
   105  C   -0.128607
   106  C   -0.033700
   107  C    0.089130
   108  C    0.013846
   109  C    0.000858
   110  C   -0.047212
   111  N   -0.442248
   112  C    0.135285
   113  C   -0.189423
   114  C   -0.106327
   115  C    0.178322
   116  C    0.090758
   117  C    0.132675
   118  O   -0.174089
   119  C   -0.015117
   120  C    0.278287
   121  O   -0.234417
   122  O   -0.404961
   123  C    0.133375
   124  H   -0.006129
   125  H   -0.037465
   126  H   -0.011905
   127  H    0.025598
   128  H    0.028730
   129  H    0.043276
   130  H    0.042637
   131  H    0.036712
   132  H    0.037366
   133  H    0.040603
   134  H    0.055477
   135  H    0.048118
   136  H    0.055539
   137  H    0.053881
   138  H    0.036868
   139  H    0.051234
   140  H    0.050066
   141  H    0.057907
   142  H    0.051501
   143  H    0.033584
   144  H    0.044833
   145  H    0.038335
   146  H    0.031047
   147  H    0.038676
   148  H    0.025390
   149  H    0.036247
   150  H    0.036904
   151  H    0.035846
   152  H    0.071573
   153  H    0.053870
   154  H    0.034431
   155  H    0.072708
   156  H    0.063782
   157  H    0.051504
   158  H    0.065091
 Sum of Mulliken charges =  -0.00000

 Dipole moment (field-independent basis, Debye):
    X=             -1.0597    Y=             -1.6669    Z=             -3.8511  Tot=              4.3281
 Quadrupole moment (field-independent basis, Debye-Ang):
   XX=           -194.5354   YY=           -572.6668   ZZ=           -503.5114
   XY=             61.3979   XZ=             67.4069   YZ=            -24.5672

 Normal termination of Gaussian 16 at Sat Sep 18 15:34:59 2021.
