 Gaussian 16, Revision A.03,
 Gaussian 16:  ES64L-G16RevA.03 25-Dec-2016

 --------------------------------
 #p wB97XD/Def2SVP td=(nstates=5)
 --------------------------------

 --------------------------------
 TDDFT excited states in gaussian
 --------------------------------
 Symbolic Z-matrix:
 Charge =  0 Multiplicity = 1

                         Standard orientation:
 ---------------------------------------------------------------------
 Center     Atomic      Atomic             Coordinates (Angstroms)
 Number     Number       Type             X           Y           Z
 ---------------------------------------------------------------------
      1         12           0       20.281414   -0.716535    0.345558
      2          6           0       19.524169    2.219713   -1.361555
      3          6           0       21.584678    1.075396    2.883650
      4          6           0       21.375735   -3.612050    1.703474
      5          6           0       19.382484   -2.465070   -2.487168
      6          7           0       20.530769    1.459487    0.683356
      7          6           0       19.955530    2.460354   -0.057535
      8          6           0       20.155389    3.771319    0.602872
      9          6           0       20.856867    3.484881    1.935632
     10          6           0       21.014270    1.903792    1.899236
     11          6           0       22.139861    4.230764    2.268040
     12          6           0       18.747732    4.585121    0.752299
     13          6           0       18.622962    5.944701    0.025500
     14          1           0       17.924562    7.111067    0.680272
     15          7           0       21.222209   -1.213726    2.104519
     16          6           0       21.711298   -0.318445    3.043937
     17          6           0       22.361297   -1.029009    4.084341
     18          6           0       22.321032   -2.413203    3.764360
     19          6           0       21.600808   -2.463011    2.487870
     20          6           0       22.847568   -0.222648    5.351527
     21          6           0       22.980415   -3.525911    4.577358
     22          8           0       23.013335   -4.724392    4.259597
     23          6           0       23.567578   -3.217354    5.884094
     24          7           0       20.616372   -2.755905   -0.353391
     25          6           0       20.960505   -3.774886    0.406671
     26          6           0       21.037177   -5.079689   -0.417790
     27          6           0       19.952180   -4.703845   -1.502387
     28          6           0       19.949385   -3.179610   -1.442776
     29          6           0       22.381952   -5.516388   -1.108545
     30          6           0       18.480949   -5.308873   -1.300277
     31          6           0       17.755277   -4.974529   -0.061858
     32          7           0       19.606455   -0.292226   -1.649412
     33          6           0       19.256879   -1.137795   -2.720488
     34          6           0       18.832434   -0.344823   -3.829909
     35          6           0       18.973264    0.958607   -3.396937
     36          6           0       19.349722    0.932300   -2.014116
     37          6           0       18.608094   -0.809171   -5.185174
     38          6           0       18.664670    2.272032   -3.718036
     39          8           0       18.212507    2.782028   -4.748323
     40          6           0       19.084823    3.188634   -2.480184
     41          6           0       20.271779    3.964717   -2.946968
     42          8           0       21.358776    3.612557   -3.354594
     43          8           0       19.900041    5.243550   -2.866573
     44          6           0       20.936498    6.255292   -3.255196
     45          1           0       21.763297    1.749701    3.723776
     46          1           0       21.604310   -4.529275    2.248911
     47          1           0       19.039440   -3.036186   -3.352143
     48          1           0       20.814528    4.321084   -0.067840
     49          1           0       20.160964    3.685167    2.750014
     50          1           0       22.820001    3.463696    1.899625
     51          1           0       22.260527    4.524589    3.310884
     52          1           0       22.380401    5.154198    1.741949
     53          1           0       18.534880    4.720516    1.812294
     54          1           0       17.895432    4.069699    0.308838
     55          1           0       18.003996    5.757615   -0.852463
     56          1           0       19.574661    6.277181   -0.386882
     57          1           0       23.896290   -0.460565    5.528500
     58          1           0       22.234043   -0.750706    6.081589
     59          1           0       22.838062    0.866506    5.308472
     60          1           0       24.334519   -2.448963    5.797158
     61          1           0       24.192762   -4.075037    6.131205
     62          1           0       22.851219   -3.036307    6.685849
     63          1           0       20.544307   -5.869080    0.149872
     64          1           0       20.356412   -5.126658   -2.421821
     65          1           0       22.965855   -4.713867   -1.557626
     66          1           0       22.036694   -6.241970   -1.845922
     67          1           0       23.041787   -6.006625   -0.392244
     68          1           0       18.457564   -6.398824   -1.312967
     69          1           0       17.770196   -4.853914   -1.990104
     70          1           0       17.349524   -3.986514   -0.274764
     71          1           0       18.308096   -4.888329    0.874084
     72          1           0       16.895999   -5.583300    0.217537
     73          1           0       19.611418   -0.844160   -5.611366
     74          1           0       17.981863   -0.166922   -5.803737
     75          1           0       18.066067   -1.754124   -5.235896
     76          1           0       18.266731    3.797177   -2.094676
     77          1           0       21.261612    6.683671   -2.306832
     78          1           0       20.499470    6.985571   -3.935850
     79          1           0       21.846355    5.885064   -3.728466
     80         12           0      -20.965606   -0.540660   -0.229263
     81          6           0      -18.640302    2.106168    0.108081
     82          6           0      -23.324090    1.493743    1.069977
     83          6           0      -23.038107   -3.066555   -0.436397
     84          6           0      -18.169907   -2.695577   -0.868202
     85          7           0      -20.983331    1.574820    0.624160
     86          6           0      -19.967761    2.487937    0.394790
     87          6           0      -20.531392    3.839491    0.673058
     88          6           0      -21.793534    3.574099    1.494266
     89          6           0      -22.112097    2.126199    1.044594
     90          6           0      -21.481040    3.619710    3.036982
     91          6           0      -20.841755    4.780388   -0.611844
     92          6           0      -20.482001    6.297551   -0.586315
     93          1           0      -20.951510    7.108064    0.656298
     94          7           0      -22.940887   -0.725473    0.281776
     95          6           0      -23.702168    0.209916    0.768166
     96          6           0      -25.038015   -0.361919    1.010667
     97          6           0      -25.069529   -1.643967    0.382888
     98          6           0      -23.633997   -1.884192    0.061656
     99          6           0      -26.261012    0.281331    1.760276
    100          6           0      -26.220453   -2.607534    0.095179
    101          8           0      -26.074654   -3.757693   -0.360930
    102          6           0      -27.550955   -2.253926    0.565482
    103          7           0      -20.575857   -2.675429   -0.444873
    104          6           0      -21.675895   -3.511803   -0.615679
    105          6           0      -21.174139   -4.916083   -1.129962
    106          6           0      -19.662330   -4.685041   -1.376189
    107          6           0      -19.442535   -3.245038   -0.907163
    108          6           0      -21.566600   -6.067025   -0.203205
    109          6           0      -19.142457   -5.015517   -2.797927
    110          6           0      -17.759406   -5.696878   -2.919052
    111          7           0      -18.843800   -0.392267   -0.348616
    112          6           0      -17.845672   -1.338218   -0.559838
    113          6           0      -16.586271   -0.652164   -0.698397
    114          6           0      -16.844867    0.683746   -0.387883
    115          6           0      -18.245248    0.829828   -0.187342
    116          6           0      -15.357209   -1.208438   -1.086002
    117          6           0      -16.265727    2.030622   -0.275995
    118          8           0      -15.136779    2.464357   -0.442521
    119          6           0      -17.439170    3.017747    0.030596
    120          6           0      -17.092004    3.745170    1.317287
    121          8           0      -17.222380    3.471830    2.488992
    122          8           0      -16.645682    4.945802    0.845649
    123          6           0      -16.527372    6.065009    1.810461
    124          1           0      -24.117260    2.165492    1.405918
    125          1           0      -23.792672   -3.815238   -0.686255
    126          1           0      -17.347042   -3.284177   -1.278051
    127          1           0      -19.903790    4.506965    1.264087
    128          1           0      -22.644645    4.167942    1.161899
    129          1           0      -22.308084    3.985459    3.644591
    130          1           0      -20.697281    4.331877    3.296293
    131          1           0      -21.294352    2.582783    3.314222
    132          1           0      -21.875289    4.633305   -0.923598
    133          1           0      -20.320696    4.386242   -1.485129
    134          1           0      -21.069238    6.684607   -1.419836
    135          1           0      -19.400552    6.267542   -0.719453
    136          1           0      -27.111512    0.540165    1.130003
    137          1           0      -25.891738    1.182038    2.251450
    138          1           0      -26.762792   -0.370596    2.475383
    139          1           0      -27.846641   -1.271660    0.195996
    140          1           0      -27.591382   -2.261220    1.654782
    141          1           0      -28.249633   -2.920485    0.060810
    142          1           0      -21.597748   -5.036590   -2.127138
    143          1           0      -19.068027   -5.212948   -0.630639
    144          1           0      -20.783751   -6.205699    0.543188
    145          1           0      -21.633033   -7.039229   -0.690535
    146          1           0      -22.400770   -5.749445    0.421549
    147          1           0      -19.172539   -4.173074   -3.488756
    148          1           0      -19.835584   -5.674936   -3.321995
    149          1           0      -17.077554   -4.874084   -3.134461
    150          1           0      -17.834383   -6.315693   -3.813804
    151          1           0      -17.514320   -6.217895   -1.993945
    152          1           0      -14.424705   -0.713936   -0.814900
    153          1           0      -15.412942   -1.366884   -2.163443
    154          1           0      -15.304370   -2.169024   -0.574850
    155          1           0      -17.564791    3.716250   -0.796492
    156          1           0      -16.941011    6.924660    1.283983
    157          1           0      -15.516726    6.328983    2.120898
    158          1           0      -17.141474    5.865766    2.688296
 ---------------------------------------------------------------------

 SCF Done:  E(RwB97XD) =  -4070.58093318     A.U. after   20 cycles

 Excitation energies and oscillator strengths:

 Excited State   1:      Singlet-A      1.6463 eV  753.09 nm  f=0.3762  <S**2>=0.000
     309 -> 316       -0.18124
     311 -> 313        0.68355
     309 <- 316       -0.11550
 This state for optimization and/or second-order correction.
 Total Energy, E(TD-HF/TD-DFT) =  -4070.52043137
 Copying the excited state density for this state as the 1-particle RhoCI density.

 Excited State   2:      Singlet-A      1.6742 eV  740.54 nm  f=0.3785  <S**2>=0.000
     310 -> 315       -0.19696
     312 -> 314        0.67915
     310 <- 315       -0.11757

 Excited State   3:      Singlet-A      2.1205 eV  584.71 nm  f=0.1341  <S**2>=0.000
     309 -> 313        0.64945
     311 -> 316        0.26625

 Excited State   4:      Singlet-A      2.2066 eV  561.88 nm  f=0.0674  <S**2>=0.000
     310 -> 314        0.62034
     312 -> 315        0.32388

 Excited State   5:      Singlet-A      3.4058 eV  364.04 nm  f=0.1375  <S**2>=0.000
     308 -> 314        0.57104
     310 -> 314        0.13915
     312 -> 315       -0.36117

 The electronic state is 1-A.
 Alpha  occ. eigenvalues --  -46.95708 -46.95664 -19.30260 -19.29606 -19.24974
 Alpha  occ. eigenvalues --  -19.24305 -19.24015 -19.23729 -19.23684 -19.23297
 Alpha  occ. eigenvalues --  -14.46566 -14.46406 -14.46369 -14.46001 -14.44432
 Alpha  occ. eigenvalues --  -14.44297 -14.43561 -14.43557 -10.43088 -10.42439
 Alpha  occ. eigenvalues --  -10.39496 -10.39024 -10.38833 -10.38182 -10.35777
 Alpha  occ. eigenvalues --  -10.35458 -10.35453 -10.35221 -10.35202 -10.34832
 Alpha  occ. eigenvalues --  -10.34822 -10.34615 -10.34328 -10.34286 -10.34087
 Alpha  occ. eigenvalues --  -10.34044 -10.33992 -10.33835 -10.33802 -10.33652
 Alpha  occ. eigenvalues --  -10.33563 -10.33109 -10.32985 -10.32793 -10.32594
 Alpha  occ. eigenvalues --  -10.32559 -10.32278 -10.32269 -10.32200 -10.31990
 Alpha  occ. eigenvalues --  -10.31964 -10.31936 -10.31930 -10.31833 -10.31832
 Alpha  occ. eigenvalues --  -10.31641 -10.31618 -10.31587 -10.31583 -10.31581
 Alpha  occ. eigenvalues --  -10.31529 -10.31461 -10.31446 -10.31350 -10.31299
 Alpha  occ. eigenvalues --  -10.31253 -10.31178 -10.30768 -10.30570 -10.30516
 Alpha  occ. eigenvalues --  -10.30311 -10.30304 -10.30301 -10.30228 -10.30100
 Alpha  occ. eigenvalues --  -10.29923 -10.29913 -10.29838 -10.29632 -10.29563
 Alpha  occ. eigenvalues --  -10.29472 -10.29437 -10.29093 -10.28838 -10.28689
 Alpha  occ. eigenvalues --  -10.28527  -3.21553  -3.21527  -1.95136  -1.95117
 Alpha  occ. eigenvalues --   -1.94674  -1.94625  -1.94511  -1.94510  -1.19178
 Alpha  occ. eigenvalues --   -1.18290  -1.11826  -1.11583  -1.11321  -1.10808
 Alpha  occ. eigenvalues --   -1.09967  -1.09546  -1.07417  -1.07188  -1.06291
 Alpha  occ. eigenvalues --   -1.05946  -1.05387  -1.05050  -1.04643  -1.04092
 Alpha  occ. eigenvalues --   -0.94746  -0.94183  -0.91109  -0.90765  -0.90603
 Alpha  occ. eigenvalues --   -0.90366  -0.90302  -0.89878  -0.89872  -0.89513
 Alpha  occ. eigenvalues --   -0.89488  -0.89074  -0.88807  -0.88794  -0.86553
 Alpha  occ. eigenvalues --   -0.86138  -0.86137  -0.85483  -0.84975  -0.84612
 Alpha  occ. eigenvalues --   -0.84407  -0.83923  -0.83500  -0.83445  -0.82687
 Alpha  occ. eigenvalues --   -0.82567  -0.80700  -0.80347  -0.79585  -0.79372
 Alpha  occ. eigenvalues --   -0.79295  -0.78951  -0.77881  -0.77786  -0.77281
 Alpha  occ. eigenvalues --   -0.77048  -0.75467  -0.74495  -0.73790  -0.73649
 Alpha  occ. eigenvalues --   -0.71327  -0.71027  -0.70861  -0.70667  -0.69717
 Alpha  occ. eigenvalues --   -0.69694  -0.69325  -0.69154  -0.67716  -0.67428
 Alpha  occ. eigenvalues --   -0.67365  -0.67285  -0.66967  -0.66763  -0.66325
 Alpha  occ. eigenvalues --   -0.65943  -0.64036  -0.63938  -0.62486  -0.62413
 Alpha  occ. eigenvalues --   -0.61900  -0.61558  -0.61295  -0.61230  -0.60584
 Alpha  occ. eigenvalues --   -0.60290  -0.60237  -0.59895  -0.59878  -0.59496
 Alpha  occ. eigenvalues --   -0.58408  -0.58160  -0.57858  -0.57681  -0.57465
 Alpha  occ. eigenvalues --   -0.57135  -0.56980  -0.56757  -0.56630  -0.56404
 Alpha  occ. eigenvalues --   -0.55640  -0.55508  -0.55280  -0.55183  -0.55151
 Alpha  occ. eigenvalues --   -0.55136  -0.54934  -0.54877  -0.54632  -0.54333
 Alpha  occ. eigenvalues --   -0.54125  -0.54035  -0.53833  -0.53604  -0.53504
 Alpha  occ. eigenvalues --   -0.53152  -0.53108  -0.53004  -0.52718  -0.52347
 Alpha  occ. eigenvalues --   -0.52317  -0.51897  -0.51714  -0.51647  -0.51594
 Alpha  occ. eigenvalues --   -0.51373  -0.51329  -0.51118  -0.50946  -0.50932
 Alpha  occ. eigenvalues --   -0.50732  -0.50427  -0.50265  -0.50100  -0.50014
 Alpha  occ. eigenvalues --   -0.49571  -0.49312  -0.49298  -0.49086  -0.49029
 Alpha  occ. eigenvalues --   -0.48855  -0.48750  -0.48597  -0.48573  -0.48191
 Alpha  occ. eigenvalues --   -0.48162  -0.47901  -0.47858  -0.47743  -0.47465
 Alpha  occ. eigenvalues --   -0.47163  -0.46967  -0.46816  -0.46606  -0.46548
 Alpha  occ. eigenvalues --   -0.46378  -0.46303  -0.46067  -0.46018  -0.46001
 Alpha  occ. eigenvalues --   -0.45767  -0.45617  -0.45607  -0.45280  -0.45133
 Alpha  occ. eigenvalues --   -0.44946  -0.44914  -0.44891  -0.44686  -0.44452
 Alpha  occ. eigenvalues --   -0.44228  -0.44131  -0.44089  -0.44047  -0.43921
 Alpha  occ. eigenvalues --   -0.43732  -0.43602  -0.43501  -0.43202  -0.42996
 Alpha  occ. eigenvalues --   -0.42824  -0.42799  -0.42628  -0.42438  -0.42124
 Alpha  occ. eigenvalues --   -0.42071  -0.41762  -0.41482  -0.41389  -0.40835
 Alpha  occ. eigenvalues --   -0.40671  -0.40021  -0.39962  -0.39690  -0.39623
 Alpha  occ. eigenvalues --   -0.39328  -0.39068  -0.38574  -0.38473  -0.38416
 Alpha  occ. eigenvalues --   -0.38035  -0.37836  -0.36650  -0.36459  -0.36238
 Alpha  occ. eigenvalues --   -0.35914  -0.35731  -0.35312  -0.33685  -0.33672
 Alpha  occ. eigenvalues --   -0.33364  -0.32958  -0.32730  -0.32695  -0.32494
 Alpha  occ. eigenvalues --   -0.32434  -0.32136  -0.31422  -0.25917  -0.25890
 Alpha  occ. eigenvalues --   -0.23243  -0.22775
 Alpha virt. eigenvalues --   -0.07328  -0.06622  -0.00145   0.00302   0.01927
 Alpha virt. eigenvalues --    0.02347   0.04285   0.04365   0.05021   0.05316
 Alpha virt. eigenvalues --    0.07760   0.07854   0.08043   0.08306   0.08636

 Mulliken charges:
               1
     1  Mg   0.939282
     2  C   -0.014736
     3  C   -0.073892
     4  C   -0.062228
     5  C   -0.108282
     6  N   -0.378640
     7  C    0.014510
     8  C   -0.066747
     9  C   -0.052583
    10  C   -0.019092
    11  C    0.003417
    12  C    0.003796
    13  C   -0.135754
    14  H    0.038485
    15  N   -0.463732
    16  C    0.198418
    17  C   -0.182613
    18  C   -0.073575
    19  C    0.131123
    20  C    0.083043
    21  C    0.052669
    22  O   -0.248061
    23  C   -0.009962
    24  N   -0.296374
    25  C    0.020026
    26  C   -0.042468
    27  C   -0.112719
    28  C    0.096011
    29  C    0.041902
    30  C    0.013767
    31  C   -0.088548
    32  N   -0.408879
    33  C    0.114962
    34  C   -0.133286
    35  C    0.022722
    36  C    0.108310
    37  C    0.062415
    38  C    0.079694
    39  O   -0.226657
    40  C   -0.091436
    41  C    0.269262
    42  O   -0.244586
    43  O   -0.346895
    44  C    0.120684
    45  H   -0.007326
    46  H    0.014695
    47  H   -0.002414
    48  H    0.047171
    49  H    0.033969
    50  H    0.048075
    51  H    0.042006
    52  H    0.040844
    53  H    0.041780
    54  H    0.042606
    55  H    0.057944
    56  H    0.038071
    57  H    0.037916
    58  H    0.060542
    59  H    0.052904
    60  H    0.039046
    61  H    0.045880
    62  H    0.075417
    63  H    0.019730
    64  H    0.022992
    65  H    0.050093
    66  H    0.040549
    67  H    0.051566
    68  H    0.036066
    69  H    0.028712
    70  H    0.022211
    71  H    0.034920
    72  H    0.039599
    73  H    0.074304
    74  H    0.055821
    75  H    0.036003
    76  H    0.056756
    77  H    0.046816
    78  H    0.068340
    79  H    0.073643
    80  Mg   0.942033
    81  C   -0.052013
    82  C   -0.101247
    83  C   -0.067725
    84  C   -0.090847
    85  N   -0.320398
    86  C    0.052378
    87  C   -0.094503
    88  C   -0.080794
    89  C   -0.005864
    90  C    0.041944
    91  C   -0.020903
    92  C   -0.113942
    93  H    0.029593
    94  N   -0.428191
    95  C    0.195091
    96  C   -0.167321
    97  C   -0.071084
    98  C    0.113765
    99  C    0.058856
   100  C    0.067074
   101  O   -0.250753
   102  C   -0.004472
   103  N   -0.356296
   104  C    0.033264
   105  C   -0.062128
   106  C   -0.056347
   107  C    0.068566
   108  C    0.048406
   109  C   -0.039101
   110  C   -0.040913
   111  N   -0.439299
   112  C    0.135229
   113  C   -0.196813
   114  C   -0.015745
   115  C    0.167637
   116  C    0.061237
   117  C    0.109487
   118  O   -0.199664
   119  C   -0.077065
   120  C    0.279466
   121  O   -0.226466
   122  O   -0.373828
   123  C    0.131571
   124  H   -0.012443
   125  H    0.026192
   126  H   -0.012832
   127  H    0.024501
   128  H    0.020081
   129  H    0.029349
   130  H    0.045918
   131  H    0.057420
   132  H    0.021582
   133  H    0.024540
   134  H    0.065223
   135  H    0.071847
   136  H    0.043674
   137  H    0.040984
   138  H    0.041461
   139  H    0.037773
   140  H    0.075243
   141  H    0.054628
   142  H    0.039211
   143  H    0.033344
   144  H    0.015950
   145  H    0.046702
   146  H    0.047932
   147  H    0.025324
   148  H    0.022981
   149  H    0.043266
   150  H    0.039866
   151  H    0.045424
   152  H    0.060006
   153  H    0.054190
   154  H    0.037927
   155  H    0.081399
   156  H    0.047559
   157  H    0.063811
   158  H    0.058087
 Sum of Mulliken charges =  -0.00000

 Dipole moment (field-independent basis, Debye):
    X=             -4.2644    Y=              1.8796    Z=              2.1262  Tot=              5.1223
 Quadrupole moment (field-independent basis, Debye-Ang):
   XX=           -366.5943   YY=           -475.6302   ZZ=           -510.2515
   XY=            -16.7175   XZ=             95.6969   YZ=             37.9647

 Normal termination of Gaussian 16 at Sat Sep 18 20:07:49 2021.
