 Gaussian 16, Revision A.03,
 Gaussian 16:  ES64L-G16RevA.03 25-Dec-2016

 --------------------------------
 #p wB97XD/Def2SVP td=(nstates=5)
 --------------------------------

 --------------------------------
 TDDFT excited states in gaussian
 --------------------------------
 Symbolic Z-matrix:
 Charge =  0 Multiplicity = 1

                         Standard orientation:
 ---------------------------------------------------------------------
 Center     Atomic      Atomic             Coordinates (Angstroms)
 Number     Number       Type             X           Y           Z
 ---------------------------------------------------------------------
      1         12           0      -28.467310    0.048372   -0.741607
      2          6           0      -24.996127   -0.289291    0.308069
      3          6           0      -28.824304   -3.310723   -0.126292
      4          6           0      -31.731534    0.566826   -0.233215
      5          6           0      -27.893939    3.326369   -1.428860
      6          7           0      -27.073370   -1.566390    0.205221
      7          6           0      -25.661524   -1.477393    0.482168
      8          6           0      -25.109939   -2.877837    0.763747
      9          6           0      -26.225364   -3.841761    0.262225
     10          6           0      -27.491499   -2.896268    0.070290
     11          6           0      -25.865679   -4.579766   -1.113153
     12          6           0      -24.552849   -3.134367    2.133494
     13          6           0      -24.937301   -2.143990    3.257968
     14          1           0      -24.547639   -2.239969    4.744374
     15          7           0      -30.105872   -1.241646   -0.377800
     16          6           0      -30.029068   -2.595018   -0.133535
     17          6           0      -31.423408   -3.127177   -0.027074
     18          6           0      -32.213650   -1.983449    0.054008
     19          6           0      -31.388196   -0.792167   -0.130521
     20          6           0      -31.677124   -4.587739    0.097639
     21          6           0      -33.747471   -1.990411    0.318614
     22          8           0      -34.278967   -3.060985    0.554128
     23          6           0      -34.590747   -0.765983    0.453118
     24          7           0      -29.570022    1.779029   -0.679369
     25          6           0      -30.957397    1.672831   -0.588212
     26          6           0      -31.627942    3.023583   -0.838657
     27          6           0      -30.478792    3.856600   -1.513790
     28          6           0      -29.275071    2.951136   -1.243375
     29          6           0      -32.933700    3.057915   -1.673826
     30          6           0      -30.297603    5.321060   -1.000376
     31          6           0      -30.778133    6.474536   -1.994813
     32          7           0      -26.788244    1.299168   -0.686555
     33          6           0      -26.707796    2.624851   -1.087380
     34          6           0      -25.323651    3.030054   -1.098307
     35          6           0      -24.684060    1.941975   -0.489064
     36          6           0      -25.637691    0.913659   -0.287990
     37          6           0      -24.846826    4.430356   -1.521167
     38          6           0      -23.423167    1.410568   -0.070775
     39          8           0      -22.324915    1.990926   -0.186697
     40          6           0      -23.508562   -0.124938    0.344057
     41          6           0      -22.853369   -0.183693    1.665949
     42          8           0      -23.071273    0.555226    2.631881
     43          8           0      -22.060472   -1.283078    1.654003
     44          6           0      -21.142235   -1.451344    2.823708
     45          1           0      -28.940181   -4.375068    0.086429
     46          1           0      -32.802062    0.718088   -0.078081
     47          1           0      -27.723015    4.347327   -1.775482
     48          1           0      -24.303777   -2.857029    0.030376
     49          1           0      -26.567145   -4.534251    1.031678
     50          1           0      -25.764700   -5.622452   -0.814590
     51          1           0      -24.963129   -4.138090   -1.536240
     52          1           0      -26.744134   -4.457331   -1.747734
     53          1           0      -23.476205   -3.243134    2.003969
     54          1           0      -24.953663   -4.129097    2.331195
     55          1           0      -26.026333   -2.099914    3.223864
     56          1           0      -24.549030   -1.153651    3.019274
     57          1           0      -32.044454   -4.740172    1.112076
     58          1           0      -30.739811   -5.111757   -0.086858
     59          1           0      -32.375553   -4.900427   -0.679377
     60          1           0      -34.399986   -0.098938    1.292947
     61          1           0      -35.638114   -0.996339    0.645985
     62          1           0      -34.472958   -0.336379   -0.541605
     63          1           0      -31.815558    3.273615    0.206200
     64          1           0      -30.703225    3.813381   -2.579790
     65          1           0      -33.836550    3.134104   -1.067042
     66          1           0      -33.041502    2.120753   -2.218889
     67          1           0      -32.837266    3.869826   -2.395488
     68          1           0      -29.278169    5.568919   -0.703388
     69          1           0      -30.858305    5.340288   -0.065763
     70          1           0      -31.306557    7.145976   -1.318493
     71          1           0      -31.434039    6.144447   -2.800516
     72          1           0      -29.884313    6.853021   -2.489451
     73          1           0      -23.841414    4.473179   -1.940574
     74          1           0      -24.848805    4.942456   -0.559566
     75          1           0      -25.453164    4.800737   -2.347480
     76          1           0      -23.007065   -0.729479   -0.413106
     77          1           0      -20.567487   -2.369800    2.699593
     78          1           0      -21.701757   -1.536855    3.755419
     79          1           0      -20.531327   -0.551971    2.760116
     80         12           0       27.932418    0.708826   -0.304822
     81          6           0       26.704558   -2.501659   -0.643318
     82          6           0       24.967099    1.580122    1.211111
     83          6           0       29.351447    3.712045    0.570527
     84          6           0       30.910541   -0.269564   -1.727750
     85          7           0       26.151269   -0.372830    0.397427
     86          6           0       25.860545   -1.681438    0.065598
     87          6           0       24.479892   -2.101171    0.563025
     88          6           0       23.819613   -0.699343    0.840576
     89          6           0       25.045115    0.202461    0.862575
     90          6           0       22.640373   -0.238991   -0.130865
     91          6           0       24.447970   -3.103977    1.760232
     92          6           0       23.470813   -4.253174    1.629559
     93          1           0       22.310927   -4.133349    2.605833
     94          7           0       27.236093    2.359974    0.747245
     95          6           0       26.011030    2.537198    1.254693
     96          6           0       25.872593    3.870394    1.814731
     97          6           0       27.062754    4.568057    1.693302
     98          6           0       27.982156    3.547408    1.028986
     99          6           0       24.536239    4.362755    2.549449
    100          6           0       27.327535    6.061131    2.084594
    101          8           0       26.404154    6.711161    2.651550
    102          6           0       28.638112    6.711334    1.856024
    103          7           0       30.002016    1.554272   -0.328854
    104          6           0       30.266815    2.817204   -0.085413
    105          6           0       31.597645    3.259624   -0.656894
    106          6           0       32.227044    2.002124   -1.346916
    107          6           0       30.966803    1.019345   -1.216516
    108          6           0       31.712856    4.629029   -1.399633
    109          6           0       33.525064    1.356208   -0.781405
    110          6           0       34.214344    0.445178   -1.776043
    111          7           0       28.689217   -1.066134   -1.044346
    112          6           0       29.923273   -1.311324   -1.689828
    113          6           0       29.901212   -2.661104   -2.183858
    114          6           0       28.635129   -3.190930   -1.834523
    115          6           0       27.998835   -2.179474   -1.120336
    116          6           0       30.912796   -3.298343   -3.124842
    117          6           0       27.858026   -4.321644   -1.963790
    118          8           0       28.027726   -5.435544   -2.379117
    119          6           0       26.570408   -3.987691   -1.045476
    120          6           0       26.839455   -4.747300    0.252660
    121          8           0       27.569360   -4.378487    1.152547
    122          8           0       26.112453   -5.924768    0.183351
    123          6           0       26.310554   -6.861881    1.284358
    124          1           0       23.992865    1.969267    1.513706
    125          1           0       29.734023    4.690455    0.867485
    126          1           0       31.733767   -0.677357   -2.318032
    127          1           0       23.946137   -2.531340   -0.283923
    128          1           0       23.533366   -0.695009    1.892940
    129          1           0       22.679614    0.844796   -0.022020
    130          1           0       21.641145   -0.484451    0.229703
    131          1           0       22.707749   -0.555913   -1.171507
    132          1           0       24.171563   -2.471403    2.604012
    133          1           0       25.408422   -3.458063    2.134170
    134          1           0       24.029454   -5.173285    1.802577
    135          1           0       23.023059   -4.309942    0.637196
    136          1           0       23.746861    3.614161    2.629253
    137          1           0       24.121374    5.235440    2.043954
    138          1           0       24.685771    4.584488    3.605221
    139          1           0       28.870544    6.696702    0.791662
    140          1           0       29.402166    6.323467    2.529860
    141          1           0       28.431938    7.770935    2.001958
    142          1           0       32.393853    3.413899    0.071650
    143          1           0       32.240451    2.085386   -2.433905
    144          1           0       30.789336    5.165939   -1.178632
    145          1           0       31.956145    4.537441   -2.458807
    146          1           0       32.507424    5.275183   -1.026196
    147          1           0       33.234054    0.859717    0.144191
    148          1           0       34.135819    2.206704   -0.478701
    149          1           0       35.284814    0.491169   -1.574290
    150          1           0       34.072928    0.707245   -2.825247
    151          1           0       33.942932   -0.587629   -1.557385
    152          1           0       30.594489   -4.258695   -3.530536
    153          1           0       31.852656   -3.392100   -2.582352
    154          1           0       31.120507   -2.652643   -3.978163
    155          1           0       25.640026   -4.205302   -1.570912
    156          1           0       27.336796   -7.229219    1.268128
    157          1           0       25.587427   -7.676352    1.258734
    158          1           0       26.207020   -6.334098    2.232003
 ---------------------------------------------------------------------

 SCF Done:  E(RwB97XD) =  -4070.57778151     A.U. after   20 cycles

 Excitation energies and oscillator strengths:

 Excited State   1:      Singlet-A      1.6105 eV  769.86 nm  f=0.3585  <S**2>=0.000
     309 -> 315       -0.16151
     312 -> 313        0.68857
     309 <- 315       -0.10999
 This state for optimization and/or second-order correction.
 Total Energy, E(TD-HF/TD-DFT) =  -4070.51859753
 Copying the excited state density for this state as the 1-particle RhoCI density.

 Excited State   2:      Singlet-A      1.8713 eV  662.56 nm  f=0.3746  <S**2>=0.000
     310 -> 316        0.14187
     311 -> 314        0.68597

 Excited State   3:      Singlet-A      2.2255 eV  557.11 nm  f=0.1275  <S**2>=0.000
     310 -> 314        0.64355
     311 -> 316       -0.24642
     311 -> 317        0.10791

 Excited State   4:      Singlet-A      2.2277 eV  556.56 nm  f=0.0746  <S**2>=0.000
     309 -> 313        0.61782
     312 -> 315        0.32502

 Excited State   5:      Singlet-A      3.3589 eV  369.12 nm  f=0.1117  <S**2>=0.000
     304 -> 313       -0.46413
     307 -> 313        0.33306
     307 -> 318       -0.13796
     307 -> 321        0.15255
     309 -> 313       -0.10238
     312 -> 315        0.30071

 The electronic state is 1-A.
 Alpha  occ. eigenvalues --  -46.95743 -46.95654 -19.30563 -19.29675 -19.25337
 Alpha  occ. eigenvalues --  -19.24719 -19.24349 -19.24144 -19.22641 -19.22095
 Alpha  occ. eigenvalues --  -14.47069 -14.46906 -14.46621 -14.46198 -14.45212
 Alpha  occ. eigenvalues --  -14.44364 -14.43269 -14.43003 -10.42962 -10.42879
 Alpha  occ. eigenvalues --  -10.41093 -10.39526 -10.37526 -10.37337 -10.37281
 Alpha  occ. eigenvalues --  -10.36518 -10.36063 -10.35864 -10.35821 -10.35748
 Alpha  occ. eigenvalues --  -10.35242 -10.35011 -10.34966 -10.34951 -10.34837
 Alpha  occ. eigenvalues --  -10.34528 -10.34341 -10.34074 -10.33761 -10.33379
 Alpha  occ. eigenvalues --  -10.33065 -10.32953 -10.32806 -10.32558 -10.32482
 Alpha  occ. eigenvalues --  -10.32451 -10.32406 -10.32399 -10.32292 -10.32230
 Alpha  occ. eigenvalues --  -10.32201 -10.32110 -10.31966 -10.31881 -10.31855
 Alpha  occ. eigenvalues --  -10.31684 -10.31671 -10.31557 -10.31553 -10.31393
 Alpha  occ. eigenvalues --  -10.31352 -10.31278 -10.31226 -10.31170 -10.31112
 Alpha  occ. eigenvalues --  -10.31097 -10.31047 -10.31028 -10.30936 -10.30824
 Alpha  occ. eigenvalues --  -10.30816 -10.30795 -10.30774 -10.30771 -10.30760
 Alpha  occ. eigenvalues --  -10.30705 -10.30481 -10.30236 -10.30220 -10.29890
 Alpha  occ. eigenvalues --  -10.29871 -10.29868 -10.29623 -10.29075 -10.27945
 Alpha  occ. eigenvalues --  -10.26983  -3.21638  -3.21595  -1.95207  -1.95152
 Alpha  occ. eigenvalues --   -1.94761  -1.94739  -1.94609  -1.94542  -1.18228
 Alpha  occ. eigenvalues --   -1.17541  -1.12954  -1.11924  -1.11433  -1.10020
 Alpha  occ. eigenvalues --   -1.09637  -1.08855  -1.06830  -1.06598  -1.06033
 Alpha  occ. eigenvalues --   -1.05863  -1.05273  -1.04926  -1.04532  -1.02353
 Alpha  occ. eigenvalues --   -0.93880  -0.93457  -0.91262  -0.91024  -0.90885
 Alpha  occ. eigenvalues --   -0.90501  -0.90342  -0.89942  -0.88994  -0.88801
 Alpha  occ. eigenvalues --   -0.88691  -0.88646  -0.87999  -0.87707  -0.86397
 Alpha  occ. eigenvalues --   -0.86293  -0.85599  -0.85536  -0.85118  -0.84667
 Alpha  occ. eigenvalues --   -0.84260  -0.83982  -0.82915  -0.82608  -0.82142
 Alpha  occ. eigenvalues --   -0.82115  -0.80026  -0.79659  -0.79581  -0.79091
 Alpha  occ. eigenvalues --   -0.78631  -0.78421  -0.77921  -0.77252  -0.77191
 Alpha  occ. eigenvalues --   -0.77080  -0.75002  -0.74345  -0.73687  -0.73668
 Alpha  occ. eigenvalues --   -0.71654  -0.71562  -0.71090  -0.70967  -0.69837
 Alpha  occ. eigenvalues --   -0.69565  -0.69360  -0.68921  -0.68142  -0.67537
 Alpha  occ. eigenvalues --   -0.67386  -0.67376  -0.66690  -0.66683  -0.66020
 Alpha  occ. eigenvalues --   -0.65516  -0.64111  -0.63658  -0.62024  -0.61667
 Alpha  occ. eigenvalues --   -0.61415  -0.61118  -0.61029  -0.61026  -0.60459
 Alpha  occ. eigenvalues --   -0.59935  -0.59751  -0.59526  -0.59313  -0.59190
 Alpha  occ. eigenvalues --   -0.58764  -0.58454  -0.58160  -0.57396  -0.57100
 Alpha  occ. eigenvalues --   -0.56957  -0.56529  -0.56181  -0.56077  -0.55906
 Alpha  occ. eigenvalues --   -0.55653  -0.55630  -0.55442  -0.55262  -0.55101
 Alpha  occ. eigenvalues --   -0.54746  -0.54688  -0.54520  -0.54246  -0.53937
 Alpha  occ. eigenvalues --   -0.53738  -0.53487  -0.53378  -0.53146  -0.52988
 Alpha  occ. eigenvalues --   -0.52963  -0.52657  -0.52580  -0.52485  -0.52121
 Alpha  occ. eigenvalues --   -0.51951  -0.51896  -0.51732  -0.51547  -0.51534
 Alpha  occ. eigenvalues --   -0.51394  -0.50972  -0.50840  -0.50716  -0.50601
 Alpha  occ. eigenvalues --   -0.50389  -0.50262  -0.50116  -0.50071  -0.49699
 Alpha  occ. eigenvalues --   -0.49563  -0.49510  -0.49269  -0.49156  -0.49120
 Alpha  occ. eigenvalues --   -0.48859  -0.48784  -0.48492  -0.48478  -0.48148
 Alpha  occ. eigenvalues --   -0.48107  -0.48025  -0.47907  -0.47663  -0.47415
 Alpha  occ. eigenvalues --   -0.47117  -0.47116  -0.47099  -0.46951  -0.46891
 Alpha  occ. eigenvalues --   -0.46786  -0.46589  -0.46332  -0.46246  -0.45934
 Alpha  occ. eigenvalues --   -0.45845  -0.45837  -0.45494  -0.45403  -0.45311
 Alpha  occ. eigenvalues --   -0.45300  -0.45073  -0.44870  -0.44759  -0.44654
 Alpha  occ. eigenvalues --   -0.44489  -0.44443  -0.44435  -0.44235  -0.44076
 Alpha  occ. eigenvalues --   -0.44062  -0.43965  -0.43910  -0.43681  -0.43489
 Alpha  occ. eigenvalues --   -0.42960  -0.42782  -0.42636  -0.42323  -0.42069
 Alpha  occ. eigenvalues --   -0.41824  -0.41753  -0.41248  -0.41217  -0.40996
 Alpha  occ. eigenvalues --   -0.40871  -0.40448  -0.39991  -0.39357  -0.39261
 Alpha  occ. eigenvalues --   -0.39238  -0.38586  -0.38565  -0.38304  -0.38287
 Alpha  occ. eigenvalues --   -0.37799  -0.37264  -0.36373  -0.36315  -0.36131
 Alpha  occ. eigenvalues --   -0.35816  -0.35323  -0.34923  -0.34466  -0.34116
 Alpha  occ. eigenvalues --   -0.33747  -0.33168  -0.33054  -0.32323  -0.31589
 Alpha  occ. eigenvalues --   -0.31546  -0.31150  -0.31145  -0.26399  -0.26039
 Alpha  occ. eigenvalues --   -0.23338  -0.22581
 Alpha virt. eigenvalues --   -0.06923  -0.06725   0.00128   0.00163   0.02193
 Alpha virt. eigenvalues --    0.03145   0.04107   0.04471   0.04637   0.04944
 Alpha virt. eigenvalues --    0.07079   0.07633   0.07772   0.08197   0.08822

 Mulliken charges:
               1
     1  Mg   0.954176
     2  C   -0.033069
     3  C   -0.082941
     4  C   -0.079733
     5  C   -0.082982
     6  N   -0.368432
     7  C   -0.053195
     8  C   -0.005159
     9  C   -0.142250
    10  C    0.044489
    11  C    0.037054
    12  C    0.030667
    13  C   -0.102227
    14  H    0.037286
    15  N   -0.470833
    16  C    0.144942
    17  C   -0.159887
    18  C   -0.079513
    19  C    0.169617
    20  C    0.104810
    21  C    0.036101
    22  O   -0.227568
    23  C    0.002069
    24  N   -0.386299
    25  C    0.091613
    26  C   -0.126929
    27  C   -0.015465
    28  C    0.025671
    29  C    0.031685
    30  C   -0.022263
    31  C   -0.061823
    32  N   -0.378358
    33  C    0.092519
    34  C   -0.180520
    35  C   -0.010833
    36  C    0.118836
    37  C    0.073271
    38  C    0.083847
    39  O   -0.250557
    40  C   -0.041294
    41  C    0.265250
    42  O   -0.260785
    43  O   -0.368591
    44  C    0.138609
    45  H    0.004105
    46  H   -0.041767
    47  H   -0.008995
    48  H    0.025774
    49  H    0.040001
    50  H    0.048695
    51  H    0.050478
    52  H    0.040825
    53  H    0.031521
    54  H    0.017651
    55  H    0.047115
    56  H    0.072035
    57  H    0.073550
    58  H    0.022204
    59  H    0.060954
    60  H    0.076675
    61  H    0.048878
    62  H    0.056594
    63  H    0.052209
    64  H    0.031508
    65  H    0.041503
    66  H    0.036519
    67  H    0.042381
    68  H    0.044470
    69  H    0.024539
    70  H    0.051166
    71  H    0.034952
    72  H    0.047434
    73  H    0.051618
    74  H    0.071746
    75  H    0.038742
    76  H    0.074327
    77  H    0.059721
    78  H    0.067145
    79  H    0.072723
    80  Mg   0.966604
    81  C   -0.041517
    82  C   -0.128811
    83  C   -0.109177
    84  C   -0.042192
    85  N   -0.332951
    86  C   -0.011466
    87  C   -0.074704
    88  C   -0.075961
    89  C    0.063496
    90  C    0.034892
    91  C    0.028271
    92  C   -0.107155
    93  H    0.024768
    94  N   -0.466125
    95  C    0.186110
    96  C   -0.153045
    97  C   -0.065558
    98  C    0.142301
    99  C    0.072395
   100  C    0.052462
   101  O   -0.253991
   102  C    0.003576
   103  N   -0.330957
   104  C    0.128564
   105  C   -0.083467
   106  C   -0.090988
   107  C    0.027367
   108  C    0.020529
   109  C    0.009916
   110  C   -0.034530
   111  N   -0.438479
   112  C    0.046274
   113  C   -0.148279
   114  C    0.002714
   115  C    0.157873
   116  C    0.059520
   117  C    0.057928
   118  O   -0.195157
   119  C   -0.117690
   120  C    0.296853
   121  O   -0.238849
   122  O   -0.364129
   123  C    0.141244
   124  H   -0.003498
   125  H   -0.019429
   126  H   -0.016870
   127  H    0.023291
   128  H    0.032779
   129  H    0.025036
   130  H    0.044701
   131  H    0.053880
   132  H    0.020257
   133  H    0.052780
   134  H    0.048265
   135  H    0.048688
   136  H    0.019579
   137  H    0.064626
   138  H    0.059455
   139  H    0.061893
   140  H    0.091283
   141  H    0.055079
   142  H    0.038384
   143  H    0.031578
   144  H    0.030255
   145  H    0.041594
   146  H    0.029145
   147  H    0.042101
   148  H    0.025801
   149  H    0.032440
   150  H    0.043069
   151  H    0.051679
   152  H    0.058557
   153  H    0.038061
   154  H    0.040752
   155  H    0.054825
   156  H    0.058151
   157  H    0.060956
   158  H    0.042373
 Sum of Mulliken charges =  -0.00000

 Dipole moment (field-independent basis, Debye):
    X=             -2.5876    Y=              3.4965    Z=             -3.5443  Tot=              5.6110
 Quadrupole moment (field-independent basis, Debye-Ang):
   XX=           -261.4904   YY=           -512.3077   ZZ=           -515.1162
   XY=            124.6563   XZ=             72.5227   YZ=            -31.7594

 Normal termination of Gaussian 16 at Sat Sep 18 15:16:20 2021.
