 Gaussian 16, Revision A.03,
 Gaussian 16:  ES64L-G16RevA.03 25-Dec-2016

 --------------------------------
 #p wB97XD/Def2SVP td=(nstates=5)
 --------------------------------

 --------------------------------
 TDDFT excited states in gaussian
 --------------------------------
 Symbolic Z-matrix:
 Charge =  0 Multiplicity = 1

                         Standard orientation:
 ---------------------------------------------------------------------
 Center     Atomic      Atomic             Coordinates (Angstroms)
 Number     Number       Type             X           Y           Z
 ---------------------------------------------------------------------
      1         12           0      -24.484418   -0.675722    0.006907
      2          6           0      -22.806957    2.488013   -0.988288
      3          6           0      -24.334604    0.612374    3.128169
      4          6           0      -25.647710   -3.522003    0.777010
      5          6           0      -23.646872   -1.860989   -3.243875
      6          7           0      -23.617031    1.287502    0.922261
      7          6           0      -23.176908    2.447893    0.308293
      8          6           0      -23.061475    3.659244    1.240669
      9          6           0      -23.113218    2.909170    2.607438
     10          6           0      -23.719622    1.500002    2.239296
     11          6           0      -21.799971    2.776602    3.312218
     12          6           0      -24.106327    4.809744    1.052145
     13          6           0      -23.683639    6.203038    1.378933
     14          1           0      -24.756612    7.076469    2.021319
     15          7           0      -24.995053   -1.385010    1.756149
     16          6           0      -24.924105   -0.684667    2.978567
     17          6           0      -25.587089   -1.477437    3.973471
     18          6           0      -26.105301   -2.619705    3.221576
     19          6           0      -25.591605   -2.516773    1.903490
     20          6           0      -25.827084   -1.040927    5.466022
     21          6           0      -26.999668   -3.685625    3.776771
     22          8           0      -27.359597   -4.675490    3.094112
     23          6           0      -27.570898   -3.636459    5.146762
     24          7           0      -24.506614   -2.500701   -0.972372
     25          6           0      -25.083909   -3.580478   -0.441561
     26          6           0      -25.109736   -4.818422   -1.394396
     27          6           0      -24.878383   -4.071480   -2.760601
     28          6           0      -24.255414   -2.720366   -2.314586
     29          6           0      -23.956432   -5.826539   -1.085542
     30          6           0      -26.233724   -3.813291   -3.543609
     31          6           0      -27.178085   -4.998258   -3.835894
     32          7           0      -23.488616    0.127001   -1.780392
     33          6           0      -23.304347   -0.479124   -3.017885
     34          6           0      -22.598115    0.421607   -3.898588
     35          6           0      -22.420083    1.598992   -3.160975
     36          6           0      -22.896866    1.359383   -1.842929
     37          6           0      -22.276202    0.197794   -5.337898
     38          6           0      -21.891235    2.954815   -3.231432
     39          8           0      -21.391434    3.626732   -4.124002
     40          6           0      -22.245367    3.575721   -1.782134
     41          6           0      -21.004864    4.149642   -1.289713
     42          8           0      -19.953355    3.542658   -1.032457
     43          8           0      -21.026931    5.486184   -1.568436
     44          6           0      -19.890650    6.287874   -1.244987
     45          1           0      -24.387101    1.147329    4.078894
     46          1           0      -26.043897   -4.515176    0.997749
     47          1           0      -23.431772   -2.275750   -4.231259
     48          1           0      -22.062413    4.073578    1.103720
     49          1           0      -23.872399    3.346622    3.255131
     50          1           0      -21.489621    1.736568    3.211443
     51          1           0      -21.935499    2.959340    4.378114
     52          1           0      -20.978328    3.400282    2.960594
     53          1           0      -24.934215    4.595238    1.727331
     54          1           0      -24.491933    4.732368    0.035926
     55          1           0      -23.418897    6.621359    0.408049
     56          1           0      -22.712301    6.241733    1.872183
     57          1           0      -26.848243   -0.751878    5.712824
     58          1           0      -25.125971   -0.264293    5.770428
     59          1           0      -25.543075   -1.949117    5.999103
     60          1           0      -26.782180   -3.892897    5.854518
     61          1           0      -28.359028   -4.389754    5.162279
     62          1           0      -28.006176   -2.644606    5.264056
     63          1           0      -26.089445   -5.277347   -1.257297
     64          1           0      -24.176054   -4.545954   -3.445284
     65          1           0      -24.432743   -6.729639   -0.703099
     66          1           0      -23.174472   -5.466037   -0.417990
     67          1           0      -23.560926   -6.014554   -2.084713
     68          1           0      -25.990243   -3.429672   -4.534108
     69          1           0      -26.731629   -2.997263   -3.020182
     70          1           0      -28.119174   -4.722867   -3.360095
     71          1           0      -26.727483   -5.833793   -3.299458
     72          1           0      -27.333877   -5.157572   -4.902770
     73          1           0      -22.876803   -0.668804   -5.615232
     74          1           0      -21.212783   -0.038543   -5.374024
     75          1           0      -22.436963    1.070268   -5.971155
     76          1           0      -23.011966    4.342541   -1.892053
     77          1           0      -19.109798    5.704713   -0.756336
     78          1           0      -20.258474    7.020205   -0.526201
     79          1           0      -19.553540    6.862549   -2.106485
     80         12           0       24.414612   -0.694923    0.169759
     81          6           0       22.172531    1.962124    0.832864
     82          6           0       26.646772    1.588627   -0.922086
     83          6           0       26.393151   -3.201547   -0.551718
     84          6           0       21.652447   -2.929889    0.662930
     85          7           0       24.396855    1.565963   -0.133516
     86          6           0       23.460797    2.397778    0.457798
     87          6           0       24.033313    3.773896    0.439411
     88          6           0       25.156117    3.715274   -0.596781
     89          6           0       25.476561    2.199858   -0.566310
     90          6           0       24.632304    4.142958   -2.018897
     91          6           0       24.558227    4.365838    1.855975
     92          6           0       24.259316    5.843424    2.255035
     93          1           0       24.581793    6.934699    1.193627
     94          7           0       26.289667   -0.755155   -0.653402
     95          6           0       27.011897    0.268567   -1.001906
     96          6           0       28.276589   -0.230624   -1.569048
     97          6           0       28.344671   -1.628359   -1.285417
     98          6           0       26.959985   -1.935012   -0.826877
     99          6           0       29.406994    0.573467   -2.308661
    100          6           0       29.485181   -2.637710   -1.413139
    101          8           0       29.359023   -3.864432   -1.235954
    102          6           0       30.749569   -2.183859   -1.971530
    103          7           0       23.974053   -2.814987   -0.088833
    104          6           0       25.052895   -3.671944   -0.290089
    105          6           0       24.572607   -5.157868   -0.067377
    106          6           0       23.120751   -4.989067    0.445648
    107          6           0       22.894986   -3.476896    0.380289
    108          6           0       24.784867   -6.044825   -1.294498
    109          6           0       22.792752   -5.659463    1.803517
    110          6           0       21.414292   -6.344116    1.954689
    111          7           0       22.338182   -0.572345    0.629913
    112          6           0       21.342605   -1.537180    0.746600
    113          6           0       20.143516   -0.901879    1.230890
    114          6           0       20.409111    0.468278    1.222251
    115          6           0       21.772200    0.653957    0.861508
    116          6           0       18.959785   -1.531985    1.645643
    117          6           0       19.874244    1.803154    1.528875
    118          8           0       18.798061    2.186561    1.959237
    119          6           0       21.031521    2.830818    1.305269
    120          6           0       20.536558    3.855744    0.300392
    121          8           0       20.490205    3.880745   -0.908670
    122          8           0       20.209133    4.903825    1.111243
    123          6           0       20.001387    6.227654    0.477364
    124          1           0       27.411134    2.319527   -1.195501
    125          1           0       27.144812   -3.991771   -0.605363
    126          1           0       20.872398   -3.598430    1.031860
    127          1           0       23.356140    4.569478    0.127631
    128          1           0       26.068471    4.204874   -0.257061
    129          1           0       25.379839    4.644584   -2.632513
    130          1           0       23.848979    4.900263   -1.978987
    131          1           0       24.367309    3.207810   -2.511041
    132          1           0       25.618577    4.142009    1.968116
    133          1           0       24.149551    3.769660    2.672698
    134          1           0       24.972688    6.009552    3.063069
    135          1           0       23.206923    5.785638    2.533042
    136          1           0       30.347171    0.664694   -1.765217
    137          1           0       29.008709    1.569244   -2.505352
    138          1           0       29.777027    0.117084   -3.226790
    139          1           0       31.133159   -1.324954   -1.420223
    140          1           0       30.636415   -1.921174   -3.023411
    141          1           0       31.484976   -2.957438   -1.752674
    142          1           0       25.126801   -5.523376    0.797262
    143          1           0       22.407109   -5.313422   -0.311474
    144          1           0       23.900119   -5.991134   -1.929734
    145          1           0       24.880156   -7.107719   -1.074812
    146          1           0       25.535122   -5.585645   -1.937370
    147          1           0       22.953089   -5.014594    2.667401
    148          1           0       23.525674   -6.430910    2.043522
    149          1           0       20.802815   -5.597666    2.461859
    150          1           0       21.589315   -7.165630    2.650113
    151          1           0       21.021209   -6.618685    0.976196
    152          1           0       18.018960   -0.982046    1.642708
    153          1           0       19.159788   -1.952682    2.631597
    154          1           0       18.797430   -2.335744    0.928422
    155          1           0       21.299749    3.302097    2.250632
    156          1           0       20.518803    6.928402    1.131972
    157          1           0       18.968533    6.564311    0.391736
    158          1           0       20.477780    6.249712   -0.502419
 ---------------------------------------------------------------------

 SCF Done:  E(RwB97XD) =  -4070.59942811     A.U. after   19 cycles

 Excitation energies and oscillator strengths:

 Excited State   1:      Singlet-A      1.6008 eV  774.53 nm  f=0.3885  <S**2>=0.000
     309 -> 316       -0.16169
     311 -> 313        0.68933
     309 <- 316       -0.11299
 This state for optimization and/or second-order correction.
 Total Energy, E(TD-HF/TD-DFT) =  -4070.54060127
 Copying the excited state density for this state as the 1-particle RhoCI density.

 Excited State   2:      Singlet-A      1.6742 eV  740.54 nm  f=0.3812  <S**2>=0.000
     310 -> 315        0.19698
     312 -> 314        0.67926
     310 <- 315        0.11758

 Excited State   3:      Singlet-A      2.1246 eV  583.57 nm  f=0.2108  <S**2>=0.000
     309 -> 313        0.66539
     311 -> 316        0.22066

 Excited State   4:      Singlet-A      2.2066 eV  561.87 nm  f=0.0674  <S**2>=0.000
     310 -> 314        0.62034
     312 -> 315       -0.32391

 Excited State   5:      Singlet-A      3.1831 eV  389.51 nm  f=0.0052  <S**2>=0.000
     305 -> 313        0.17999
     306 -> 313        0.66139

 The electronic state is 1-A.
 Alpha  occ. eigenvalues --  -46.95692 -46.95221 -19.30034 -19.29591 -19.24978
 Alpha  occ. eigenvalues --  -19.24959 -19.24382 -19.24292 -19.23714 -19.22429
 Alpha  occ. eigenvalues --  -14.46922 -14.46355 -14.45989 -14.45983 -14.44419
 Alpha  occ. eigenvalues --  -14.44261 -14.44176 -14.43544 -10.43073 -10.42999
 Alpha  occ. eigenvalues --  -10.40036 -10.39483 -10.38818 -10.37910 -10.35764
 Alpha  occ. eigenvalues --  -10.35441 -10.35186 -10.34832 -10.34819 -10.34808
 Alpha  occ. eigenvalues --  -10.34777 -10.34759 -10.34675 -10.34464 -10.34428
 Alpha  occ. eigenvalues --  -10.34315 -10.34031 -10.33979 -10.33826 -10.33824
 Alpha  occ. eigenvalues --  -10.33638 -10.33550 -10.33191 -10.33101 -10.32897
 Alpha  occ. eigenvalues --  -10.32376 -10.32252 -10.32187 -10.32166 -10.32149
 Alpha  occ. eigenvalues --  -10.32042 -10.32025 -10.31982 -10.31949 -10.31917
 Alpha  occ. eigenvalues --  -10.31820 -10.31689 -10.31628 -10.31605 -10.31570
 Alpha  occ. eigenvalues --  -10.31568 -10.31524 -10.31397 -10.31336 -10.31287
 Alpha  occ. eigenvalues --  -10.31240 -10.30977 -10.30754 -10.30754 -10.30556
 Alpha  occ. eigenvalues --  -10.30309 -10.30291 -10.30215 -10.30071 -10.29910
 Alpha  occ. eigenvalues --  -10.29767 -10.29624 -10.29619 -10.29604 -10.29548
 Alpha  occ. eigenvalues --  -10.29540 -10.29457 -10.29421 -10.29364 -10.29078
 Alpha  occ. eigenvalues --  -10.28824  -3.21538  -3.21323  -1.95122  -1.94882
 Alpha  occ. eigenvalues --   -1.94659  -1.94495  -1.94446  -1.94310  -1.18719
 Alpha  occ. eigenvalues --   -1.18274  -1.12497  -1.11812  -1.11570  -1.09952
 Alpha  occ. eigenvalues --   -1.09621  -1.09210  -1.07174  -1.06911  -1.06040
 Alpha  occ. eigenvalues --   -1.05933  -1.05648  -1.05036  -1.04579  -1.04079
 Alpha  occ. eigenvalues --   -0.95695  -0.94731  -0.91400  -0.90751  -0.90664
 Alpha  occ. eigenvalues --   -0.90353  -0.89940  -0.89864  -0.89474  -0.89375
 Alpha  occ. eigenvalues --   -0.89061  -0.88793  -0.88772  -0.88164  -0.86616
 Alpha  occ. eigenvalues --   -0.86124  -0.85961  -0.85469  -0.85009  -0.84599
 Alpha  occ. eigenvalues --   -0.84394  -0.84003  -0.83431  -0.83016  -0.82767
 Alpha  occ. eigenvalues --   -0.82553  -0.80493  -0.80333  -0.79403  -0.79358
 Alpha  occ. eigenvalues --   -0.79200  -0.78937  -0.78154  -0.77772  -0.77367
 Alpha  occ. eigenvalues --   -0.77034  -0.75346  -0.74481  -0.73776  -0.72883
 Alpha  occ. eigenvalues --   -0.71198  -0.70848  -0.70654  -0.70578  -0.70161
 Alpha  occ. eigenvalues --   -0.69681  -0.69312  -0.68898  -0.67638  -0.67415
 Alpha  occ. eigenvalues --   -0.67272  -0.67070  -0.66954  -0.66882  -0.66444
 Alpha  occ. eigenvalues --   -0.66311  -0.64034  -0.63923  -0.62720  -0.62473
 Alpha  occ. eigenvalues --   -0.61768  -0.61545  -0.61482  -0.61216  -0.60824
 Alpha  occ. eigenvalues --   -0.60373  -0.60276  -0.59881  -0.59683  -0.59483
 Alpha  occ. eigenvalues --   -0.58147  -0.57844  -0.57840  -0.57588  -0.57121
 Alpha  occ. eigenvalues --   -0.56844  -0.56599  -0.56389  -0.56083  -0.55647
 Alpha  occ. eigenvalues --   -0.55626  -0.55495  -0.55170  -0.55168  -0.55123
 Alpha  occ. eigenvalues --   -0.54863  -0.54758  -0.54452  -0.54335  -0.54319
 Alpha  occ. eigenvalues --   -0.54021  -0.53682  -0.53590  -0.53490  -0.53333
 Alpha  occ. eigenvalues --   -0.53168  -0.53137  -0.52919  -0.52705  -0.52332
 Alpha  occ. eigenvalues --   -0.52204  -0.51883  -0.51826  -0.51803  -0.51623
 Alpha  occ. eigenvalues --   -0.51581  -0.51433  -0.51315  -0.51142  -0.50919
 Alpha  occ. eigenvalues --   -0.50718  -0.50635  -0.50237  -0.50086  -0.50057
 Alpha  occ. eigenvalues --   -0.49769  -0.49557  -0.49501  -0.49298  -0.49154
 Alpha  occ. eigenvalues --   -0.49015  -0.48842  -0.48560  -0.48437  -0.48337
 Alpha  occ. eigenvalues --   -0.48177  -0.48126  -0.47878  -0.47844  -0.47451
 Alpha  occ. eigenvalues --   -0.47361  -0.47019  -0.46953  -0.46902  -0.46802
 Alpha  occ. eigenvalues --   -0.46725  -0.46592  -0.46289  -0.46279  -0.45987
 Alpha  occ. eigenvalues --   -0.45903  -0.45753  -0.45652  -0.45604  -0.45164
 Alpha  occ. eigenvalues --   -0.45044  -0.44933  -0.44877  -0.44747  -0.44673
 Alpha  occ. eigenvalues --   -0.44579  -0.44214  -0.44075  -0.44020  -0.43908
 Alpha  occ. eigenvalues --   -0.43897  -0.43583  -0.43487  -0.43222  -0.43188
 Alpha  occ. eigenvalues --   -0.42785  -0.42640  -0.42571  -0.42424  -0.42111
 Alpha  occ. eigenvalues --   -0.41750  -0.41728  -0.41469  -0.41356  -0.41216
 Alpha  occ. eigenvalues --   -0.40657  -0.40461  -0.40148  -0.39677  -0.39671
 Alpha  occ. eigenvalues --   -0.39315  -0.39215  -0.38561  -0.38457  -0.38389
 Alpha  occ. eigenvalues --   -0.37841  -0.37823  -0.36634  -0.36608  -0.36254
 Alpha  occ. eigenvalues --   -0.35901  -0.35380  -0.35299  -0.33766  -0.33672
 Alpha  occ. eigenvalues --   -0.33426  -0.33350  -0.32717  -0.32420  -0.32230
 Alpha  occ. eigenvalues --   -0.32057  -0.31754  -0.31408  -0.26159  -0.25877
 Alpha  occ. eigenvalues --   -0.23533  -0.22761
 Alpha virt. eigenvalues --   -0.08009  -0.06608  -0.00132   0.01156   0.01940
 Alpha virt. eigenvalues --    0.02373   0.04295   0.04299   0.04958   0.05033
 Alpha virt. eigenvalues --    0.06118   0.07661   0.07866   0.08058   0.08319

 Mulliken charges:
               1
     1  Mg   0.983270
     2  C   -0.013781
     3  C   -0.065897
     4  C   -0.042910
     5  C   -0.082979
     6  N   -0.296734
     7  C   -0.036588
     8  C   -0.083863
     9  C   -0.102374
    10  C   -0.016740
    11  C    0.047880
    12  C    0.043072
    13  C   -0.116579
    14  H    0.053864
    15  N   -0.496884
    16  C    0.190194
    17  C   -0.170702
    18  C   -0.082172
    19  C    0.148132
    20  C    0.071843
    21  C    0.008781
    22  O   -0.274951
    23  C    0.009630
    24  N   -0.391589
    25  C    0.045000
    26  C   -0.110449
    27  C   -0.102420
    28  C    0.088945
    29  C    0.051770
    30  C   -0.033933
    31  C   -0.032740
    32  N   -0.399800
    33  C    0.123175
    34  C   -0.202563
    35  C   -0.040047
    36  C    0.129328
    37  C    0.087827
    38  C    0.156496
    39  O   -0.192239
    40  C   -0.059968
    41  C    0.245463
    42  O   -0.268723
    43  O   -0.350390
    44  C    0.133688
    45  H   -0.007710
    46  H    0.013669
    47  H    0.005004
    48  H    0.033315
    49  H    0.025412
    50  H    0.044502
    51  H    0.034252
    52  H    0.048430
    53  H    0.032020
    54  H    0.031297
    55  H    0.048036
    56  H    0.042948
    57  H    0.067967
    58  H    0.040277
    59  H    0.043031
    60  H    0.064035
    61  H    0.055086
    62  H    0.045560
    63  H    0.047068
    64  H    0.025428
    65  H    0.046368
    66  H    0.060266
    67  H    0.027967
    68  H    0.024665
    69  H    0.033418
    70  H    0.042553
    71  H    0.036229
    72  H    0.048596
    73  H    0.031182
    74  H    0.060049
    75  H    0.065030
    76  H    0.071917
    77  H    0.066110
    78  H    0.033721
    79  H    0.061958
    80  Mg   0.942168
    81  C   -0.051987
    82  C   -0.101164
    83  C   -0.067668
    84  C   -0.090790
    85  N   -0.320354
    86  C    0.052384
    87  C   -0.094583
    88  C   -0.080774
    89  C   -0.006015
    90  C    0.041930
    91  C   -0.020859
    92  C   -0.113939
    93  H    0.029608
    94  N   -0.428087
    95  C    0.194961
    96  C   -0.167341
    97  C   -0.071068
    98  C    0.113755
    99  C    0.058850
   100  C    0.066958
   101  O   -0.250771
   102  C   -0.004183
   103  N   -0.356402
   104  C    0.033297
   105  C   -0.062133
   106  C   -0.056339
   107  C    0.068476
   108  C    0.048399
   109  C   -0.039096
   110  C   -0.040902
   111  N   -0.439418
   112  C    0.135283
   113  C   -0.196807
   114  C   -0.015739
   115  C    0.167619
   116  C    0.061235
   117  C    0.109516
   118  O   -0.199652
   119  C   -0.077091
   120  C    0.279471
   121  O   -0.226433
   122  O   -0.373840
   123  C    0.131579
   124  H   -0.012443
   125  H    0.026175
   126  H   -0.012810
   127  H    0.024523
   128  H    0.020072
   129  H    0.029350
   130  H    0.045937
   131  H    0.057447
   132  H    0.021565
   133  H    0.024521
   134  H    0.065195
   135  H    0.071834
   136  H    0.043646
   137  H    0.040995
   138  H    0.041485
   139  H    0.037660
   140  H    0.075196
   141  H    0.054591
   142  H    0.039200
   143  H    0.033372
   144  H    0.015977
   145  H    0.046693
   146  H    0.047935
   147  H    0.025307
   148  H    0.022964
   149  H    0.043245
   150  H    0.039853
   151  H    0.045459
   152  H    0.060032
   153  H    0.054165
   154  H    0.037962
   155  H    0.081373
   156  H    0.047533
   157  H    0.063832
   158  H    0.058103
 Sum of Mulliken charges =  -0.00000

 Dipole moment (field-independent basis, Debye):
    X=              2.0708    Y=              1.9692    Z=              3.4209  Tot=              4.4574
 Quadrupole moment (field-independent basis, Debye-Ang):
   XX=           -227.2286   YY=           -481.5714   ZZ=           -492.0132
   XY=              4.4617   XZ=            -14.7631   YZ=             23.4808

 Normal termination of Gaussian 16 at Sat Sep 18 17:50:48 2021.
