 Gaussian 16, Revision A.03,
 Gaussian 16:  ES64L-G16RevA.03 25-Dec-2016

 --------------------------------
 #p wB97XD/Def2SVP td=(nstates=5)
 --------------------------------

 --------------------------------
 TDDFT excited states in gaussian
 --------------------------------
 Symbolic Z-matrix:
 Charge =  0 Multiplicity = 1

                         Standard orientation:
 ---------------------------------------------------------------------
 Center     Atomic      Atomic             Coordinates (Angstroms)
 Number     Number       Type             X           Y           Z
 ---------------------------------------------------------------------
      1         12           0        4.910945   -0.610913    0.000328
      2          6           0        2.892342    2.079873   -1.078929
      3          6           0        7.535284    1.380803    0.143002
      4          6           0        6.862382   -3.411797    0.140943
      5          6           0        2.200024   -2.812238   -1.216335
      6          7           0        5.148521    1.497133   -0.489660
      7          6           0        4.180892    2.420571   -0.663562
      8          6           0        4.790319    3.827041   -0.502280
      9          6           0        6.213746    3.607702   -0.100923
     10          6           0        6.359164    2.057837   -0.181109
     11          6           0        7.230559    4.508035   -0.915032
     12          6           0        4.041199    4.866756    0.396705
     13          6           0        4.810073    5.933399    1.288397
     14          1           0        4.308551    7.384913    1.288884
     15          7           0        6.900999   -0.930521    0.372604
     16          6           0        7.850660    0.065648    0.401798
     17          6           0        9.108161   -0.541320    0.734026
     18          6           0        8.984557   -1.985154    0.710636
     19          6           0        7.560918   -2.162263    0.348696
     20          6           0       10.286786    0.334920    0.871117
     21          6           0       10.012598   -3.094677    1.043098
     22          8           0        9.718909   -4.237817    0.918695
     23          6           0       11.282567   -2.759063    1.754924
     24          7           0        4.555811   -2.801987   -0.537981
     25          6           0        5.532525   -3.685017   -0.231223
     26          6           0        5.089034   -5.161655   -0.482891
     27          6           0        3.589897   -4.997162   -0.879166
     28          6           0        3.400322   -3.460242   -0.906463
     29          6           0        5.875664   -5.909566   -1.526288
     30          6           0        2.505735   -5.678138    0.027398
     31          6           0        2.133674   -5.039291    1.322590
     32          7           0        2.936016   -0.527375   -0.937610
     33          6           0        2.007264   -1.464867   -1.288333
     34          6           0        0.791796   -0.803391   -1.695947
     35          6           0        1.053158    0.591213   -1.646253
     36          6           0        2.392829    0.700003   -1.221202
     37          6           0       -0.439327   -1.422884   -2.256962
     38          6           0        0.531602    1.905236   -1.892675
     39          8           0       -0.562661    2.322673   -2.254066
     40          6           0        1.680427    2.935051   -1.490129
     41          6           0        1.940278    3.982387   -2.559746
     42          8           0        2.377383    3.731262   -3.653097
     43          8           0        1.638996    5.236330   -2.052475
     44          6           0        1.824461    6.313168   -3.025809
     45          1           0        8.402573    1.987827    0.412373
     46          1           0        7.540547   -4.259823    0.254349
     47          1           0        1.359083   -3.458373   -1.476320
     48          1           0        4.660052    4.169830   -1.528754
     49          1           0        6.322687    3.966251    0.923007
     50          1           0        6.674717    5.221928   -1.522676
     51          1           0        7.920183    3.840256   -1.431283
     52          1           0        7.788023    5.171611   -0.253711
     53          1           0        3.425659    4.290747    1.088101
     54          1           0        3.319065    5.451130   -0.174098
     55          1           0        5.837241    5.895393    0.925104
     56          1           0        4.825529    5.585266    2.321262
     57          1           0       11.122069   -0.235184    0.465067
     58          1           0       10.462962    0.466257    1.938082
     59          1           0       10.319763    1.332051    0.431778
     60          1           0       11.971971   -2.592651    0.928230
     61          1           0       11.514697   -3.555624    2.462485
     62          1           0       11.275971   -1.809232    2.290054
     63          1           0        5.054005   -5.738169    0.441722
     64          1           0        3.269237   -5.247280   -1.889975
     65          1           0        6.774489   -5.363552   -1.815720
     66          1           0        5.311060   -6.046960   -2.448863
     67          1           0        6.138834   -6.861317   -1.065424
     68          1           0        2.813393   -6.697043    0.262764
     69          1           0        1.634249   -5.877535   -0.596594
     70          1           0        2.945248   -4.395085    1.661442
     71          1           0        1.950648   -5.638616    2.214727
     72          1           0        1.190470   -4.530255    1.121698
     73          1           0       -0.288407   -1.994281   -3.172385
     74          1           0       -1.006334   -0.595550   -2.684452
     75          1           0       -0.985449   -1.992877   -1.504815
     76          1           0        1.339086    3.410138   -0.570192
     77          1           0        2.666176    6.694398   -2.448470
     78          1           0        0.914029    6.902810   -2.921031
     79          1           0        2.044251    5.951680   -4.030590
     80         12           0       -4.869138   -0.739473    0.218398
     81          6           0       -2.976548    2.214423    0.772312
     82          6           0       -7.619515    1.417768   -0.323591
     83          6           0       -6.805168   -3.359575    0.041802
     84          6           0       -2.077310   -2.625930    1.080702
     85          7           0       -5.264043    1.603044    0.233071
     86          6           0       -4.271747    2.539265    0.390968
     87          6           0       -4.748936    3.962224    0.154730
     88          6           0       -6.293559    3.667016   -0.071624
     89          6           0       -6.413429    2.135461   -0.097064
     90          6           0       -7.148863    4.422498    0.941251
     91          6           0       -4.051635    4.575496   -1.079447
     92          6           0       -3.690560    6.109648   -1.056525
     93          1           0       -4.442653    7.020293   -0.057579
     94          7           0       -6.923339   -0.961637   -0.174895
     95          6           0       -7.878686    0.049195   -0.284608
     96          6           0       -9.184119   -0.582344   -0.534241
     97          6           0       -8.931394   -1.992942   -0.527532
     98          6           0       -7.487569   -2.122685   -0.252656
     99          6           0      -10.407689    0.157343   -0.653518
    100          6           0       -9.920315   -3.135976   -0.733118
    101          8           0       -9.567452   -4.318726   -0.601443
    102          6           0      -11.275130   -2.876713   -1.264696
    103          7           0       -4.516838   -2.712539    0.621166
    104          6           0       -5.462780   -3.622134    0.372719
    105          6           0       -4.960186   -5.062914    0.712469
    106          6           0       -3.421962   -4.829355    0.847569
    107          6           0       -3.292793   -3.338626    0.874952
    108          6           0       -5.671181   -5.721491    1.949086
    109          6           0       -2.796190   -5.434521   -0.466735
    110          6           0       -2.534807   -4.519731   -1.712611
    111          7           0       -2.900409   -0.352706    0.706278
    112          6           0       -1.874782   -1.251540    1.051086
    113          6           0       -0.671006   -0.464384    1.416713
    114          6           0       -1.096110    0.858149    1.369679
    115          6           0       -2.397550    0.932878    0.920384
    116          6           0        0.482169   -1.119835    2.009163
    117          6           0       -0.652871    2.205092    1.720862
    118          8           0        0.419187    2.541531    2.210964
    119          6           0       -1.880359    3.170282    1.369434
    120          6           0       -2.324207    3.930644    2.562991
    121          8           0       -3.225924    3.610676    3.332178
    122          8           0       -1.554478    5.104357    2.670680
    123          6           0       -1.722802    6.019949    3.776429
    124          1           0       -8.448330    1.994117   -0.740885
    125          1           0       -7.391670   -4.278863   -0.022499
    126          1           0       -1.263906   -3.323889    1.288295
    127          1           0       -4.584089    4.609290    1.016647
    128          1           0       -6.551567    4.146249   -1.015617
    129          1           0       -7.915323    5.064118    0.507969
    130          1           0       -6.610071    5.041457    1.658713
    131          1           0       -7.723145    3.668078    1.480620
    132          1           0       -4.638046    4.402260   -1.981704
    133          1           0       -3.161175    3.948118   -1.132204
    134          1           0       -3.935213    6.569810   -2.013280
    135          1           0       -2.601136    6.142559   -1.068740
    136          1           0      -10.869408   -0.167743   -1.586070
    137          1           0      -10.245508    1.215407   -0.450123
    138          1           0      -10.923139   -0.182793    0.245212
    139          1           0      -11.941410   -2.399413   -0.545481
    140          1           0      -11.749071   -3.823847   -1.521705
    141          1           0      -11.179865   -2.141317   -2.063062
    142          1           0       -5.287329   -5.556514   -0.202676
    143          1           0       -3.002689   -5.365707    1.699197
    144          1           0       -6.482081   -6.367567    1.612481
    145          1           0       -5.960463   -4.907073    2.612484
    146          1           0       -4.907157   -6.317949    2.447410
    147          1           0       -3.291501   -6.377651   -0.698421
    148          1           0       -1.753340   -5.588437   -0.187879
    149          1           0       -2.883882   -5.128796   -2.545946
    150          1           0       -1.476998   -4.305854   -1.870912
    151          1           0       -3.091628   -3.583946   -1.747049
    152          1           0        0.135488   -1.773414    2.808614
    153          1           0        1.088879   -0.331038    2.455067
    154          1           0        1.129478   -1.542634    1.241310
    155          1           0       -1.452214    3.861101    0.642438
    156          1           0       -1.008276    5.859825    4.583473
    157          1           0       -2.774495    6.139678    4.037073
    158          1           0       -1.545666    6.972157    3.275590
 ---------------------------------------------------------------------

 SCF Done:  E(RwB97XD) =  -4070.62030260     A.U. after   20 cycles

 Excitation energies and oscillator strengths:

 Excited State   1:      Singlet-A      1.5913 eV  779.12 nm  f=0.8679  <S**2>=0.000
     309 -> 316       -0.11754
     310 -> 315       -0.12296
     311 -> 313        0.50547
     311 -> 314        0.23445
     312 -> 313        0.29517
     312 -> 314       -0.26816
 This state for optimization and/or second-order correction.
 Total Energy, E(TD-HF/TD-DFT) =  -4070.56182192
 Copying the excited state density for this state as the 1-particle RhoCI density.

 Excited State   2:      Singlet-A      1.7040 eV  727.60 nm  f=0.0552  <S**2>=0.000
     309 -> 315        0.13825
     310 -> 316        0.13677
     311 -> 313        0.37596
     312 -> 313       -0.11148
     312 -> 314        0.55067

 Excited State   3:      Singlet-A      2.1158 eV  585.99 nm  f=0.0655  <S**2>=0.000
     309 -> 313       -0.38528
     309 -> 314       -0.18044
     310 -> 313        0.47558
     311 -> 315        0.18410
     311 -> 316       -0.18767

 Excited State   4:      Singlet-A      2.2135 eV  560.12 nm  f=0.0787  <S**2>=0.000
     309 -> 313       -0.21674
     309 -> 314        0.40248
     310 -> 314        0.41384
     312 -> 315       -0.20654
     312 -> 316       -0.22313

 Excited State   5:      Singlet-A      2.4593 eV  504.13 nm  f=0.0008  <S**2>=0.000
     311 -> 313       -0.19274
     312 -> 313        0.61333
     312 -> 314        0.24662

 The electronic state is 1-A.
 Alpha  occ. eigenvalues --  -46.96015 -46.94463 -19.29843 -19.28966 -19.24782
 Alpha  occ. eigenvalues --  -19.24503 -19.24389 -19.24252 -19.23703 -19.23553
 Alpha  occ. eigenvalues --  -14.46476 -14.46323 -14.46132 -14.45547 -14.43955
 Alpha  occ. eigenvalues --  -14.43831 -14.43130 -14.43113 -10.43003 -10.42764
 Alpha  occ. eigenvalues --  -10.39477 -10.39201 -10.39035 -10.38715 -10.35357
 Alpha  occ. eigenvalues --  -10.34925 -10.34763 -10.34743 -10.34723 -10.34645
 Alpha  occ. eigenvalues --  -10.34541 -10.34525 -10.34230 -10.34185 -10.34167
 Alpha  occ. eigenvalues --  -10.34093 -10.33726 -10.33209 -10.33001 -10.32929
 Alpha  occ. eigenvalues --  -10.32830 -10.32727 -10.32591 -10.32493 -10.32430
 Alpha  occ. eigenvalues --  -10.32308 -10.31987 -10.31822 -10.31775 -10.31726
 Alpha  occ. eigenvalues --  -10.31672 -10.31509 -10.31502 -10.31387 -10.31363
 Alpha  occ. eigenvalues --  -10.31310 -10.31210 -10.31182 -10.31145 -10.31105
 Alpha  occ. eigenvalues --  -10.31047 -10.30927 -10.30770 -10.30740 -10.30732
 Alpha  occ. eigenvalues --  -10.30474 -10.30389 -10.30240 -10.30205 -10.30185
 Alpha  occ. eigenvalues --  -10.30172 -10.30084 -10.30081 -10.30067 -10.29974
 Alpha  occ. eigenvalues --  -10.29758 -10.29484 -10.29228 -10.29055 -10.28897
 Alpha  occ. eigenvalues --  -10.28823 -10.28797 -10.28695 -10.28585 -10.28516
 Alpha  occ. eigenvalues --  -10.28265  -3.21814  -3.20452  -1.95364  -1.94936
 Alpha  occ. eigenvalues --   -1.94765  -1.94047  -1.93588  -1.93411  -1.18301
 Alpha  occ. eigenvalues --   -1.16532  -1.14917  -1.11771  -1.11406  -1.11195
 Alpha  occ. eigenvalues --   -1.10589  -1.09153  -1.06429  -1.05870  -1.05693
 Alpha  occ. eigenvalues --   -1.04890  -1.04821  -1.04251  -1.03618  -1.02969
 Alpha  occ. eigenvalues --   -0.93498  -0.93254  -0.91569  -0.90688  -0.90617
 Alpha  occ. eigenvalues --   -0.90162  -0.89962  -0.89905  -0.89043  -0.88934
 Alpha  occ. eigenvalues --   -0.88886  -0.88372  -0.87827  -0.87585  -0.85747
 Alpha  occ. eigenvalues --   -0.85643  -0.85284  -0.84960  -0.84267  -0.84254
 Alpha  occ. eigenvalues --   -0.83619  -0.83567  -0.82468  -0.82356  -0.82116
 Alpha  occ. eigenvalues --   -0.82043  -0.80660  -0.79996  -0.78921  -0.78863
 Alpha  occ. eigenvalues --   -0.78593  -0.78321  -0.77522  -0.77333  -0.76428
 Alpha  occ. eigenvalues --   -0.76379  -0.74009  -0.73735  -0.73147  -0.72969
 Alpha  occ. eigenvalues --   -0.71461  -0.71097  -0.70974  -0.70377  -0.69896
 Alpha  occ. eigenvalues --   -0.69409  -0.68673  -0.68389  -0.66631  -0.66462
 Alpha  occ. eigenvalues --   -0.66348  -0.66145  -0.66099  -0.65823  -0.65811
 Alpha  occ. eigenvalues --   -0.65563  -0.63529  -0.63247  -0.62082  -0.61808
 Alpha  occ. eigenvalues --   -0.61169  -0.60926  -0.60645  -0.60503  -0.60070
 Alpha  occ. eigenvalues --   -0.59778  -0.59687  -0.59499  -0.59155  -0.58784
 Alpha  occ. eigenvalues --   -0.58001  -0.57774  -0.57632  -0.57114  -0.57087
 Alpha  occ. eigenvalues --   -0.56923  -0.56828  -0.56240  -0.56065  -0.55847
 Alpha  occ. eigenvalues --   -0.55650  -0.55509  -0.55431  -0.55064  -0.54928
 Alpha  occ. eigenvalues --   -0.54715  -0.54617  -0.54448  -0.54358  -0.54085
 Alpha  occ. eigenvalues --   -0.53630  -0.53291  -0.53139  -0.52961  -0.52777
 Alpha  occ. eigenvalues --   -0.52590  -0.52506  -0.52493  -0.52242  -0.51944
 Alpha  occ. eigenvalues --   -0.51858  -0.51709  -0.51616  -0.51324  -0.51277
 Alpha  occ. eigenvalues --   -0.51035  -0.50940  -0.50812  -0.50708  -0.50568
 Alpha  occ. eigenvalues --   -0.50334  -0.50179  -0.50137  -0.50063  -0.49956
 Alpha  occ. eigenvalues --   -0.49719  -0.49441  -0.49302  -0.48940  -0.48926
 Alpha  occ. eigenvalues --   -0.48886  -0.48632  -0.48356  -0.48273  -0.47744
 Alpha  occ. eigenvalues --   -0.47696  -0.47629  -0.47451  -0.47284  -0.47185
 Alpha  occ. eigenvalues --   -0.47089  -0.46636  -0.46439  -0.46297  -0.46203
 Alpha  occ. eigenvalues --   -0.46102  -0.46011  -0.45862  -0.45720  -0.45622
 Alpha  occ. eigenvalues --   -0.45470  -0.45295  -0.45274  -0.45149  -0.45072
 Alpha  occ. eigenvalues --   -0.44996  -0.44863  -0.44749  -0.44674  -0.44322
 Alpha  occ. eigenvalues --   -0.44219  -0.44090  -0.44058  -0.43721  -0.43463
 Alpha  occ. eigenvalues --   -0.43415  -0.43336  -0.43091  -0.42916  -0.42710
 Alpha  occ. eigenvalues --   -0.42472  -0.42361  -0.42148  -0.41972  -0.41872
 Alpha  occ. eigenvalues --   -0.41682  -0.40824  -0.40759  -0.40656  -0.39836
 Alpha  occ. eigenvalues --   -0.39792  -0.39439  -0.39387  -0.39055  -0.38989
 Alpha  occ. eigenvalues --   -0.38725  -0.38595  -0.38273  -0.37869  -0.37753
 Alpha  occ. eigenvalues --   -0.37321  -0.37247  -0.36391  -0.35798  -0.35657
 Alpha  occ. eigenvalues --   -0.35313  -0.35210  -0.35100  -0.33541  -0.32916
 Alpha  occ. eigenvalues --   -0.32889  -0.32760  -0.32609  -0.32490  -0.32129
 Alpha  occ. eigenvalues --   -0.31753  -0.31508  -0.30563  -0.25533  -0.25349
 Alpha  occ. eigenvalues --   -0.22612  -0.22186
 Alpha virt. eigenvalues --   -0.06816  -0.06096   0.00430   0.00672   0.02245
 Alpha virt. eigenvalues --    0.02942   0.04390   0.04806   0.04994   0.06935
 Alpha virt. eigenvalues --    0.07376   0.07467   0.07994   0.08203   0.08652

 Mulliken charges:
               1
     1  Mg   0.945358
     2  C   -0.010094
     3  C   -0.064793
     4  C   -0.065407
     5  C   -0.097659
     6  N   -0.371597
     7  C   -0.012811
     8  C   -0.031363
     9  C   -0.133799
    10  C    0.099289
    11  C    0.020768
    12  C   -0.036851
    13  C   -0.121640
    14  H    0.049101
    15  N   -0.507492
    16  C    0.144250
    17  C   -0.141870
    18  C   -0.082984
    19  C    0.113602
    20  C    0.033192
    21  C    0.056238
    22  O   -0.199646
    23  C   -0.017828
    24  N   -0.306515
    25  C    0.067281
    26  C   -0.069147
    27  C   -0.046804
    28  C    0.006723
    29  C    0.036723
    30  C   -0.048896
    31  C   -0.035532
    32  N   -0.391488
    33  C    0.142223
    34  C   -0.181255
    35  C   -0.012933
    36  C    0.104953
    37  C    0.070899
    38  C    0.121876
    39  O   -0.216105
    40  C   -0.067250
    41  C    0.250328
    42  O   -0.228947
    43  O   -0.377912
    44  C    0.117730
    45  H   -0.017282
    46  H    0.025404
    47  H   -0.013693
    48  H    0.046295
    49  H    0.043799
    50  H    0.042014
    51  H    0.048773
    52  H    0.031719
    53  H    0.050952
    54  H    0.044341
    55  H    0.031440
    56  H    0.058187
    57  H    0.036533
    58  H    0.055553
    59  H    0.058123
    60  H    0.064096
    61  H    0.073275
    62  H    0.037521
    63  H    0.039417
    64  H    0.034751
    65  H    0.044448
    66  H    0.034298
    67  H    0.040858
    68  H    0.023802
    69  H    0.020463
    70  H    0.038637
    71  H    0.033035
    72  H    0.040489
    73  H    0.040817
    74  H    0.045482
    75  H    0.056368
    76  H    0.079699
    77  H    0.053676
    78  H    0.065086
    79  H    0.085502
    80  Mg   0.960047
    81  C    0.034096
    82  C   -0.115126
    83  C   -0.073579
    84  C   -0.086639
    85  N   -0.269299
    86  C   -0.049752
    87  C   -0.083791
    88  C   -0.080743
    89  C    0.062593
    90  C    0.018568
    91  C   -0.008432
    92  C   -0.101637
    93  H    0.033884
    94  N   -0.420272
    95  C    0.160158
    96  C   -0.186952
    97  C   -0.090259
    98  C    0.146681
    99  C    0.087555
   100  C    0.060525
   101  O   -0.252376
   102  C   -0.004275
   103  N   -0.412428
   104  C    0.043040
   105  C   -0.106108
   106  C   -0.054583
   107  C    0.048523
   108  C    0.042444
   109  C   -0.055420
   110  C   -0.042451
   111  N   -0.481676
   112  C    0.149389
   113  C   -0.182345
   114  C   -0.014894
   115  C    0.170120
   116  C    0.085821
   117  C    0.110150
   118  O   -0.207218
   119  C   -0.098891
   120  C    0.294459
   121  O   -0.246186
   122  O   -0.392947
   123  C    0.149131
   124  H    0.010964
   125  H    0.015488
   126  H   -0.018801
   127  H    0.043546
   128  H    0.029218
   129  H    0.024203
   130  H    0.044388
   131  H    0.025450
   132  H    0.030628
   133  H    0.058721
   134  H    0.042162
   135  H    0.054364
   136  H    0.062117
   137  H    0.037659
   138  H    0.060861
   139  H    0.050081
   140  H    0.062736
   141  H    0.050048
   142  H    0.038902
   143  H    0.035065
   144  H    0.056119
   145  H    0.049776
   146  H    0.028333
   147  H    0.044615
   148  H    0.021944
   149  H    0.033415
   150  H    0.040791
   151  H    0.054045
   152  H    0.053192
   153  H    0.035742
   154  H    0.055853
   155  H    0.077423
   156  H    0.069045
   157  H    0.047655
   158  H    0.039557
 Sum of Mulliken charges =  -0.00000

 Dipole moment (field-independent basis, Debye):
    X=              0.3037    Y=              2.5055    Z=              0.9099  Tot=              2.6829
 Quadrupole moment (field-independent basis, Debye-Ang):
   XX=           -444.5933   YY=           -473.1729   ZZ=           -523.7549
   XY=              0.4536   XZ=             26.9812   YZ=             -0.8929

 Normal termination of Gaussian 16 at Sun Sep 19 01:36:06 2021.
