 Gaussian 16, Revision A.03,
 Gaussian 16:  ES64L-G16RevA.03 25-Dec-2016

 --------------------------------
 #p wB97XD/Def2SVP td=(nstates=5)
 --------------------------------

 --------------------------------
 TDDFT excited states in gaussian
 --------------------------------
 Symbolic Z-matrix:
 Charge =  0 Multiplicity = 1

                         Standard orientation:
 ---------------------------------------------------------------------
 Center     Atomic      Atomic             Coordinates (Angstroms)
 Number     Number       Type             X           Y           Z
 ---------------------------------------------------------------------
      1         12           0      -26.112885   -0.553192   -0.162893
      2          6           0      -24.255939    2.624719   -0.678788
      3          6           0      -26.441536    0.539311    3.018669
      4          6           0      -27.422219   -3.412771    0.232169
      5          6           0      -24.787509   -1.558469   -3.310387
      6          7           0      -25.374610    1.329927    1.000419
      7          6           0      -24.827016    2.514742    0.538329
      8          6           0      -24.844110    3.664250    1.552410
      9          6           0      -25.121837    2.834075    2.843543
     10          6           0      -25.681509    1.464500    2.295783
     11          6           0      -23.938672    2.628120    3.736073
     12          6           0      -25.830113    4.848345    1.275600
     13          6           0      -25.445493    6.208912    1.752722
     14          1           0      -26.594599    7.066784    2.272746
     15          7           0      -26.903669   -1.355065    1.435651
     16          6           0      -27.017587   -0.732029    2.696075
     17          6           0      -27.840496   -1.567863    3.521949
     18          6           0      -28.248693   -2.649901    2.626832
     19          6           0      -27.531436   -2.479325    1.415108
     20          6           0      -28.307781   -1.217168    4.982944
     21          6           0      -29.234163   -3.726186    2.965621
     22          8           0      -29.494966   -4.664070    2.173309
     23          6           0      -30.014363   -3.746782    4.229133
     24          7           0      -26.004699   -2.314377   -1.247581
     25          6           0      -26.673455   -3.410475   -0.883874
     26          6           0      -26.565017   -4.587388   -1.905726
     27          6           0      -26.110095   -3.764601   -3.168276
     28          6           0      -25.547190   -2.458071   -2.544860
     29          6           0      -25.489045   -5.639254   -1.484227
     30          6           0      -27.320716   -3.427555   -4.136524
     31          6           0      -28.222997   -4.570050   -4.648376
     32          7           0      -24.835797    0.332806   -1.716751
     33          6           0      -24.466230   -0.201305   -2.945928
     34          6           0      -23.617227    0.734316   -3.645590
     35          6           0      -23.542147    1.860270   -2.815775
     36          6           0      -24.224822    1.552440   -1.606985
     37          6           0      -23.074588    0.590708   -5.027709
     38          6           0      -22.990335    3.205045   -2.715847
     39          8           0      -22.346387    3.917916   -3.474202
     40          6           0      -23.560937    3.745057   -1.303686
     41          6           0      -22.406314    4.258688   -0.586928
     42          8           0      -21.417192    3.612632   -0.206758
     43          8           0      -22.365707    5.609824   -0.780057
     44          6           0      -21.284117    6.363446   -0.231715
     45          1           0      -26.636576    1.016696    3.981412
     46          1           0      -27.861893   -4.407903    0.324267
     47          1           0      -24.424486   -1.917520   -4.276057
     48          1           0      -23.830398    4.062495    1.600813
     49          1           0      -25.967936    3.249182    3.390377
     50          1           0      -23.630524    1.589098    3.619367
     51          1           0      -24.238735    2.749004    4.776862
     52          1           0      -23.063275    3.252466    3.558343
     53          1           0      -26.757310    4.612825    1.797256
     54          1           0      -26.050987    4.841854    0.208569
     55          1           0      -25.024686    6.679009    0.864113
     56          1           0      -24.564062    6.194738    2.393946
     57          1           0      -29.351087   -0.919663    5.084078
     58          1           0      -27.653157   -0.477149    5.442535
     59          1           0      -28.124191   -2.162455    5.495165
     60          1           0      -29.351225   -4.064176    5.034282
     61          1           0      -30.805230   -4.480869    4.072642
     62          1           0      -30.449124   -2.753899    4.339420
     63          1           0      -27.560254   -5.030594   -1.953776
     64          1           0      -25.314774   -4.213069   -3.762854
     65          1           0      -26.032194   -6.552426   -1.239629
     66          1           0      -24.817783   -5.338417   -0.680514
     67          1           0      -24.942943   -5.775571   -2.418736
     68          1           0      -26.918269   -2.990397   -5.050013
     69          1           0      -27.884012   -2.633287   -3.647012
     70          1           0      -29.223694   -4.301951   -4.309845
     71          1           0      -27.874470   -5.446962   -4.102044
     72          1           0      -28.210077   -4.660642   -5.734424
     73          1           0      -23.635493   -0.243092   -5.450547
     74          1           0      -22.022193    0.332029   -4.911222
     75          1           0      -23.121124    1.503531   -5.621560
     76          1           0      -24.289912    4.534966   -1.483708
     77          1           0      -20.598521    5.733497    0.335479
     78          1           0      -21.751059    7.059283    0.465447
     79          1           0      -20.807042    6.981227   -0.991202
     80         12           0       25.029288   -0.837870    0.094973
     81          6           0       26.790262    2.229711   -0.462076
     82          6           0       23.399858    0.632430    2.736390
     83          6           0       23.673538   -3.800560    0.985043
     84          6           0       27.441173   -2.405306   -1.946426
     85          7           0       25.100652    1.194839    0.994849
     86          6           0       25.824170    2.326572    0.587083
     87          6           0       25.420133    3.503052    1.438164
     88          6           0       24.773184    2.798958    2.704569
     89          6           0       24.438915    1.391298    2.129242
     90          6           0       25.859643    2.750448    3.837315
     91          6           0       24.546495    4.569493    0.687965
     92          6           0       25.000564    5.905620    1.000814
     93          1           0       24.430915    7.061404    0.034177
     94          7           0       23.580717   -1.370281    1.569356
     95          6           0       23.017253   -0.617690    2.521937
     96          6           0       22.023690   -1.386729    3.206206
     97          6           0       22.083969   -2.683600    2.741055
     98          6           0       23.145181   -2.683534    1.631205
     99          6           0       21.225401   -0.819572    4.422828
    100          6           0       21.209114   -3.894951    3.124021
    101          8           0       21.442280   -4.966385    2.624397
    102          6           0       20.018864   -3.730467    4.039415
    103          7           0       25.697094   -2.847495   -0.222054
    104          6           0       24.848687   -3.880956    0.159744
    105          6           0       25.232134   -5.158274   -0.513941
    106          6           0       26.435352   -4.713225   -1.480469
    107          6           0       26.504881   -3.219694   -1.265240
    108          6           0       25.539673   -6.258036    0.445337
    109          6           0       26.319812   -5.109768   -3.053505
    110          6           0       27.358716   -5.989596   -3.627894
    111          7           0       26.744799   -0.265183   -1.044534
    112          6           0       27.594716   -1.041132   -1.800033
    113          6           0       28.604835   -0.110274   -2.467866
    114          6           0       28.257617    1.194302   -2.063197
    115          6           0       27.151649    1.040589   -1.155579
    116          6           0       29.758744   -0.578705   -3.364861
    117          6           0       28.716467    2.549070   -2.122615
    118          8           0       29.664008    3.056883   -2.763784
    119          6           0       27.903401    3.259960   -0.964237
    120          6           0       27.420070    4.611888   -1.570032
    121          8           0       26.249613    4.747049   -1.971290
    122          8           0       28.409422    5.534655   -1.483715
    123          6           0       27.995232    6.758045   -2.253041
    124          1           0       22.720785    1.141738    3.423888
    125          1           0       23.236843   -4.768599    1.241932
    126          1           0       28.166804   -2.782047   -2.670111
    127          1           0       26.351875    3.945743    1.789544
    128          1           0       23.906275    3.346676    3.072420
    129          1           0       26.639688    2.009945    3.662186
    130          1           0       25.362124    2.588820    4.792641
    131          1           0       26.333647    3.729634    3.909127
    132          1           0       23.559019    4.530914    1.148476
    133          1           0       24.468750    4.357392   -0.378634
    134          1           0       26.068782    6.012330    0.811310
    135          1           0       24.717843    6.112544    2.033268
    136          1           0       20.188544   -0.970680    4.122636
    137          1           0       21.366522    0.245002    4.608951
    138          1           0       21.516869   -1.343312    5.333140
    139          1           0       19.572725   -4.699163    4.264832
    140          1           0       19.428745   -3.114289    3.361114
    141          1           0       20.353560   -3.215803    4.940035
    142          1           0       24.343629   -5.389995   -1.101575
    143          1           0       27.333694   -5.197286   -1.098178
    144          1           0       24.712183   -6.956642    0.328264
    145          1           0       25.482298   -5.943339    1.487231
    146          1           0       26.503545   -6.748128    0.306096
    147          1           0       26.450571   -4.142161   -3.537929
    148          1           0       25.301133   -5.450853   -3.233164
    149          1           0       27.924892   -5.476034   -4.404505
    150          1           0       26.674650   -6.680180   -4.119912
    151          1           0       27.933258   -6.528303   -2.873136
    152          1           0       30.619638   -0.680016   -2.704977
    153          1           0       29.988623    0.134215   -4.156638
    154          1           0       29.468739   -1.506296   -3.858449
    155          1           0       28.654624    3.397895   -0.187788
    156          1           0       28.033309    6.653118   -3.337188
    157          1           0       28.544790    7.664054   -1.999706
    158          1           0       26.980426    6.978835   -1.921491
 ---------------------------------------------------------------------

 SCF Done:  E(RwB97XD) =  -4070.57369725     A.U. after   17 cycles

 Excitation energies and oscillator strengths:

 Excited State   1:      Singlet-A      1.6008 eV  774.50 nm  f=0.3881  <S**2>=0.000
     309 -> 316       -0.16171
     311 -> 313        0.68933
     309 <- 316       -0.11300
 This state for optimization and/or second-order correction.
 Total Energy, E(TD-HF/TD-DFT) =  -4070.51486797
 Copying the excited state density for this state as the 1-particle RhoCI density.

 Excited State   2:      Singlet-A      1.6769 eV  739.38 nm  f=0.3534  <S**2>=0.000
     310 -> 315        0.19190
     312 -> 314        0.68018
     310 <- 315        0.11547

 Excited State   3:      Singlet-A      2.1247 eV  583.54 nm  f=0.2111  <S**2>=0.000
     309 -> 313        0.66540
     311 -> 316        0.22066

 Excited State   4:      Singlet-A      2.2164 eV  559.39 nm  f=0.0062  <S**2>=0.000
     310 -> 314        0.55055
     312 -> 315       -0.43363

 Excited State   5:      Singlet-A      3.1834 eV  389.47 nm  f=0.0051  <S**2>=0.000
     304 -> 313        0.18270
     306 -> 313        0.66066

 The electronic state is 1-A.
 Alpha  occ. eigenvalues --  -46.95749 -46.95255 -19.31346 -19.30073 -19.25015
 Alpha  occ. eigenvalues --  -19.24685 -19.24518 -19.24421 -19.23757 -19.22462
 Alpha  occ. eigenvalues --  -14.46956 -14.46860 -14.46464 -14.46019 -14.44294
 Alpha  occ. eigenvalues --  -14.44215 -14.43964 -14.43705 -10.43550 -10.43037
 Alpha  occ. eigenvalues --  -10.40073 -10.39649 -10.38877 -10.37942 -10.35475
 Alpha  occ. eigenvalues --  -10.35426 -10.35381 -10.35335 -10.35259 -10.34922
 Alpha  occ. eigenvalues --  -10.34872 -10.34813 -10.34793 -10.34710 -10.34500
 Alpha  occ. eigenvalues --  -10.34464 -10.34421 -10.33861 -10.33225 -10.33136
 Alpha  occ. eigenvalues --  -10.33103 -10.33035 -10.32989 -10.32953 -10.32932
 Alpha  occ. eigenvalues --  -10.32756 -10.32582 -10.32412 -10.32288 -10.32208
 Alpha  occ. eigenvalues --  -10.32200 -10.32182 -10.32159 -10.32079 -10.32061
 Alpha  occ. eigenvalues --  -10.32028 -10.32025 -10.32018 -10.31950 -10.31722
 Alpha  occ. eigenvalues --  -10.31559 -10.31432 -10.31415 -10.31376 -10.31021
 Alpha  occ. eigenvalues --  -10.31011 -10.30819 -10.30789 -10.30484 -10.30363
 Alpha  occ. eigenvalues --  -10.30342 -10.30333 -10.30107 -10.30102 -10.29801
 Alpha  occ. eigenvalues --  -10.29768 -10.29761 -10.29660 -10.29638 -10.29578
 Alpha  occ. eigenvalues --  -10.29452 -10.29396 -10.29199 -10.28991 -10.28902
 Alpha  occ. eigenvalues --  -10.28793  -3.21552  -3.21358  -1.95132  -1.94917
 Alpha  occ. eigenvalues --   -1.94657  -1.94518  -1.94480  -1.94345  -1.18758
 Alpha  occ. eigenvalues --   -1.18191  -1.13967  -1.12534  -1.10027  -1.09654
 Alpha  occ. eigenvalues --   -1.09282  -1.09249  -1.06946  -1.06111  -1.06075
 Alpha  occ. eigenvalues --   -1.05683  -1.05047  -1.04665  -1.04614  -1.03405
 Alpha  occ. eigenvalues --   -0.95731  -0.93145  -0.91435  -0.90835  -0.90698
 Alpha  occ. eigenvalues --   -0.90578  -0.90021  -0.89975  -0.89476  -0.89410
 Alpha  occ. eigenvalues --   -0.89139  -0.88807  -0.88199  -0.87357  -0.86652
 Alpha  occ. eigenvalues --   -0.86262  -0.85997  -0.85645  -0.85043  -0.84533
 Alpha  occ. eigenvalues --   -0.84444  -0.84038  -0.83052  -0.82800  -0.82609
 Alpha  occ. eigenvalues --   -0.82357  -0.80528  -0.80189  -0.79444  -0.79438
 Alpha  occ. eigenvalues --   -0.79235  -0.78422  -0.78190  -0.77403  -0.77362
 Alpha  occ. eigenvalues --   -0.76856  -0.75381  -0.74130  -0.73392  -0.72918
 Alpha  occ. eigenvalues --   -0.71232  -0.70780  -0.70612  -0.70196  -0.69760
 Alpha  occ. eigenvalues --   -0.69390  -0.68933  -0.68295  -0.67674  -0.67104
 Alpha  occ. eigenvalues --   -0.66992  -0.66918  -0.66870  -0.66479  -0.66408
 Alpha  occ. eigenvalues --   -0.66264  -0.64072  -0.64016  -0.62754  -0.61935
 Alpha  occ. eigenvalues --   -0.61803  -0.61518  -0.61049  -0.60860  -0.60412
 Alpha  occ. eigenvalues --   -0.60408  -0.60191  -0.59718  -0.59362  -0.59009
 Alpha  occ. eigenvalues --   -0.57973  -0.57877  -0.57624  -0.57427  -0.57014
 Alpha  occ. eigenvalues --   -0.56880  -0.56634  -0.56232  -0.56116  -0.55936
 Alpha  occ. eigenvalues --   -0.55884  -0.55683  -0.55454  -0.55204  -0.54849
 Alpha  occ. eigenvalues --   -0.54792  -0.54594  -0.54527  -0.54487  -0.54371
 Alpha  occ. eigenvalues --   -0.54371  -0.53830  -0.53717  -0.53367  -0.53226
 Alpha  occ. eigenvalues --   -0.53204  -0.52954  -0.52462  -0.52282  -0.52238
 Alpha  occ. eigenvalues --   -0.52148  -0.52055  -0.51863  -0.51838  -0.51656
 Alpha  occ. eigenvalues --   -0.51469  -0.51448  -0.51176  -0.51023  -0.50852
 Alpha  occ. eigenvalues --   -0.50670  -0.50534  -0.50273  -0.50134  -0.50091
 Alpha  occ. eigenvalues --   -0.49931  -0.49803  -0.49756  -0.49534  -0.49334
 Alpha  occ. eigenvalues --   -0.49188  -0.48506  -0.48472  -0.48441  -0.48373
 Alpha  occ. eigenvalues --   -0.48162  -0.48123  -0.47976  -0.47914  -0.47735
 Alpha  occ. eigenvalues --   -0.47397  -0.47267  -0.47054  -0.46940  -0.46760
 Alpha  occ. eigenvalues --   -0.46501  -0.46428  -0.46313  -0.46266  -0.45996
 Alpha  occ. eigenvalues --   -0.45938  -0.45717  -0.45688  -0.45369  -0.45199
 Alpha  occ. eigenvalues --   -0.45175  -0.45078  -0.44972  -0.44781  -0.44751
 Alpha  occ. eigenvalues --   -0.44614  -0.44252  -0.44054  -0.43934  -0.43933
 Alpha  occ. eigenvalues --   -0.43810  -0.43622  -0.43371  -0.43257  -0.43003
 Alpha  occ. eigenvalues --   -0.42674  -0.42667  -0.42605  -0.42093  -0.41762
 Alpha  occ. eigenvalues --   -0.41684  -0.41391  -0.41251  -0.40739  -0.40494
 Alpha  occ. eigenvalues --   -0.40426  -0.40183  -0.39753  -0.39707  -0.39250
 Alpha  occ. eigenvalues --   -0.39204  -0.39148  -0.38958  -0.38424  -0.38054
 Alpha  occ. eigenvalues --   -0.37880  -0.36755  -0.36644  -0.36293  -0.36021
 Alpha  occ. eigenvalues --   -0.35804  -0.35416  -0.35174  -0.33919  -0.33801
 Alpha  occ. eigenvalues --   -0.33463  -0.33363  -0.32614  -0.32264  -0.32217
 Alpha  occ. eigenvalues --   -0.32092  -0.31787  -0.31443  -0.26194  -0.26184
 Alpha  occ. eigenvalues --   -0.23568  -0.21995
 Alpha virt. eigenvalues --   -0.08044  -0.05874  -0.00588   0.01120   0.02099
 Alpha virt. eigenvalues --    0.02337   0.04261   0.04486   0.04924   0.05088
 Alpha virt. eigenvalues --    0.06081   0.07286   0.07627   0.07791   0.08285

 Mulliken charges:
               1
     1  Mg   0.983477
     2  C   -0.013877
     3  C   -0.065939
     4  C   -0.042891
     5  C   -0.083061
     6  N   -0.296666
     7  C   -0.036432
     8  C   -0.083948
     9  C   -0.102267
    10  C   -0.016867
    11  C    0.047870
    12  C    0.043097
    13  C   -0.116516
    14  H    0.053894
    15  N   -0.496812
    16  C    0.190389
    17  C   -0.170799
    18  C   -0.082123
    19  C    0.147986
    20  C    0.071871
    21  C    0.008793
    22  O   -0.274944
    23  C    0.009700
    24  N   -0.391860
    25  C    0.045225
    26  C   -0.110549
    27  C   -0.102306
    28  C    0.088809
    29  C    0.051786
    30  C   -0.033966
    31  C   -0.032686
    32  N   -0.399983
    33  C    0.123331
    34  C   -0.202604
    35  C   -0.040037
    36  C    0.129353
    37  C    0.087861
    38  C    0.156473
    39  O   -0.192261
    40  C   -0.060190
    41  C    0.245611
    42  O   -0.268779
    43  O   -0.350387
    44  C    0.133704
    45  H   -0.007680
    46  H    0.013685
    47  H    0.005022
    48  H    0.033297
    49  H    0.025429
    50  H    0.044482
    51  H    0.034252
    52  H    0.048394
    53  H    0.032034
    54  H    0.031286
    55  H    0.047999
    56  H    0.042897
    57  H    0.067971
    58  H    0.040261
    59  H    0.043047
    60  H    0.063994
    61  H    0.055112
    62  H    0.045557
    63  H    0.047107
    64  H    0.025418
    65  H    0.046378
    66  H    0.060233
    67  H    0.027964
    68  H    0.024669
    69  H    0.033429
    70  H    0.042568
    71  H    0.036197
    72  H    0.048615
    73  H    0.031169
    74  H    0.060008
    75  H    0.065033
    76  H    0.071956
    77  H    0.066049
    78  H    0.033740
    79  H    0.061948
    80  Mg   0.943111
    81  C    0.041594
    82  C   -0.129166
    83  C   -0.076119
    84  C   -0.077248
    85  N   -0.336203
    86  C   -0.017678
    87  C   -0.079416
    88  C   -0.155267
    89  C    0.135768
    90  C    0.022053
    91  C    0.093424
    92  C   -0.136478
    93  H    0.009050
    94  N   -0.446361
    95  C    0.165866
    96  C   -0.153354
    97  C   -0.107856
    98  C    0.164912
    99  C    0.056833
   100  C    0.032501
   101  O   -0.217387
   102  C    0.006147
   103  N   -0.392377
   104  C    0.060505
   105  C   -0.103406
   106  C   -0.058552
   107  C    0.088797
   108  C    0.029700
   109  C   -0.034553
   110  C   -0.028615
   111  N   -0.416769
   112  C    0.095806
   113  C   -0.195751
   114  C   -0.011727
   115  C    0.105112
   116  C    0.075075
   117  C    0.122579
   118  O   -0.234926
   119  C   -0.139095
   120  C    0.281311
   121  O   -0.275167
   122  O   -0.340454
   123  C    0.131685
   124  H   -0.010048
   125  H    0.029201
   126  H   -0.008275
   127  H    0.017187
   128  H    0.025390
   129  H    0.050729
   130  H    0.035123
   131  H    0.035632
   132  H    0.016180
   133  H    0.073630
   134  H    0.051830
   135  H    0.043245
   136  H    0.051666
   137  H    0.037590
   138  H    0.072608
   139  H    0.062101
   140  H    0.066281
   141  H    0.055580
   142  H    0.043050
   143  H    0.031489
   144  H    0.039721
   145  H    0.045852
   146  H    0.038554
   147  H    0.026806
   148  H    0.028199
   149  H    0.044933
   150  H    0.030319
   151  H    0.041837
   152  H    0.063096
   153  H    0.057595
   154  H    0.033405
   155  H    0.090001
   156  H    0.070071
   157  H    0.052416
   158  H    0.059103
 Sum of Mulliken charges =  -0.00000

 Dipole moment (field-independent basis, Debye):
    X=             -5.5254    Y=              0.0348    Z=              5.3089  Tot=              7.6626
 Quadrupole moment (field-independent basis, Debye-Ang):
   XX=           -555.6852   YY=           -502.1519   ZZ=           -474.3195
   XY=            -85.2129   XZ=             36.6882   YZ=             45.4269

 Normal termination of Gaussian 16 at Sat Sep 18 18:01:08 2021.
