 Gaussian 16, Revision A.03,
 Gaussian 16:  ES64L-G16RevA.03 25-Dec-2016

 --------------------------------
 #p wB97XD/Def2SVP td=(nstates=5)
 --------------------------------

 --------------------------------
 TDDFT excited states in gaussian
 --------------------------------
 Symbolic Z-matrix:
 Charge =  0 Multiplicity = 1

                         Standard orientation:
 ---------------------------------------------------------------------
 Center     Atomic      Atomic             Coordinates (Angstroms)
 Number     Number       Type             X           Y           Z
 ---------------------------------------------------------------------
      1         12           0       22.025455   -0.595991    0.300419
      2          6           0       21.375845    2.093489   -1.693159
      3          6           0       21.728022    1.525309    3.115653
      4          6           0       22.887195   -3.155422    2.280305
      5          6           0       22.225013   -2.571614   -2.502413
      6          7           0       21.917153    1.592927    0.669859
      7          6           0       21.533514    2.487638   -0.337302
      8          6           0       21.311944    3.924347    0.214721
      9          6           0       21.513456    3.636395    1.726234
     10          6           0       21.806225    2.153758    1.869075
     11          6           0       22.527685    4.484197    2.606341
     12          6           0       19.906706    4.603882   -0.098469
     13          6           0       19.791449    6.016859    0.533743
     14          1           0       19.851829    7.145998   -0.495940
     15          7           0       22.228566   -0.792265    2.462687
     16          6           0       21.829456    0.137065    3.399055
     17          6           0       22.131634   -0.455290    4.696824
     18          6           0       22.477046   -1.820616    4.437358
     19          6           0       22.526686   -2.001185    3.020604
     20          6           0       21.963283    0.321149    5.945590
     21          6           0       22.885314   -2.829919    5.566609
     22          8           0       23.389146   -3.949538    5.344040
     23          6           0       22.746553   -2.435376    7.013872
     24          7           0       22.492086   -2.464286   -0.039172
     25          6           0       22.846290   -3.409473    0.964293
     26          6           0       23.427563   -4.661381    0.347253
     27          6           0       22.769746   -4.604071   -1.030129
     28          6           0       22.412737   -3.136805   -1.220896
     29          6           0       24.991513   -4.639774    0.277668
     30          6           0       21.463000   -5.425219   -1.103708
     31          6           0       21.556137   -6.894757   -1.415586
     32          7           0       21.893978   -0.387652   -1.746488
     33          6           0       21.839624   -1.270346   -2.756930
     34          6           0       21.656528   -0.567668   -3.992471
     35          6           0       21.447790    0.750430   -3.646248
     36          6           0       21.558933    0.811204   -2.248429
     37          6           0       21.608592   -1.260895   -5.309314
     38          6           0       21.167530    2.014837   -4.179424
     39          8           0       20.961541    2.384958   -5.319142
     40          6           0       21.103463    2.975112   -2.900632
     41          6           0       22.093807    4.067241   -3.099878
     42          8           0       23.296443    3.966902   -3.119397
     43          8           0       21.498215    5.263444   -3.115560
     44          6           0       22.407671    6.464869   -3.259547
     45          1           0       21.467707    2.201625    3.932353
     46          1           0       23.163078   -4.000965    2.913611
     47          1           0       22.146061   -3.151856   -3.423733
     48          1           0       22.115980    4.562188   -0.152549
     49          1           0       20.562482    3.752814    2.246900
     50          1           0       22.220364    4.692553    3.631500
     51          1           0       22.877218    5.346589    2.038428
     52          1           0       23.376448    3.814905    2.746238
     53          1           0       19.187778    3.871267    0.266241
     54          1           0       19.794737    4.669851   -1.180617
     55          1           0       20.509238    6.119579    1.347581
     56          1           0       18.796069    6.076905    0.972892
     57          1           0       22.954172    0.502491    6.362388
     58          1           0       21.241448   -0.234455    6.544242
     59          1           0       21.471393    1.273261    5.745999
     60          1           0       23.016855   -3.274939    7.654326
     61          1           0       21.670664   -2.315160    7.148031
     62          1           0       23.263654   -1.530805    7.332888
     63          1           0       23.141008   -5.548867    0.912161
     64          1           0       23.429793   -4.917332   -1.838762
     65          1           0       25.340346   -3.966275   -0.504191
     66          1           0       25.376840   -5.646619    0.114594
     67          1           0       25.317553   -4.299374    1.259865
     68          1           0       20.730922   -4.996942   -1.787178
     69          1           0       20.916457   -5.321189   -0.166283
     70          1           0       21.115199   -7.420039   -0.568864
     71          1           0       22.625703   -7.092282   -1.342416
     72          1           0       21.157725   -7.178156   -2.389916
     73          1           0       20.575703   -1.435834   -5.607854
     74          1           0       22.234227   -2.142005   -5.455157
     75          1           0       21.996225   -0.534226   -6.023524
     76          1           0       20.097987    3.391804   -2.837258
     77          1           0       23.189414    6.362980   -2.506498
     78          1           0       21.905048    7.411293   -3.058458
     79          1           0       22.824167    6.446315   -4.266905
     80         12           0      -21.482290   -0.765075    0.013400
     81          6           0      -23.467152    1.798999    1.299471
     82          6           0      -19.375305    1.487687   -1.236619
     83          6           0      -20.467833   -3.140777   -2.225353
     84          6           0      -23.743893   -3.082844    1.297678
     85          7           0      -21.342638    1.422729    0.175989
     86          6           0      -22.236843    2.219540    0.748422
     87          6           0      -21.684786    3.690924    0.745609
     88          6           0      -20.439749    3.569485   -0.165358
     89          6           0      -20.369742    2.074722   -0.463139
     90          6           0      -20.590967    4.314060   -1.583552
     91          6           0      -21.312920    4.280972    2.181189
     92          6           0      -21.736797    5.701237    2.336373
     93          1           0      -20.731658    6.734508    2.821436
     94          7           0      -20.092018   -0.807547   -1.497403
     95          6           0      -19.285483    0.239457   -1.857238
     96          6           0      -18.216166   -0.270289   -2.726872
     97          6           0      -18.548398   -1.624859   -3.008439
     98          6           0      -19.788587   -1.882795   -2.257971
     99          6           0      -17.067229    0.629057   -3.284687
    100          6           0      -17.830054   -2.625622   -3.963037
    101          8           0      -18.187705   -3.784641   -4.140837
    102          6           0      -16.622540   -2.154864   -4.681752
    103          7           0      -22.019778   -2.742136   -0.424283
    104          6           0      -21.517466   -3.549684   -1.449112
    105          6           0      -22.366779   -4.843383   -1.553660
    106          6           0      -22.917382   -5.025735   -0.071630
    107          6           0      -22.868164   -3.510771    0.275612
    108          6           0      -23.427597   -4.786824   -2.673843
    109          6           0      -22.078119   -5.831161    0.879116
    110          6           0      -20.863754   -5.240398    1.531750
    111          7           0      -23.137823   -0.753936    1.248196
    112          6           0      -23.988845   -1.752116    1.662979
    113          6           0      -25.075751   -1.234934    2.497550
    114          6           0      -24.981786    0.217034    2.308210
    115          6           0      -23.779575    0.423119    1.525583
    116          6           0      -26.130077   -2.004374    3.111065
    117          6           0      -25.603924    1.505418    2.588075
    118          8           0      -26.610931    1.803065    3.112455
    119          6           0      -24.574183    2.601718    1.994868
    120          6           0      -25.222224    3.670955    1.152057
    121          8           0      -25.358217    3.626365   -0.067038
    122          8           0      -25.547157    4.748430    1.975535
    123          6           0      -26.167931    5.926919    1.343945
    124          1           0      -18.496228    2.049001   -1.561163
    125          1           0      -20.104765   -3.843027   -2.979169
    126          1           0      -24.356110   -3.866135    1.748643
    127          1           0      -22.366177    4.384642    0.252470
    128          1           0      -19.506201    3.962881    0.236879
    129          1           0      -20.186745    5.318322   -1.454807
    130          1           0      -21.614981    4.466943   -1.923343
    131          1           0      -19.985700    3.771657   -2.310826
    132          1           0      -20.239279    4.244503    2.366503
    133          1           0      -21.715795    3.733298    3.033273
    134          1           0      -22.470677    5.650307    3.140227
    135          1           0      -22.233053    6.181640    1.493604
    136          1           0      -17.436609    1.023433   -4.230911
    137          1           0      -16.129234    0.079195   -3.365298
    138          1           0      -16.950338    1.577485   -2.759279
    139          1           0      -16.566509   -1.155626   -5.113303
    140          1           0      -16.400631   -2.831818   -5.506358
    141          1           0      -15.738434   -2.399674   -4.092394
    142          1           0      -21.624222   -5.615216   -1.754061
    143          1           0      -23.921696   -5.448530   -0.052094
    144          1           0      -24.456607   -4.998606   -2.383285
    145          1           0      -23.132929   -5.313399   -3.581860
    146          1           0      -23.494434   -3.773086   -3.068376
    147          1           0      -21.690257   -6.758187    0.458609
    148          1           0      -22.724756   -6.155737    1.694481
    149          1           0      -21.259391   -4.903915    2.489889
    150          1           0      -20.437965   -4.364193    1.042311
    151          1           0      -20.110110   -6.018229    1.658810
    152          1           0      -26.342125   -1.510229    4.059371
    153          1           0      -25.727962   -2.997847    3.308045
    154          1           0      -27.018014   -1.997021    2.479684
    155          1           0      -24.118732    3.101957    2.849530
    156          1           0      -27.025906    5.566212    0.775968
    157          1           0      -25.482981    6.394022    0.636789
    158          1           0      -26.509298    6.754369    1.966174
 ---------------------------------------------------------------------

 SCF Done:  E(RwB97XD) =  -4070.64116428     A.U. after   19 cycles

 Excitation energies and oscillator strengths:

 Excited State   1:      Singlet-A      1.5970 eV  776.38 nm  f=0.3838  <S**2>=0.000
     309 -> 315       -0.16562
     311 -> 313        0.68822
     309 <- 315       -0.11236
 This state for optimization and/or second-order correction.
 Total Energy, E(TD-HF/TD-DFT) =  -4070.58247704
 Copying the excited state density for this state as the 1-particle RhoCI density.

 Excited State   2:      Singlet-A      1.6238 eV  763.54 nm  f=0.3836  <S**2>=0.000
     310 -> 316        0.18258
     312 -> 314        0.68414
     310 <- 316        0.11751

 Excited State   3:      Singlet-A      2.1949 eV  564.87 nm  f=0.1023  <S**2>=0.000
     309 -> 313        0.63711
     311 -> 315        0.28942

 Excited State   4:      Singlet-A      2.2000 eV  563.56 nm  f=0.1048  <S**2>=0.000
     310 -> 314        0.63104
     312 -> 316       -0.30771

 Excited State   5:      Singlet-A      3.2155 eV  385.58 nm  f=0.0019  <S**2>=0.000
     308 -> 313        0.67727

 The electronic state is 1-A.
 Alpha  occ. eigenvalues --  -46.94274 -46.93889 -19.30285 -19.30186 -19.25063
 Alpha  occ. eigenvalues --  -19.24770 -19.24525 -19.24195 -19.23733 -19.23582
 Alpha  occ. eigenvalues --  -14.47372 -14.46778 -14.46399 -14.46038 -14.43921
 Alpha  occ. eigenvalues --  -14.43809 -14.43512 -14.43469 -10.43574 -10.42413
 Alpha  occ. eigenvalues --  -10.39607 -10.39564 -10.39200 -10.39037 -10.36173
 Alpha  occ. eigenvalues --  -10.36102 -10.35562 -10.35437 -10.35381 -10.34629
 Alpha  occ. eigenvalues --  -10.34575 -10.34559 -10.34060 -10.34035 -10.33892
 Alpha  occ. eigenvalues --  -10.33818 -10.33574 -10.33546 -10.33501 -10.33390
 Alpha  occ. eigenvalues --  -10.33289 -10.33067 -10.33057 -10.32924 -10.32861
 Alpha  occ. eigenvalues --  -10.32710 -10.32686 -10.32479 -10.32391 -10.32372
 Alpha  occ. eigenvalues --  -10.32305 -10.32248 -10.32183 -10.31949 -10.31904
 Alpha  occ. eigenvalues --  -10.31828 -10.31720 -10.31626 -10.31551 -10.31482
 Alpha  occ. eigenvalues --  -10.31425 -10.31389 -10.31190 -10.31160 -10.30840
 Alpha  occ. eigenvalues --  -10.30760 -10.30752 -10.30701 -10.30443 -10.30412
 Alpha  occ. eigenvalues --  -10.30202 -10.30172 -10.30122 -10.29992 -10.29808
 Alpha  occ. eigenvalues --  -10.29710 -10.29676 -10.29620 -10.29545 -10.29525
 Alpha  occ. eigenvalues --  -10.29489 -10.29394 -10.29382 -10.29134 -10.28926
 Alpha  occ. eigenvalues --  -10.28375  -3.20394  -3.20074  -1.93992  -1.93673
 Alpha  occ. eigenvalues --   -1.93496  -1.93397  -1.93219  -1.93050  -1.19135
 Alpha  occ. eigenvalues --   -1.17349  -1.15242  -1.12768  -1.12359  -1.10488
 Alpha  occ. eigenvalues --   -1.09680  -1.09390  -1.07551  -1.07184  -1.05967
 Alpha  occ. eigenvalues --   -1.05586  -1.05128  -1.04909  -1.04191  -1.04010
 Alpha  occ. eigenvalues --   -0.95392  -0.93870  -0.90976  -0.90905  -0.90704
 Alpha  occ. eigenvalues --   -0.90584  -0.90483  -0.89959  -0.89907  -0.89155
 Alpha  occ. eigenvalues --   -0.89150  -0.88833  -0.88517  -0.88227  -0.86317
 Alpha  occ. eigenvalues --   -0.86071  -0.85877  -0.85503  -0.84462  -0.84454
 Alpha  occ. eigenvalues --   -0.83778  -0.83534  -0.83202  -0.82968  -0.82612
 Alpha  occ. eigenvalues --   -0.82346  -0.80376  -0.80204  -0.79511  -0.79180
 Alpha  occ. eigenvalues --   -0.79178  -0.78694  -0.78183  -0.77774  -0.77169
 Alpha  occ. eigenvalues --   -0.76800  -0.75264  -0.74267  -0.73818  -0.73447
 Alpha  occ. eigenvalues --   -0.71464  -0.71154  -0.70965  -0.70522  -0.70253
 Alpha  occ. eigenvalues --   -0.69697  -0.68715  -0.68085  -0.67805  -0.67654
 Alpha  occ. eigenvalues --   -0.66911  -0.66674  -0.66629  -0.66256  -0.66189
 Alpha  occ. eigenvalues --   -0.66049  -0.64139  -0.63821  -0.62243  -0.62148
 Alpha  occ. eigenvalues --   -0.62056  -0.61561  -0.61162  -0.60906  -0.60891
 Alpha  occ. eigenvalues --   -0.60354  -0.60114  -0.60031  -0.59769  -0.59224
 Alpha  occ. eigenvalues --   -0.58564  -0.58033  -0.57804  -0.57495  -0.57313
 Alpha  occ. eigenvalues --   -0.57053  -0.56770  -0.56722  -0.56245  -0.56068
 Alpha  occ. eigenvalues --   -0.55534  -0.55419  -0.55359  -0.55325  -0.54877
 Alpha  occ. eigenvalues --   -0.54863  -0.54683  -0.54442  -0.54260  -0.54105
 Alpha  occ. eigenvalues --   -0.53763  -0.53714  -0.53625  -0.53564  -0.53323
 Alpha  occ. eigenvalues --   -0.53305  -0.53221  -0.52346  -0.52323  -0.52209
 Alpha  occ. eigenvalues --   -0.52136  -0.52023  -0.51961  -0.51865  -0.51713
 Alpha  occ. eigenvalues --   -0.51563  -0.51446  -0.51210  -0.51058  -0.50913
 Alpha  occ. eigenvalues --   -0.50718  -0.50539  -0.50242  -0.50200  -0.50015
 Alpha  occ. eigenvalues --   -0.49913  -0.49740  -0.49720  -0.49471  -0.49117
 Alpha  occ. eigenvalues --   -0.48905  -0.48870  -0.48785  -0.48525  -0.48482
 Alpha  occ. eigenvalues --   -0.48440  -0.48200  -0.48055  -0.47986  -0.47885
 Alpha  occ. eigenvalues --   -0.47761  -0.47478  -0.47435  -0.47254  -0.47144
 Alpha  occ. eigenvalues --   -0.46885  -0.46686  -0.46564  -0.46289  -0.46209
 Alpha  occ. eigenvalues --   -0.46109  -0.45714  -0.45703  -0.45668  -0.45519
 Alpha  occ. eigenvalues --   -0.45304  -0.45274  -0.45213  -0.44840  -0.44725
 Alpha  occ. eigenvalues --   -0.44605  -0.43941  -0.43800  -0.43754  -0.43570
 Alpha  occ. eigenvalues --   -0.43564  -0.43526  -0.43456  -0.43373  -0.43133
 Alpha  occ. eigenvalues --   -0.43097  -0.42859  -0.42584  -0.42393  -0.42323
 Alpha  occ. eigenvalues --   -0.42129  -0.41994  -0.41768  -0.41051  -0.40608
 Alpha  occ. eigenvalues --   -0.40345  -0.40068  -0.39971  -0.39615  -0.39424
 Alpha  occ. eigenvalues --   -0.39067  -0.38957  -0.38698  -0.38665  -0.38609
 Alpha  occ. eigenvalues --   -0.38602  -0.37854  -0.36437  -0.36291  -0.36287
 Alpha  occ. eigenvalues --   -0.36029  -0.35498  -0.35077  -0.33713  -0.33413
 Alpha  occ. eigenvalues --   -0.33323  -0.33291  -0.33142  -0.32841  -0.32461
 Alpha  occ. eigenvalues --   -0.32200  -0.31780  -0.31277  -0.26572  -0.25918
 Alpha  occ. eigenvalues --   -0.22957  -0.22598
 Alpha virt. eigenvalues --   -0.07456  -0.06824   0.00339   0.00525   0.02415
 Alpha virt. eigenvalues --    0.02470   0.04441   0.04527   0.05898   0.06343
 Alpha virt. eigenvalues --    0.06717   0.07266   0.07966   0.08061   0.08357

 Mulliken charges:
               1
     1  Mg   0.971064
     2  C   -0.006130
     3  C   -0.072318
     4  C   -0.076298
     5  C   -0.099595
     6  N   -0.340900
     7  C   -0.009301
     8  C   -0.022434
     9  C   -0.153779
    10  C    0.065442
    11  C    0.013344
    12  C   -0.006052
    13  C   -0.111442
    14  H    0.047898
    15  N   -0.435155
    16  C    0.162603
    17  C   -0.218445
    18  C   -0.077995
    19  C    0.134359
    20  C    0.083790
    21  C    0.066603
    22  O   -0.256617
    23  C   -0.006768
    24  N   -0.468494
    25  C    0.098756
    26  C   -0.069398
    27  C   -0.080674
    28  C    0.140153
    29  C    0.040735
    30  C   -0.043633
    31  C   -0.003979
    32  N   -0.428080
    33  C    0.106699
    34  C   -0.178900
    35  C    0.017677
    36  C    0.136999
    37  C    0.064708
    38  C    0.098775
    39  O   -0.191659
    40  C   -0.123624
    41  C    0.249344
    42  O   -0.247077
    43  O   -0.362914
    44  C    0.139167
    45  H   -0.004186
    46  H    0.019911
    47  H   -0.001734
    48  H    0.044544
    49  H    0.034712
    50  H    0.042243
    51  H    0.043406
    52  H    0.037668
    53  H    0.035413
    54  H    0.054600
    55  H    0.050962
    56  H    0.052962
    57  H    0.065769
    58  H    0.049299
    59  H    0.025682
    60  H    0.051283
    61  H    0.045754
    62  H    0.060816
    63  H    0.028075
    64  H    0.023091
    65  H    0.041822
    66  H    0.042139
    67  H    0.041582
    68  H    0.022317
    69  H    0.020606
    70  H    0.035334
    71  H    0.017922
    72  H    0.051256
    73  H    0.062370
    74  H    0.045023
    75  H    0.051499
    76  H    0.073817
    77  H    0.057990
    78  H    0.059952
    79  H    0.069646
    80  Mg   0.983766
    81  C    0.016737
    82  C   -0.089950
    83  C   -0.082538
    84  C   -0.106124
    85  N   -0.316761
    86  C    0.009780
    87  C   -0.040595
    88  C   -0.128956
    89  C    0.104150
    90  C   -0.004723
    91  C    0.028147
    92  C   -0.147827
    93  H    0.026079
    94  N   -0.453033
    95  C    0.111655
    96  C   -0.155586
    97  C   -0.103434
    98  C    0.123768
    99  C    0.045654
   100  C    0.084772
   101  O   -0.233048
   102  C   -0.023389
   103  N   -0.364441
   104  C    0.051554
   105  C   -0.052989
   106  C   -0.060238
   107  C    0.046729
   108  C    0.044644
   109  C   -0.025393
   110  C   -0.034940
   111  N   -0.448196
   112  C    0.163819
   113  C   -0.168873
   114  C   -0.084448
   115  C    0.117428
   116  C    0.077003
   117  C    0.137639
   118  O   -0.142197
   119  C   -0.139002
   120  C    0.283395
   121  O   -0.249097
   122  O   -0.383348
   123  C    0.147014
   124  H   -0.013094
   125  H    0.021633
   126  H   -0.009702
   127  H    0.043046
   128  H    0.044022
   129  H    0.031202
   130  H    0.051250
   131  H    0.038072
   132  H    0.037901
   133  H    0.036937
   134  H    0.053912
   135  H    0.051465
   136  H    0.057709
   137  H    0.063557
   138  H    0.032710
   139  H    0.059359
   140  H    0.038687
   141  H    0.062550
   142  H    0.024376
   143  H    0.023892
   144  H    0.039157
   145  H    0.044493
   146  H    0.032109
   147  H    0.026720
   148  H    0.023448
   149  H    0.026946
   150  H    0.051696
   151  H    0.040145
   152  H    0.057381
   153  H    0.036663
   154  H    0.074617
   155  H    0.075942
   156  H    0.054267
   157  H    0.040552
   158  H    0.061772
 Sum of Mulliken charges =  -0.00000

 Dipole moment (field-independent basis, Debye):
    X=              1.1271    Y=              2.5781    Z=              3.2574  Tot=              4.3043
 Quadrupole moment (field-independent basis, Debye-Ang):
   XX=           -752.7774   YY=           -465.2702   ZZ=           -523.7806
   XY=             28.2444   XZ=             43.4327   YZ=             18.5392

 Normal termination of Gaussian 16 at Mon Sep 20 01:58:07 2021.
