 Gaussian 16, Revision A.03,
 Gaussian 16:  ES64L-G16RevA.03 25-Dec-2016

 --------------------------------
 #p wB97XD/Def2SVP td=(nstates=5)
 --------------------------------

 --------------------------------
 TDDFT excited states in gaussian
 --------------------------------
 Symbolic Z-matrix:
 Charge =  0 Multiplicity = 1

                         Standard orientation:
 ---------------------------------------------------------------------
 Center     Atomic      Atomic             Coordinates (Angstroms)
 Number     Number       Type             X           Y           Z
 ---------------------------------------------------------------------
      1         12           0       20.331123   -0.709809    0.267959
      2          6           0       19.625884    2.114816   -1.671057
      3          6           0       21.529473    1.198222    2.653984
      4          6           0       21.673909   -3.495987    1.763933
      5          6           0       19.522027   -2.758959   -2.491002
      6          7           0       20.435008    1.386368    0.459212
      7          6           0       20.047974    2.399813   -0.389820
      8          6           0       20.128525    3.763581    0.283872
      9          6           0       20.951093    3.428704    1.569319
     10          6           0       20.884009    1.942203    1.625811
     11          6           0       22.333945    4.017092    1.748304
     12          6           0       18.751897    4.464845    0.514879
     13          6           0       18.826326    5.849574    1.167378
     14          1           0       18.086190    6.967414    0.447567
     15          7           0       21.559501   -1.099522    2.031657
     16          6           0       21.813959   -0.153766    2.959835
     17          6           0       22.438776   -0.766011    4.099449
     18          6           0       22.586488   -2.131962    3.803004
     19          6           0       21.934966   -2.284801    2.473712
     20          6           0       22.891309   -0.001783    5.325720
     21          6           0       23.146382   -3.236685    4.637910
     22          8           0       23.379435   -4.414567    4.255630
     23          6           0       23.450541   -3.002029    6.112494
     24          7           0       20.581504   -2.777497   -0.294652
     25          6           0       21.223781   -3.691077    0.469872
     26          6           0       21.016028   -5.171010   -0.162553
     27          6           0       19.926792   -4.904636   -1.260095
     28          6           0       19.928688   -3.411711   -1.339723
     29          6           0       22.402114   -5.698830   -0.703389
     30          6           0       18.502129   -5.330522   -0.748750
     31          6           0       18.006250   -4.812223    0.592230
     32          7           0       19.623920   -0.426189   -1.735531
     33          6           0       19.355106   -1.371447   -2.687004
     34          6           0       18.913727   -0.696093   -3.817649
     35          6           0       18.995651    0.700990   -3.551262
     36          6           0       19.438363    0.816353   -2.259787
     37          6           0       18.531945   -1.245060   -5.147012
     38          6           0       18.823253    2.080308   -4.060915
     39          8           0       18.509360    2.544552   -5.151006
     40          6           0       19.137693    3.055732   -2.798299
     41          6           0       20.023272    4.176466   -3.212406
     42          8           0       20.955235    4.084952   -4.065641
     43          8           0       19.536302    5.278181   -2.657540
     44          6           0       19.969026    6.504679   -3.299511
     45          1           0       21.835518    1.781592    3.525025
     46          1           0       22.063627   -4.397515    2.242634
     47          1           0       19.159375   -3.426768   -3.273971
     48          1           0       20.624056    4.392955   -0.455586
     49          1           0       20.449746    3.737823    2.487131
     50          1           0       22.576121    4.895855    1.150652
     51          1           0       23.076970    3.237408    1.578515
     52          1           0       22.489457    4.137678    2.820577
     53          1           0       18.101582    3.811529    1.097143
     54          1           0       18.243949    4.571206   -0.443093
     55          1           0       19.799642    6.312390    1.005381
     56          1           0       18.572941    5.802801    2.226897
     57          1           0       22.824915    1.082757    5.240127
     58          1           0       23.954653   -0.061543    5.556443
     59          1           0       22.354985   -0.280413    6.233337
     60          1           0       24.300771   -2.323240    6.173189
     61          1           0       23.903254   -3.876234    6.579830
     62          1           0       22.573601   -2.712204    6.692485
     63          1           0       20.700294   -5.861035    0.619944
     64          1           0       20.326739   -5.359391   -2.166350
     65          1           0       23.255811   -5.119604   -0.351100
     66          1           0       22.491707   -5.684883   -1.789734
     67          1           0       22.645496   -6.706097   -0.368403
     68          1           0       18.647137   -6.410725   -0.730315
     69          1           0       17.688620   -5.125109   -1.443874
     70          1           0       18.826005   -4.348689    1.141502
     71          1           0       17.452520   -5.517886    1.210569
     72          1           0       17.233478   -4.103544    0.294306
     73          1           0       17.761654   -2.015804   -5.110450
     74          1           0       19.437823   -1.717796   -5.525392
     75          1           0       18.237870   -0.468280   -5.852123
     76          1           0       18.162207    3.472487   -2.548942
     77          1           0       19.125786    7.188450   -3.404720
     78          1           0       20.371115    6.406624   -4.307598
     79          1           0       20.706378    6.947132   -2.628904
     80         12           0      -20.861291   -0.437392   -0.312551
     81          6           0      -18.809179    2.323909    0.171729
     82          6           0      -23.440161    1.388012    1.025536
     83          6           0      -22.849288   -3.249885   -0.542008
     84          6           0      -18.101348   -2.404329   -1.127690
     85          7           0      -21.093590    1.649055    0.407165
     86          6           0      -20.175957    2.630935    0.416744
     87          6           0      -20.723899    4.028565    0.788250
     88          6           0      -22.182067    3.655059    1.296293
     89          6           0      -22.271182    2.095609    0.933721
     90          6           0      -22.294453    3.995127    2.825244
     91          6           0      -20.688400    4.922814   -0.555367
     92          6           0      -19.948024    6.289472   -0.462152
     93          1           0      -19.792305    6.834585    1.003572
     94          7           0      -22.831305   -0.937966    0.221415
     95          6           0      -23.763781    0.010884    0.689253
     96          6           0      -25.080132   -0.590882    0.684453
     97          6           0      -24.931403   -1.926783    0.290792
     98          6           0      -23.487095   -2.088862   -0.118202
     99          6           0      -26.275468    0.104673    1.351199
    100          6           0      -26.019222   -3.031527    0.226869
    101          8           0      -25.827178   -4.206230   -0.138914
    102          6           0      -27.468475   -2.643246    0.566776
    103          7           0      -20.457990   -2.535561   -0.699867
    104          6           0      -21.523726   -3.482146   -0.788228
    105          6           0      -20.961452   -4.907142   -0.972757
    106          6           0      -19.468988   -4.572597   -1.441381
    107          6           0      -19.339261   -3.062314   -1.111801
    108          6           0      -21.142955   -5.694519    0.314422
    109          6           0      -19.278051   -4.821879   -2.996840
    110          6           0      -20.186106   -4.227185   -4.126603
    111          7           0      -18.872459   -0.176020   -0.385483
    112          6           0      -17.839242   -1.058214   -0.716126
    113          6           0      -16.596325   -0.359089   -0.665921
    114          6           0      -16.914505    0.954613   -0.372298
    115          6           0      -18.303759    1.020094   -0.102067
    116          6           0      -15.206705   -0.937870   -0.837195
    117          6           0      -16.363725    2.238012   -0.184795
    118          8           0      -15.210750    2.531142   -0.170346
    119          6           0      -17.567347    3.151542    0.292917
    120          6           0      -17.265753    3.522431    1.718634
    121          8           0      -17.835644    3.047137    2.678537
    122          8           0      -16.263633    4.409204    1.698452
    123          6           0      -15.579307    4.512531    2.964014
    124          1           0      -24.286024    1.983992    1.373814
    125          1           0      -23.425259   -4.162452   -0.378907
    126          1           0      -17.224795   -3.009728   -1.369862
    127          1           0      -20.148226    4.566788    1.541012
    128          1           0      -22.994060    4.148100    0.761308
    129          1           0      -22.793380    3.238954    3.431824
    130          1           0      -22.879057    4.911214    2.745732
    131          1           0      -21.295338    4.276208    3.157353
    132          1           0      -21.714141    4.999776   -0.915358
    133          1           0      -20.184347    4.322836   -1.313430
    134          1           0      -20.604039    6.918848   -1.062532
    135          1           0      -18.954774    6.306776   -0.909790
    136          1           0      -26.663971   -0.582014    2.103706
    137          1           0      -27.073285    0.231575    0.618197
    138          1           0      -25.961514    1.059518    1.771730
    139          1           0      -27.509880   -2.499871    1.647305
    140          1           0      -28.063176   -3.534655    0.367927
    141          1           0      -27.815154   -1.881996   -0.131661
    142          1           0      -21.492863   -5.301101   -1.839561
    143          1           0      -18.770548   -5.263370   -0.970414
    144          1           0      -22.002546   -5.366883    0.899339
    145          1           0      -20.256672   -5.611101    0.943009
    146          1           0      -21.350699   -6.742655    0.100108
    147          1           0      -19.214079   -5.898987   -3.151580
    148          1           0      -18.320801   -4.339486   -3.194665
    149          1           0      -21.017605   -4.912610   -4.291236
    150          1           0      -19.549331   -4.177973   -5.010667
    151          1           0      -20.505344   -3.193145   -3.992546
    152          1           0      -15.070113   -1.401478   -1.814352
    153          1           0      -15.148784   -1.703007   -0.063311
    154          1           0      -14.391948   -0.212820   -0.860498
    155          1           0      -17.728712    4.094339   -0.230074
    156          1           0      -14.522709    4.764362    2.876083
    157          1           0      -15.699932    3.760283    3.743421
    158          1           0      -15.939040    5.332994    3.585304
 ---------------------------------------------------------------------

 SCF Done:  E(RwB97XD) =  -4070.62436468     A.U. after   19 cycles

 Excitation energies and oscillator strengths:

 Excited State   1:      Singlet-A      1.6513 eV  750.81 nm  f=0.3966  <S**2>=0.000
     310 -> 315       -0.18073
     312 -> 314        0.68393
     310 <- 315       -0.11551
 This state for optimization and/or second-order correction.
 Total Energy, E(TD-HF/TD-DFT) =  -4070.56367918
 Copying the excited state density for this state as the 1-particle RhoCI density.

 Excited State   2:      Singlet-A      1.6680 eV  743.31 nm  f=0.3842  <S**2>=0.000
     309 -> 316       -0.17117
     311 -> 313        0.68641
     309 <- 316       -0.11156

 Excited State   3:      Singlet-A      2.0911 eV  592.91 nm  f=0.1643  <S**2>=0.000
     309 -> 313        0.66094
     311 -> 316        0.23076

 Excited State   4:      Singlet-A      2.1706 eV  571.20 nm  f=0.1248  <S**2>=0.000
     310 -> 314        0.64462
     312 -> 315        0.27783

 Excited State   5:      Singlet-A      3.0721 eV  403.58 nm  f=0.0090  <S**2>=0.000
     308 -> 313        0.67870

 The electronic state is 1-A.
 Alpha  occ. eigenvalues --  -46.95720 -46.94414 -19.31855 -19.31401 -19.25025
 Alpha  occ. eigenvalues --  -19.24450 -19.24227 -19.24021 -19.23581 -19.23461
 Alpha  occ. eigenvalues --  -14.47521 -14.46841 -14.46426 -14.46024 -14.44368
 Alpha  occ. eigenvalues --  -14.44118 -14.43702 -14.42589 -10.43173 -10.43071
 Alpha  occ. eigenvalues --  -10.39807 -10.39049 -10.38868 -10.38829 -10.36206
 Alpha  occ. eigenvalues --  -10.35739 -10.35672 -10.35173 -10.35114 -10.35009
 Alpha  occ. eigenvalues --  -10.34881 -10.34748 -10.34694 -10.34331 -10.34279
 Alpha  occ. eigenvalues --  -10.34059 -10.34006 -10.33889 -10.33823 -10.33614
 Alpha  occ. eigenvalues --  -10.33604 -10.33221 -10.32965 -10.32618 -10.32595
 Alpha  occ. eigenvalues --  -10.32445 -10.32387 -10.32360 -10.32356 -10.32354
 Alpha  occ. eigenvalues --  -10.32349 -10.32207 -10.32141 -10.31911 -10.31894
 Alpha  occ. eigenvalues --  -10.31822 -10.31813 -10.31802 -10.31801 -10.31757
 Alpha  occ. eigenvalues --  -10.31709 -10.31632 -10.31077 -10.31039 -10.31027
 Alpha  occ. eigenvalues --  -10.30781 -10.30749 -10.30573 -10.30502 -10.30483
 Alpha  occ. eigenvalues --  -10.30449 -10.30418 -10.30385 -10.30221 -10.30199
 Alpha  occ. eigenvalues --  -10.30048 -10.29660 -10.29618 -10.29534 -10.29422
 Alpha  occ. eigenvalues --  -10.29246 -10.29180 -10.29082 -10.28782 -10.28703
 Alpha  occ. eigenvalues --  -10.28263  -3.21566  -3.20448  -1.95161  -1.94657
 Alpha  occ. eigenvalues --   -1.94545  -1.94041  -1.93550  -1.93439  -1.20371
 Alpha  occ. eigenvalues --   -1.20286  -1.14308  -1.11288  -1.10991  -1.10648
 Alpha  occ. eigenvalues --   -1.10483  -1.08098  -1.07509  -1.06387  -1.06187
 Alpha  occ. eigenvalues --   -1.05331  -1.05324  -1.04744  -1.04466  -1.03138
 Alpha  occ. eigenvalues --   -0.94826  -0.93789  -0.91491  -0.91198  -0.90433
 Alpha  occ. eigenvalues --   -0.90350  -0.89989  -0.89974  -0.89627  -0.89061
 Alpha  occ. eigenvalues --   -0.89024  -0.88430  -0.87922  -0.87591  -0.86716
 Alpha  occ. eigenvalues --   -0.85885  -0.85672  -0.85262  -0.84771  -0.84154
 Alpha  occ. eigenvalues --   -0.83816  -0.83301  -0.83162  -0.82805  -0.82637
 Alpha  occ. eigenvalues --   -0.81871  -0.80882  -0.79641  -0.79500  -0.79259
 Alpha  occ. eigenvalues --   -0.79018  -0.78660  -0.78060  -0.77786  -0.77186
 Alpha  occ. eigenvalues --   -0.76887  -0.74965  -0.74719  -0.73716  -0.73143
 Alpha  occ. eigenvalues --   -0.71884  -0.71090  -0.70822  -0.70635  -0.70359
 Alpha  occ. eigenvalues --   -0.69936  -0.69689  -0.68327  -0.67814  -0.67462
 Alpha  occ. eigenvalues --   -0.67202  -0.66678  -0.66546  -0.66511  -0.66459
 Alpha  occ. eigenvalues --   -0.65868  -0.64702  -0.64372  -0.63078  -0.61987
 Alpha  occ. eigenvalues --   -0.61744  -0.61416  -0.61225  -0.60907  -0.60538
 Alpha  occ. eigenvalues --   -0.60389  -0.59998  -0.59515  -0.59244  -0.59241
 Alpha  occ. eigenvalues --   -0.58224  -0.58212  -0.57959  -0.57724  -0.57663
 Alpha  occ. eigenvalues --   -0.57380  -0.57288  -0.56909  -0.56367  -0.56340
 Alpha  occ. eigenvalues --   -0.55894  -0.55316  -0.55246  -0.55103  -0.55062
 Alpha  occ. eigenvalues --   -0.54903  -0.54469  -0.54439  -0.54101  -0.53897
 Alpha  occ. eigenvalues --   -0.53828  -0.53682  -0.53647  -0.53517  -0.52915
 Alpha  occ. eigenvalues --   -0.52867  -0.52582  -0.52521  -0.52422  -0.52038
 Alpha  occ. eigenvalues --   -0.51850  -0.51764  -0.51531  -0.51456  -0.51075
 Alpha  occ. eigenvalues --   -0.51062  -0.50821  -0.50740  -0.50497  -0.50484
 Alpha  occ. eigenvalues --   -0.50451  -0.50262  -0.50223  -0.50020  -0.49852
 Alpha  occ. eigenvalues --   -0.49662  -0.49396  -0.49220  -0.49136  -0.49092
 Alpha  occ. eigenvalues --   -0.48694  -0.48582  -0.48448  -0.48288  -0.48184
 Alpha  occ. eigenvalues --   -0.48091  -0.47880  -0.47768  -0.47751  -0.47486
 Alpha  occ. eigenvalues --   -0.47363  -0.47142  -0.47084  -0.46897  -0.46621
 Alpha  occ. eigenvalues --   -0.46523  -0.46440  -0.46354  -0.46251  -0.46208
 Alpha  occ. eigenvalues --   -0.45801  -0.45674  -0.45642  -0.45575  -0.45371
 Alpha  occ. eigenvalues --   -0.45357  -0.45151  -0.44996  -0.44912  -0.44829
 Alpha  occ. eigenvalues --   -0.44572  -0.44570  -0.44318  -0.44288  -0.43998
 Alpha  occ. eigenvalues --   -0.43814  -0.43799  -0.43706  -0.43378  -0.43267
 Alpha  occ. eigenvalues --   -0.43148  -0.42771  -0.42693  -0.42602  -0.42387
 Alpha  occ. eigenvalues --   -0.42183  -0.41521  -0.41451  -0.41137  -0.41045
 Alpha  occ. eigenvalues --   -0.40614  -0.39852  -0.39665  -0.39393  -0.39374
 Alpha  occ. eigenvalues --   -0.39102  -0.38980  -0.38870  -0.38571  -0.38442
 Alpha  occ. eigenvalues --   -0.38339  -0.38154  -0.36759  -0.36128  -0.36085
 Alpha  occ. eigenvalues --   -0.35950  -0.35046  -0.34932  -0.34165  -0.33810
 Alpha  occ. eigenvalues --   -0.33185  -0.33054  -0.32967  -0.32484  -0.32309
 Alpha  occ. eigenvalues --   -0.32078  -0.31693  -0.30632  -0.25992  -0.25686
 Alpha  occ. eigenvalues --   -0.23595  -0.22780
 Alpha virt. eigenvalues --   -0.07724  -0.06900   0.00607   0.00642   0.01981
 Alpha virt. eigenvalues --    0.02614   0.04530   0.04601   0.04941   0.05621
 Alpha virt. eigenvalues --    0.06616   0.07109   0.07143   0.08322   0.08369

 Mulliken charges:
               1
     1  Mg   0.940725
     2  C    0.025586
     3  C   -0.076051
     4  C   -0.054478
     5  C   -0.071363
     6  N   -0.396513
     7  C   -0.020253
     8  C   -0.029318
     9  C   -0.089390
    10  C    0.104736
    11  C    0.044350
    12  C    0.022454
    13  C   -0.128870
    14  H    0.030697
    15  N   -0.379673
    16  C    0.094802
    17  C   -0.112195
    18  C   -0.048696
    19  C    0.101640
    20  C    0.053176
    21  C    0.041240
    22  O   -0.259347
    23  C   -0.009034
    24  N   -0.351591
    25  C    0.069250
    26  C   -0.145276
    27  C   -0.029923
    28  C    0.039056
    29  C    0.014269
    30  C   -0.014290
    31  C   -0.051426
    32  N   -0.418099
    33  C    0.151637
    34  C   -0.204247
    35  C   -0.041233
    36  C    0.088479
    37  C    0.077108
    38  C    0.161966
    39  O   -0.201878
    40  C   -0.129331
    41  C    0.263257
    42  O   -0.280598
    43  O   -0.330210
    44  C    0.127191
    45  H   -0.027678
    46  H    0.024850
    47  H   -0.001108
    48  H    0.031551
    49  H    0.031543
    50  H    0.056313
    51  H    0.033579
    52  H    0.025676
    53  H    0.024427
    54  H    0.044931
    55  H    0.046493
    56  H    0.062180
    57  H    0.028546
    58  H    0.048703
    59  H    0.055082
    60  H    0.043736
    61  H    0.044650
    62  H    0.064217
    63  H    0.043789
    64  H    0.030752
    65  H    0.043539
    66  H    0.032451
    67  H    0.040113
    68  H    0.029592
    69  H    0.030962
    70  H    0.055281
    71  H    0.043833
    72  H    0.033842
    73  H    0.035260
    74  H    0.042857
    75  H    0.057964
    76  H    0.082084
    77  H    0.053502
    78  H    0.078576
    79  H    0.049575
    80  Mg   0.964064
    81  C   -0.022283
    82  C   -0.067045
    83  C   -0.064524
    84  C   -0.108220
    85  N   -0.333585
    86  C    0.014033
    87  C   -0.076044
    88  C   -0.120550
    89  C    0.066972
    90  C    0.027389
    91  C   -0.000221
    92  C   -0.127134
    93  H    0.034960
    94  N   -0.460911
    95  C    0.133375
    96  C   -0.174118
    97  C   -0.090113
    98  C    0.138286
    99  C    0.086333
   100  C    0.051262
   101  O   -0.252409
   102  C   -0.016361
   103  N   -0.338710
   104  C    0.022120
   105  C   -0.061319
   106  C   -0.072418
   107  C    0.096984
   108  C    0.042015
   109  C   -0.059403
   110  C   -0.054445
   111  N   -0.488459
   112  C    0.148342
   113  C   -0.184022
   114  C   -0.008157
   115  C    0.148162
   116  C    0.079472
   117  C    0.095160
   118  O   -0.162846
   119  C   -0.097374
   120  C    0.245565
   121  O   -0.237020
   122  O   -0.309740
   123  C    0.140968
   124  H   -0.012942
   125  H    0.030862
   126  H    0.003273
   127  H    0.039870
   128  H    0.038833
   129  H    0.052153
   130  H    0.032878
   131  H    0.049440
   132  H    0.033247
   133  H    0.042349
   134  H    0.057035
   135  H    0.070049
   136  H    0.044618
   137  H    0.039390
   138  H    0.041520
   139  H    0.061814
   140  H    0.044473
   141  H    0.064001
   142  H    0.035118
   143  H    0.030266
   144  H    0.046251
   145  H    0.035041
   146  H    0.037256
   147  H    0.038909
   148  H    0.021501
   149  H    0.047728
   150  H    0.037276
   151  H    0.043657
   152  H    0.037602
   153  H    0.056820
   154  H    0.057397
   155  H    0.056453
   156  H    0.057997
   157  H    0.054685
   158  H    0.025148
 Sum of Mulliken charges =  -0.00000

 Dipole moment (field-independent basis, Debye):
    X=             -1.7770    Y=              3.3589    Z=              5.7828  Tot=              6.9196
 Quadrupole moment (field-independent basis, Debye-Ang):
   XX=           -522.8163   YY=           -475.6810   ZZ=           -517.4511
   XY=            -30.0432   XZ=            150.1002   YZ=             34.1466

 Normal termination of Gaussian 16 at Sun Sep 19 02:13:06 2021.
