 Gaussian 16, Revision A.03,
 Gaussian 16:  ES64L-G16RevA.03 25-Dec-2016

 --------------------------------
 #p wB97XD/Def2SVP td=(nstates=5)
 --------------------------------

 --------------------------------
 TDDFT excited states in gaussian
 --------------------------------
 Symbolic Z-matrix:
 Charge =  0 Multiplicity = 1

                         Standard orientation:
 ---------------------------------------------------------------------
 Center     Atomic      Atomic             Coordinates (Angstroms)
 Number     Number       Type             X           Y           Z
 ---------------------------------------------------------------------
      1         12           0       20.415367   -0.852210   -0.216543
      2          6           0       21.243758    2.585870   -0.119971
      3          6           0       17.214043   -0.044098    0.788521
      4          6           0       19.732574   -4.166148   -0.034260
      5          6           0       23.733534   -1.639851   -1.028207
      6          7           0       19.479949    1.072631    0.350902
      7          6           0       19.923181    2.370572    0.108136
      8          6           0       18.793263    3.435278    0.419746
      9          6           0       17.649886    2.535855    0.960340
     10          6           0       18.135218    1.084397    0.747914
     11          6           0       17.175498    2.751220    2.446175
     12          6           0       18.446085    4.462183   -0.734652
     13          6           0       18.647972    5.906013   -0.386856
     14          1           0       17.595254    6.918730   -0.989085
     15          7           0       18.731305   -1.880272    0.308830
     16          6           0       17.477839   -1.400736    0.630722
     17          6           0       16.592882   -2.517675    0.922263
     18          6           0       17.277568   -3.745038    0.695145
     19          6           0       18.657550   -3.300967    0.275424
     20          6           0       15.093500   -2.368052    1.249578
     21          6           0       16.777128   -5.182707    0.790882
     22          8           0       17.441253   -6.151471    0.484601
     23          6           0       15.300637   -5.586729    1.196749
     24          7           0       21.616638   -2.667506   -0.404105
     25          6           0       21.100710   -3.884124   -0.287739
     26          6           0       22.170127   -5.004811   -0.545657
     27          6           0       23.413178   -4.175156   -1.058225
     28          6           0       22.900875   -2.718168   -0.848430
     29          6           0       22.368875   -5.918607    0.698098
     30          6           0       23.804659   -4.547217   -2.474646
     31          6           0       25.312165   -4.656863   -2.696293
     32          7           0       22.228723    0.156227   -0.401236
     33          6           0       23.473576   -0.264934   -0.827991
     34          6           0       24.346316    0.867457   -0.777769
     35          6           0       23.544899    2.014605   -0.555266
     36          6           0       22.222944    1.545906   -0.316243
     37          6           0       25.808473    0.851932   -1.017011
     38          6           0       23.548142    3.487466   -0.518298
     39          8           0       24.449716    4.320155   -0.544570
     40          6           0       21.906689    3.903549   -0.249667
     41          6           0       21.799911    4.701840    0.931529
     42          8           0       21.382524    4.304090    1.997528
     43          8           0       22.107573    6.016392    0.662704
     44          6           0       22.065150    6.873314    1.873731
     45          1           0       16.161717    0.172848    0.984419
     46          1           0       19.582518   -5.243552    0.055730
     47          1           0       24.719398   -1.966023   -1.367973
     48          1           0       19.143015    3.934328    1.322832
     49          1           0       16.751706    2.649662    0.353289
     50          1           0       16.088770    2.661394    2.440673
     51          1           0       17.506040    3.736617    2.773640
     52          1           0       17.569118    2.021667    3.154207
     53          1           0       17.415328    4.250276   -1.019133
     54          1           0       19.122600    4.243623   -1.561060
     55          1           0       19.622286    6.237881   -0.747972
     56          1           0       18.632822    5.907326    0.702673
     57          1           0       14.575332   -2.803249    0.395795
     58          1           0       14.827506   -1.311307    1.214906
     59          1           0       14.749912   -2.876857    2.151082
     60          1           0       14.616691   -5.090834    0.507132
     61          1           0       15.123329   -5.518397    2.270466
     62          1           0       15.293491   -6.674675    1.137369
     63          1           0       21.911586   -5.671047   -1.368448
     64          1           0       24.204883   -4.347574   -0.328865
     65          1           0       23.436562   -5.979071    0.910927
     66          1           0       21.900368   -6.897724    0.595278
     67          1           0       21.884780   -5.468022    1.562994
     68          1           0       23.396024   -3.854538   -3.209657
     69          1           0       23.368953   -5.482876   -2.828504
     70          1           0       25.869784   -4.277259   -1.840040
     71          1           0       25.539649   -4.023151   -3.553934
     72          1           0       25.617260   -5.658372   -3.000018
     73          1           0       26.271099   -0.110953   -1.233425
     74          1           0       26.247790    1.475394   -0.237363
     75          1           0       25.889640    1.272505   -2.019610
     76          1           0       21.539913    4.466754   -1.108264
     77          1           0       22.778542    6.505890    2.611742
     78          1           0       21.024339    6.884162    2.197195
     79          1           0       22.368282    7.901003    1.677396
     80         12           0      -21.275124    0.111937    0.053479
     81          6           0      -18.043212    1.280739   -0.728657
     82          6           0      -21.714573   -0.418785   -3.228268
     83          6           0      -24.027014   -1.409103    0.944630
     84          6           0      -20.213280    0.133519    3.465588
     85          7           0      -19.982212    0.366558   -1.752843
     86          6           0      -18.752787    0.918953   -1.883671
     87          6           0      -18.282865    1.024692   -3.320330
     88          6           0      -19.636437    0.712308   -4.076100
     89          6           0      -20.536400    0.165024   -2.987627
     90          6           0      -20.290448    1.952474   -4.814069
     91          6           0      -17.078549    0.146184   -3.875970
     92          6           0      -16.555279   -1.094238   -3.104183
     93          1           0      -16.011106   -2.309851   -3.943785
     94          7           0      -22.746983   -0.678346   -1.075466
     95          6           0      -22.718225   -0.910558   -2.380942
     96          6           0      -23.933279   -1.681830   -2.760349
     97          6           0      -24.713231   -1.827086   -1.498711
     98          6           0      -23.811235   -1.301688   -0.473387
     99          6           0      -24.317533   -2.005271   -4.179020
    100          6           0      -26.052568   -2.503244   -1.364440
    101          8           0      -26.609531   -2.914275   -2.379406
    102          6           0      -26.795480   -2.795834   -0.008857
    103          7           0      -22.009455   -0.676725    1.998700
    104          6           0      -23.232059   -1.082135    1.996825
    105          6           0      -23.658013   -1.318278    3.514037
    106          6           0      -22.332159   -1.046744    4.227868
    107          6           0      -21.415186   -0.496981    3.152299
    108          6           0      -24.843662   -0.527110    4.091150
    109          6           0      -21.600189   -2.382912    4.765999
    110          6           0      -21.494308   -2.539269    6.294068
    111          7           0      -19.525489    0.522942    1.186679
    112          6           0      -19.277425    0.610113    2.531071
    113          6           0      -17.992781    1.313469    2.782139
    114          6           0      -17.385288    1.495502    1.507574
    115          6           0      -18.445938    1.083604    0.589810
    116          6           0      -17.327092    1.580796    4.150537
    117          6           0      -16.249564    1.937127    0.769115
    118          8           0      -15.094780    2.279931    1.075507
    119          6           0      -16.650574    1.891325   -0.727321
    120          6           0      -16.510029    3.317584   -1.267087
    121          8           0      -15.702916    3.841145   -1.988253
    122          8           0      -17.681190    4.010823   -0.942555
    123          6           0      -17.831315    5.403321   -1.468160
    124          1           0      -21.826765   -0.588498   -4.301322
    125          1           0      -24.977689   -1.888198    1.190987
    126          1           0      -20.017988    0.371867    4.512863
    127          1           0      -18.066947    2.083833   -3.459522
    128          1           0      -19.450360   -0.029225   -4.853157
    129          1           0      -19.716329    2.860504   -4.632836
    130          1           0      -21.207712    2.083680   -4.241083
    131          1           0      -20.427734    1.720263   -5.870322
    132          1           0      -16.242925    0.827872   -4.035039
    133          1           0      -17.328389   -0.195442   -4.881018
    134          1           0      -17.397343   -1.442186   -2.505841
    135          1           0      -15.650560   -0.904516   -2.527429
    136          1           0      -25.352666   -2.330435   -4.281145
    137          1           0      -23.558282   -2.694095   -4.551264
    138          1           0      -24.105754   -1.081247   -4.718016
    139          1           0      -26.973677   -2.003079    0.718679
    140          1           0      -26.188969   -3.500224    0.560432
    141          1           0      -27.788267   -3.215566   -0.168459
    142          1           0      -23.996660   -2.340810    3.677461
    143          1           0      -22.328351   -0.394444    5.101827
    144          1           0      -25.298185    0.124923    3.345082
    145          1           0      -24.559339    0.032152    4.983120
    146          1           0      -25.674581   -1.158290    4.406260
    147          1           0      -20.571501   -2.448606    4.414268
    148          1           0      -22.163823   -3.213115    4.339796
    149          1           0      -20.603691   -3.055679    6.653008
    150          1           0      -22.339703   -3.167751    6.573962
    151          1           0      -21.518505   -1.509770    6.651553
    152          1           0      -17.756363    1.031745    4.987973
    153          1           0      -17.481890    2.647143    4.313139
    154          1           0      -16.253116    1.433553    4.039249
    155          1           0      -15.970051    1.230065   -1.262701
    156          1           0      -16.934024    6.002918   -1.619737
    157          1           0      -18.381248    5.907975   -0.674030
    158          1           0      -18.442207    5.560854   -2.357266
 ---------------------------------------------------------------------

 SCF Done:  E(RwB97XD) =  -4070.59287616     A.U. after   19 cycles

 Excitation energies and oscillator strengths:

 Excited State   1:      Singlet-A      1.7162 eV  722.45 nm  f=0.4159  <S**2>=0.000
     309 -> 315       -0.19065
     311 -> 313        0.68122
     309 <- 315       -0.11532
 This state for optimization and/or second-order correction.
 Total Energy, E(TD-HF/TD-DFT) =  -4070.52980831
 Copying the excited state density for this state as the 1-particle RhoCI density.

 Excited State   2:      Singlet-A      1.7612 eV  703.99 nm  f=0.3651  <S**2>=0.000
     310 -> 316        0.17855
     312 -> 314        0.68329
     310 <- 316        0.10769

 Excited State   3:      Singlet-A      2.2096 eV  561.12 nm  f=0.1122  <S**2>=0.000
     310 -> 314        0.63742
     312 -> 316       -0.28420

 Excited State   4:      Singlet-A      2.2309 eV  555.75 nm  f=0.0954  <S**2>=0.000
     309 -> 313        0.63456
     311 -> 315        0.29971

 Excited State   5:      Singlet-A      3.4496 eV  359.42 nm  f=0.0264  <S**2>=0.000
     305 -> 314       -0.29833
     308 -> 314        0.60798

 The electronic state is 1-A.
 Alpha  occ. eigenvalues --  -46.96453 -46.94552 -19.29918 -19.29459 -19.25441
 Alpha  occ. eigenvalues --  -19.24936 -19.24653 -19.24331 -19.24053 -19.23620
 Alpha  occ. eigenvalues --  -14.46956 -14.46871 -14.46417 -14.46311 -14.45113
 Alpha  occ. eigenvalues --  -14.44986 -14.44762 -14.43251 -10.43829 -10.42044
 Alpha  occ. eigenvalues --  -10.40426 -10.39941 -10.39824 -10.39594 -10.36640
 Alpha  occ. eigenvalues --  -10.36144 -10.35693 -10.35620 -10.35335 -10.35258
 Alpha  occ. eigenvalues --  -10.35187 -10.35168 -10.34935 -10.34805 -10.34735
 Alpha  occ. eigenvalues --  -10.34470 -10.34434 -10.34220 -10.34119 -10.34114
 Alpha  occ. eigenvalues --  -10.33866 -10.33720 -10.33424 -10.33112 -10.33051
 Alpha  occ. eigenvalues --  -10.32922 -10.32906 -10.32635 -10.32561 -10.32360
 Alpha  occ. eigenvalues --  -10.32109 -10.32060 -10.32006 -10.31983 -10.31982
 Alpha  occ. eigenvalues --  -10.31880 -10.31827 -10.31725 -10.31641 -10.31613
 Alpha  occ. eigenvalues --  -10.31573 -10.31469 -10.31372 -10.31360 -10.31168
 Alpha  occ. eigenvalues --  -10.31166 -10.31140 -10.31017 -10.30857 -10.30663
 Alpha  occ. eigenvalues --  -10.30625 -10.30566 -10.30493 -10.30459 -10.30385
 Alpha  occ. eigenvalues --  -10.30365 -10.30276 -10.30100 -10.30057 -10.29853
 Alpha  occ. eigenvalues --  -10.29661 -10.29648 -10.29297 -10.29060 -10.28892
 Alpha  occ. eigenvalues --  -10.28817  -3.22383  -3.20517  -1.95960  -1.95503
 Alpha  occ. eigenvalues --   -1.95351  -1.94115  -1.93632  -1.93496  -1.18303
 Alpha  occ. eigenvalues --   -1.17929  -1.13767  -1.11782  -1.11682  -1.11409
 Alpha  occ. eigenvalues --   -1.09576  -1.09529  -1.08782  -1.06887  -1.06105
 Alpha  occ. eigenvalues --   -1.06056  -1.05373  -1.04514  -1.03936  -1.02914
 Alpha  occ. eigenvalues --   -0.95663  -0.93728  -0.91773  -0.90961  -0.90772
 Alpha  occ. eigenvalues --   -0.90525  -0.90265  -0.90249  -0.89984  -0.89232
 Alpha  occ. eigenvalues --   -0.88948  -0.88796  -0.87446  -0.87365  -0.86880
 Alpha  occ. eigenvalues --   -0.86250  -0.85877  -0.85476  -0.84829  -0.84387
 Alpha  occ. eigenvalues --   -0.83755  -0.82969  -0.82822  -0.82633  -0.82517
 Alpha  occ. eigenvalues --   -0.82026  -0.80519  -0.80422  -0.79687  -0.78992
 Alpha  occ. eigenvalues --   -0.78804  -0.78665  -0.78326  -0.77629  -0.77354
 Alpha  occ. eigenvalues --   -0.76652  -0.75382  -0.74425  -0.74185  -0.73262
 Alpha  occ. eigenvalues --   -0.71649  -0.71247  -0.71066  -0.70715  -0.70641
 Alpha  occ. eigenvalues --   -0.69550  -0.69403  -0.69116  -0.68825  -0.67690
 Alpha  occ. eigenvalues --   -0.67553  -0.67503  -0.66925  -0.66715  -0.66575
 Alpha  occ. eigenvalues --   -0.66321  -0.65234  -0.63097  -0.62638  -0.62256
 Alpha  occ. eigenvalues --   -0.62061  -0.61494  -0.61128  -0.60741  -0.60580
 Alpha  occ. eigenvalues --   -0.60136  -0.59914  -0.59722  -0.59305  -0.58980
 Alpha  occ. eigenvalues --   -0.58394  -0.57918  -0.57911  -0.57700  -0.57637
 Alpha  occ. eigenvalues --   -0.57079  -0.56687  -0.56558  -0.56104  -0.55959
 Alpha  occ. eigenvalues --   -0.55637  -0.55590  -0.55206  -0.55137  -0.54944
 Alpha  occ. eigenvalues --   -0.54922  -0.54763  -0.54468  -0.54020  -0.54012
 Alpha  occ. eigenvalues --   -0.53713  -0.53583  -0.53578  -0.53290  -0.53265
 Alpha  occ. eigenvalues --   -0.53069  -0.53010  -0.52750  -0.52571  -0.52475
 Alpha  occ. eigenvalues --   -0.52020  -0.52003  -0.51794  -0.51505  -0.51491
 Alpha  occ. eigenvalues --   -0.51423  -0.51328  -0.51038  -0.50846  -0.50603
 Alpha  occ. eigenvalues --   -0.50533  -0.50518  -0.50497  -0.50283  -0.49935
 Alpha  occ. eigenvalues --   -0.49886  -0.49843  -0.49645  -0.49574  -0.49444
 Alpha  occ. eigenvalues --   -0.49418  -0.49252  -0.48922  -0.48665  -0.48624
 Alpha  occ. eigenvalues --   -0.48302  -0.48278  -0.48095  -0.48095  -0.47887
 Alpha  occ. eigenvalues --   -0.47846  -0.47537  -0.47436  -0.47341  -0.47070
 Alpha  occ. eigenvalues --   -0.46831  -0.46723  -0.46628  -0.46385  -0.46166
 Alpha  occ. eigenvalues --   -0.45956  -0.45932  -0.45846  -0.45565  -0.45448
 Alpha  occ. eigenvalues --   -0.45302  -0.45166  -0.45131  -0.45127  -0.44951
 Alpha  occ. eigenvalues --   -0.44624  -0.44303  -0.44271  -0.44165  -0.44087
 Alpha  occ. eigenvalues --   -0.44046  -0.43863  -0.43409  -0.43377  -0.43155
 Alpha  occ. eigenvalues --   -0.43104  -0.42898  -0.42641  -0.42432  -0.42175
 Alpha  occ. eigenvalues --   -0.41924  -0.41906  -0.41537  -0.41280  -0.41190
 Alpha  occ. eigenvalues --   -0.40809  -0.40573  -0.40179  -0.39769  -0.39621
 Alpha  occ. eigenvalues --   -0.39177  -0.38939  -0.38866  -0.38766  -0.38324
 Alpha  occ. eigenvalues --   -0.38196  -0.37808  -0.37111  -0.36305  -0.36136
 Alpha  occ. eigenvalues --   -0.35909  -0.35753  -0.35302  -0.34139  -0.33885
 Alpha  occ. eigenvalues --   -0.33536  -0.33464  -0.33318  -0.32911  -0.32852
 Alpha  occ. eigenvalues --   -0.32152  -0.31467  -0.30723  -0.26467  -0.25989
 Alpha  occ. eigenvalues --   -0.23390  -0.23125
 Alpha virt. eigenvalues --   -0.07309  -0.06807  -0.00173   0.00181   0.01368
 Alpha virt. eigenvalues --    0.02123   0.03806   0.04242   0.04476   0.06048
 Alpha virt. eigenvalues --    0.06764   0.06954   0.07141   0.07924   0.07943

 Mulliken charges:
               1
     1  Mg   0.955350
     2  C    0.013644
     3  C   -0.100338
     4  C   -0.065577
     5  C   -0.066944
     6  N   -0.380850
     7  C   -0.011758
     8  C   -0.052114
     9  C   -0.156880
    10  C    0.113201
    11  C    0.022925
    12  C    0.049750
    13  C   -0.135405
    14  H    0.029662
    15  N   -0.509880
    16  C    0.184278
    17  C   -0.167939
    18  C   -0.051466
    19  C    0.184784
    20  C    0.065720
    21  C    0.037415
    22  O   -0.218213
    23  C   -0.018993
    24  N   -0.317804
    25  C    0.037612
    26  C   -0.121217
    27  C   -0.060573
    28  C    0.021206
    29  C    0.018096
    30  C    0.000736
    31  C   -0.057007
    32  N   -0.464007
    33  C    0.166484
    34  C   -0.208691
    35  C   -0.042139
    36  C    0.161316
    37  C    0.091200
    38  C    0.152340
    39  O   -0.199117
    40  C   -0.162627
    41  C    0.269540
    42  O   -0.250521
    43  O   -0.372343
    44  C    0.150483
    45  H   -0.008574
    46  H    0.020390
    47  H   -0.018343
    48  H    0.051696
    49  H    0.032843
    50  H    0.036955
    51  H    0.043461
    52  H    0.050770
    53  H    0.038882
    54  H    0.034439
    55  H    0.066010
    56  H    0.050602
    57  H    0.052624
    58  H    0.034129
    59  H    0.066473
    60  H    0.061642
    61  H    0.055633
    62  H    0.047367
    63  H    0.040338
    64  H    0.034364
    65  H    0.035183
    66  H    0.050588
    67  H    0.041482
    68  H    0.030955
    69  H    0.027946
    70  H    0.041048
    71  H    0.031078
    72  H    0.041202
    73  H    0.019028
    74  H    0.070143
    75  H    0.044808
    76  H    0.079901
    77  H    0.060050
    78  H    0.049480
    79  H    0.052070
    80  Mg   0.957870
    81  C   -0.036446
    82  C   -0.091654
    83  C   -0.036351
    84  C   -0.103690
    85  N   -0.341046
    86  C   -0.037883
    87  C    0.005268
    88  C   -0.158246
    89  C    0.057869
    90  C    0.033610
    91  C    0.002306
    92  C   -0.149925
    93  H    0.026799
    94  N   -0.476288
    95  C    0.164648
    96  C   -0.173283
    97  C   -0.081404
    98  C    0.167436
    99  C    0.085849
   100  C    0.055585
   101  O   -0.240325
   102  C   -0.027082
   103  N   -0.273791
   104  C    0.045678
   105  C   -0.055709
   106  C   -0.126097
   107  C    0.077343
   108  C    0.014284
   109  C   -0.041882
   110  C   -0.039883
   111  N   -0.402003
   112  C    0.126936
   113  C   -0.186134
   114  C   -0.008898
   115  C    0.160866
   116  C    0.075242
   117  C    0.093736
   118  O   -0.218198
   119  C   -0.083291
   120  C    0.279633
   121  O   -0.209589
   122  O   -0.398004
   123  C    0.134846
   124  H   -0.010886
   125  H   -0.053735
   126  H    0.002662
   127  H    0.040911
   128  H    0.037033
   129  H    0.035430
   130  H    0.038148
   131  H    0.054868
   132  H    0.045310
   133  H    0.044652
   134  H    0.072970
   135  H    0.074309
   136  H    0.077737
   137  H    0.041053
   138  H    0.036965
   139  H    0.056548
   140  H    0.057151
   141  H    0.052451
   142  H    0.035527
   143  H    0.023181
   144  H    0.033262
   145  H    0.036017
   146  H    0.027147
   147  H    0.043293
   148  H    0.025257
   149  H    0.043740
   150  H    0.037834
   151  H    0.028144
   152  H    0.042825
   153  H    0.054957
   154  H    0.069690
   155  H    0.068824
   156  H    0.065905
   157  H    0.044872
   158  H    0.047245
 Sum of Mulliken charges =  -0.00000

 Dipole moment (field-independent basis, Debye):
    X=             -7.7597    Y=             -1.1613    Z=              2.3589  Tot=              8.1931
 Quadrupole moment (field-independent basis, Debye-Ang):
   XX=           -600.6163   YY=           -512.6783   ZZ=           -483.2947
   XY=           -113.0222   XZ=            -92.0390   YZ=             -4.6718

 Normal termination of Gaussian 16 at Mon Sep 20 14:34:07 2021.
