 Gaussian 16, Revision A.03,
 Gaussian 16:  ES64L-G16RevA.03 25-Dec-2016

 --------------------------------
 #p wB97XD/Def2SVP td=(nstates=5)
 --------------------------------

 --------------------------------
 TDDFT excited states in gaussian
 --------------------------------
 Symbolic Z-matrix:
 Charge =  0 Multiplicity = 1

                         Standard orientation:
 ---------------------------------------------------------------------
 Center     Atomic      Atomic             Coordinates (Angstroms)
 Number     Number       Type             X           Y           Z
 ---------------------------------------------------------------------
      1         12           0      -26.799445   -0.270847   -0.037244
      2          6           0      -23.480639   -0.925082   -0.391237
      3          6           0      -26.707999   -1.918247    3.091046
      4          6           0      -29.653823    1.272681    0.752841
      5          6           0      -26.670552    1.845908   -2.960489
      6          7           0      -25.276475   -1.292950    1.132131
      7          6           0      -24.022859   -1.458929    0.868279
      8          6           0      -23.314049   -2.474886    1.832930
      9          6           0      -24.465496   -3.002275    2.771121
     10          6           0      -25.620760   -2.046349    2.314139
     11          6           0      -24.694196   -4.514356    2.783016
     12          6           0      -22.022650   -1.807171    2.596706
     13          6           0      -21.963016   -0.295295    2.743120
     14          1           0      -21.057395    0.349046    3.792664
     15          7           0      -28.000392   -0.319193    1.695875
     16          6           0      -27.847472   -1.087033    2.825223
     17          6           0      -28.876940   -0.805519    3.728736
     18          6           0      -29.755617    0.162932    3.106261
     19          6           0      -29.131890    0.456119    1.788970
     20          6           0      -29.028540   -1.604449    5.010195
     21          6           0      -31.029943    0.722648    3.764007
     22          8           0      -31.321079    0.314574    4.910791
     23          6           0      -31.922439    1.680868    3.178591
     24          7           0      -27.956596    1.500792   -0.923647
     25          6           0      -29.153165    1.722735   -0.458661
     26          6           0      -29.985344    2.684011   -1.354318
     27          6           0      -29.055230    2.832963   -2.578115
     28          6           0      -27.766152    1.997280   -2.199756
     29          6           0      -31.321395    2.163182   -1.744722
     30          6           0      -28.747790    4.361329   -2.942861
     31          6           0      -29.376513    4.896136   -4.294820
     32          7           0      -25.456450    0.289107   -1.497574
     33          6           0      -25.511977    1.104680   -2.634744
     34          6           0      -24.188479    1.044399   -3.329796
     35          6           0      -23.392295    0.300620   -2.447307
     36          6           0      -24.180727   -0.113007   -1.332777
     37          6           0      -23.778507    1.660002   -4.577624
     38          6           0      -22.077021   -0.122894   -2.289349
     39          8           0      -21.053000   -0.018861   -2.980432
     40          6           0      -22.084384   -1.009727   -1.011866
     41          6           0      -21.559403   -2.413111   -1.397598
     42          8           0      -20.643937   -3.031123   -0.881333
     43          8           0      -22.261896   -2.960546   -2.449319
     44          6           0      -21.836857   -4.277302   -2.938955
     45          1           0      -26.567011   -2.403579    4.058886
     46          1           0      -30.657391    1.683359    0.880283
     47          1           0      -26.696934    2.349032   -3.929202
     48          1           0      -23.059803   -3.342697    1.223769
     49          1           0      -24.312179   -2.714202    3.811589
     50          1           0      -25.674192   -4.739785    2.362884
     51          1           0      -24.682170   -4.925337    3.793161
     52          1           0      -23.936313   -5.111546    2.275908
     53          1           0      -21.198028   -2.230850    2.022988
     54          1           0      -21.905709   -2.087406    3.643776
     55          1           0      -22.999854   -0.030778    2.949081
     56          1           0      -21.738829    0.077559    1.743548
     57          1           0      -29.960883   -2.131605    5.214207
     58          1           0      -28.763656   -0.963647    5.851539
     59          1           0      -28.265143   -2.381908    5.032800
     60          1           0      -32.430555    1.405394    2.254623
     61          1           0      -31.367796    2.552111    2.831609
     62          1           0      -32.638206    2.100837    3.884589
     63          1           0      -30.246022    3.667617   -0.963810
     64          1           0      -29.418117    2.306893   -3.461183
     65          1           0      -32.163503    2.611546   -1.217768
     66          1           0      -31.439566    1.128174   -1.421959
     67          1           0      -31.470562    2.277736   -2.818249
     68          1           0      -27.672913    4.458076   -3.101683
     69          1           0      -29.129804    5.082288   -2.221366
     70          1           0      -29.837531    5.868092   -4.123675
     71          1           0      -30.211368    4.245122   -4.554559
     72          1           0      -28.526016    5.028401   -4.963853
     73          1           0      -24.689945    1.688276   -5.175226
     74          1           0      -23.031894    1.045933   -5.082477
     75          1           0      -23.310907    2.607040   -4.309866
     76          1           0      -21.276330   -0.773009   -0.320070
     77          1           0      -22.158280   -4.376576   -3.975918
     78          1           0      -22.251024   -5.163551   -2.458470
     79          1           0      -20.767776   -4.463000   -2.831499
     80         12           0       25.785142    0.773997    0.503422
     81          6           0       26.469958   -2.665897   -0.319347
     82          6           0       23.402705    0.822750   -1.836966
     83          6           0       25.848885    4.117479    0.722074
     84          6           0       28.620818    0.654991    2.564741
     85          7           0       25.088776   -0.717759   -0.918390
     86          6           0       25.351785   -2.097394   -0.966577
     87          6           0       24.335043   -2.843260   -1.912346
     88          6           0       23.428546   -1.679037   -2.414752
     89          6           0       23.962760   -0.446258   -1.638051
     90          6           0       23.379742   -1.431665   -3.901166
     91          6           0       23.563904   -4.060857   -1.169355
     92          6           0       23.630387   -5.413168   -1.889762
     93          1           0       22.221680   -6.015763   -2.250013
     94          7           0       24.660286    2.262452   -0.336276
     95          6           0       23.730551    2.109330   -1.284609
     96          6           0       23.153229    3.393428   -1.685720
     97          6           0       23.955952    4.360705   -0.987901
     98          6           0       24.895892    3.602234   -0.155844
     99          6           0       22.040638    3.519252   -2.635741
    100          6           0       23.852392    5.901297   -1.217404
    101          8           0       24.503197    6.697497   -0.561614
    102          6           0       22.936922    6.509049   -2.231764
    103          7           0       27.021404    2.122101    1.478472
    104          6           0       26.754566    3.486549    1.514022
    105          6           0       27.747475    4.227314    2.468790
    106          6           0       28.378934    3.046775    3.296991
    107          6           0       27.950350    1.852556    2.444629
    108          6           0       28.737552    5.258309    1.835380
    109          6           0       27.840351    2.928926    4.749133
    110          6           0       28.804557    2.572870    5.852423
    111          7           0       27.293222   -0.666490    0.998971
    112          6           0       28.362920   -0.557167    1.841442
    113          6           0       29.006982   -1.934682    1.991316
    114          6           0       28.269630   -2.789467    1.208127
    115          6           0       27.283303   -1.962023    0.569564
    116          6           0       30.151760   -2.202400    2.941713
    117          6           0       28.102251   -4.144605    0.714078
    118          8           0       28.825465   -5.105833    1.049493
    119          6           0       26.924115   -4.114339   -0.430912
    120          6           0       27.400122   -4.402533   -1.839425
    121          8           0       28.334879   -3.749547   -2.344096
    122          8           0       26.812733   -5.547670   -2.378913
    123          6           0       27.553931   -6.062196   -3.524533
    124          1           0       22.541562    0.884298   -2.505309
    125          1           0       25.756533    5.203723    0.779792
    126          1           0       29.414793    0.667483    3.314965
    127          1           0       24.990130   -3.255422   -2.679613
    128          1           0       22.411031   -2.026076   -2.229764
    129          1           0       24.041044   -2.087365   -4.467752
    130          1           0       23.868753   -0.458611   -3.932550
    131          1           0       22.380008   -1.536696   -4.323670
    132          1           0       22.544219   -3.684604   -1.091885
    133          1           0       23.912283   -4.123280   -0.138759
    134          1           0       24.235744   -6.068696   -1.263724
    135          1           0       24.154969   -5.287404   -2.837778
    136          1           0       22.149518    4.135063   -3.527956
    137          1           0       21.312202    4.139875   -2.115150
    138          1           0       21.477282    2.604845   -2.823013
    139          1           0       21.935119    6.208181   -1.922879
    140          1           0       23.144788    6.006461   -3.176794
    141          1           0       23.150291    7.577127   -2.216991
    142          1           0       27.091078    4.794517    3.128775
    143          1           0       29.468373    3.045455    3.271168
    144          1           0       28.412496    5.335188    0.798069
    145          1           0       29.789612    5.000445    1.953534
    146          1           0       28.556434    6.273359    2.191054
    147          1           0       27.126122    2.125112    4.571678
    148          1           0       27.267465    3.789062    5.096243
    149          1           0       28.545540    3.224493    6.687010
    150          1           0       29.844105    2.780584    5.596816
    151          1           0       28.521177    1.573448    6.183423
    152          1           0       30.406050   -1.252794    3.412196
    153          1           0       31.022252   -2.485919    2.350560
    154          1           0       29.879560   -3.007140    3.624351
    155          1           0       26.127748   -4.789948   -0.118724
    156          1           0       28.066809   -7.008919   -3.360680
    157          1           0       28.284187   -5.363629   -3.933233
    158          1           0       26.818244   -6.220003   -4.312761
 ---------------------------------------------------------------------

 SCF Done:  E(RwB97XD) =  -4070.56445905     A.U. after   19 cycles

 Excitation energies and oscillator strengths:

 Excited State   1:      Singlet-A      1.6411 eV  755.48 nm  f=0.4184  <S**2>=0.000
     310 -> 316        0.17858
     312 -> 314        0.68568
     310 <- 316        0.11670
 This state for optimization and/or second-order correction.
 Total Energy, E(TD-HF/TD-DFT) =  -4070.50414855
 Copying the excited state density for this state as the 1-particle RhoCI density.

 Excited State   2:      Singlet-A      1.6548 eV  749.26 nm  f=0.4289  <S**2>=0.000
     309 -> 315        0.16628
     311 -> 313        0.68646
     309 <- 315        0.11150

 Excited State   3:      Singlet-A      2.1981 eV  564.06 nm  f=0.1160  <S**2>=0.000
     309 -> 313        0.64043
     311 -> 315       -0.27518

 Excited State   4:      Singlet-A      2.2310 eV  555.74 nm  f=0.0893  <S**2>=0.000
     310 -> 314        0.62834
     312 -> 316       -0.31481

 Excited State   5:      Singlet-A      3.2247 eV  384.48 nm  f=0.0080  <S**2>=0.000
     303 -> 313        0.15811
     308 -> 313        0.66821
     308 -> 317        0.10505

 The electronic state is 1-A.
 Alpha  occ. eigenvalues --  -46.96696 -46.94730 -19.31926 -19.30199 -19.25811
 Alpha  occ. eigenvalues --  -19.25127 -19.25057 -19.24150 -19.23516 -19.22417
 Alpha  occ. eigenvalues --  -14.47838 -14.47171 -14.46527 -14.46239 -14.45210
 Alpha  occ. eigenvalues --  -14.44403 -14.44297 -14.43922 -10.44710 -10.43663
 Alpha  occ. eigenvalues --  -10.40600 -10.38846 -10.38831 -10.38187 -10.37104
 Alpha  occ. eigenvalues --  -10.35943 -10.35657 -10.35475 -10.35358 -10.35310
 Alpha  occ. eigenvalues --  -10.34948 -10.34776 -10.34726 -10.34723 -10.34642
 Alpha  occ. eigenvalues --  -10.34509 -10.34348 -10.34104 -10.34029 -10.33894
 Alpha  occ. eigenvalues --  -10.33755 -10.33550 -10.33469 -10.33394 -10.33174
 Alpha  occ. eigenvalues --  -10.33049 -10.33003 -10.32974 -10.32951 -10.32633
 Alpha  occ. eigenvalues --  -10.32580 -10.32425 -10.32370 -10.32327 -10.32168
 Alpha  occ. eigenvalues --  -10.31760 -10.31727 -10.31624 -10.31491 -10.31406
 Alpha  occ. eigenvalues --  -10.31280 -10.31253 -10.31171 -10.31152 -10.31099
 Alpha  occ. eigenvalues --  -10.31087 -10.30999 -10.30981 -10.30871 -10.30826
 Alpha  occ. eigenvalues --  -10.30767 -10.30538 -10.30285 -10.30040 -10.30021
 Alpha  occ. eigenvalues --  -10.29983 -10.29882 -10.29828 -10.29810 -10.29762
 Alpha  occ. eigenvalues --  -10.29488 -10.29352 -10.29328 -10.29228 -10.29192
 Alpha  occ. eigenvalues --  -10.28796  -3.22569  -3.20804  -1.96130  -1.95720
 Alpha  occ. eigenvalues --   -1.95499  -1.94377  -1.93915  -1.93803  -1.18521
 Alpha  occ. eigenvalues --   -1.18383  -1.12274  -1.11396  -1.11333  -1.10162
 Alpha  occ. eigenvalues --   -1.09787  -1.09636  -1.07087  -1.06544  -1.05915
 Alpha  occ. eigenvalues --   -1.05752  -1.05320  -1.04624  -1.04260  -1.03900
 Alpha  occ. eigenvalues --   -0.95082  -0.94627  -0.91641  -0.91314  -0.90984
 Alpha  occ. eigenvalues --   -0.90940  -0.90593  -0.90359  -0.89910  -0.89716
 Alpha  occ. eigenvalues --   -0.89276  -0.89125  -0.88067  -0.87221  -0.86590
 Alpha  occ. eigenvalues --   -0.86183  -0.86093  -0.85546  -0.84857  -0.84608
 Alpha  occ. eigenvalues --   -0.84436  -0.83822  -0.83476  -0.83154  -0.82296
 Alpha  occ. eigenvalues --   -0.82184  -0.80474  -0.80370  -0.79527  -0.79370
 Alpha  occ. eigenvalues --   -0.78901  -0.78865  -0.78326  -0.78133  -0.77246
 Alpha  occ. eigenvalues --   -0.76640  -0.75437  -0.74447  -0.73972  -0.72939
 Alpha  occ. eigenvalues --   -0.71647  -0.71002  -0.70869  -0.70374  -0.70323
 Alpha  occ. eigenvalues --   -0.69825  -0.68851  -0.68668  -0.67973  -0.67662
 Alpha  occ. eigenvalues --   -0.67253  -0.66931  -0.66889  -0.66857  -0.66571
 Alpha  occ. eigenvalues --   -0.66351  -0.65386  -0.64585  -0.62919  -0.62242
 Alpha  occ. eigenvalues --   -0.62017  -0.61740  -0.60951  -0.60878  -0.60554
 Alpha  occ. eigenvalues --   -0.60492  -0.60333  -0.60040  -0.59308  -0.59259
 Alpha  occ. eigenvalues --   -0.58321  -0.58240  -0.57635  -0.57624  -0.57398
 Alpha  occ. eigenvalues --   -0.57044  -0.56844  -0.56771  -0.56514  -0.55871
 Alpha  occ. eigenvalues --   -0.55695  -0.55459  -0.55435  -0.55229  -0.55105
 Alpha  occ. eigenvalues --   -0.54816  -0.54623  -0.54529  -0.54346  -0.54193
 Alpha  occ. eigenvalues --   -0.53749  -0.53536  -0.53438  -0.53436  -0.53282
 Alpha  occ. eigenvalues --   -0.53172  -0.53052  -0.52867  -0.52765  -0.52631
 Alpha  occ. eigenvalues --   -0.52281  -0.52173  -0.51925  -0.51551  -0.51503
 Alpha  occ. eigenvalues --   -0.51330  -0.51188  -0.51057  -0.50950  -0.50777
 Alpha  occ. eigenvalues --   -0.50716  -0.50559  -0.50500  -0.50277  -0.50249
 Alpha  occ. eigenvalues --   -0.50069  -0.49858  -0.49589  -0.49365  -0.49173
 Alpha  occ. eigenvalues --   -0.49150  -0.48917  -0.48830  -0.48764  -0.48674
 Alpha  occ. eigenvalues --   -0.48417  -0.48131  -0.47946  -0.47879  -0.47878
 Alpha  occ. eigenvalues --   -0.47686  -0.47589  -0.47311  -0.47212  -0.46994
 Alpha  occ. eigenvalues --   -0.46856  -0.46563  -0.46493  -0.46413  -0.46309
 Alpha  occ. eigenvalues --   -0.46063  -0.45937  -0.45772  -0.45707  -0.45599
 Alpha  occ. eigenvalues --   -0.45545  -0.45141  -0.44944  -0.44807  -0.44730
 Alpha  occ. eigenvalues --   -0.44587  -0.44573  -0.44200  -0.44091  -0.43916
 Alpha  occ. eigenvalues --   -0.43714  -0.43622  -0.43442  -0.43022  -0.42897
 Alpha  occ. eigenvalues --   -0.42779  -0.42675  -0.42638  -0.42446  -0.42081
 Alpha  occ. eigenvalues --   -0.41999  -0.41784  -0.41415  -0.41018  -0.41001
 Alpha  occ. eigenvalues --   -0.40696  -0.40195  -0.40131  -0.39824  -0.39736
 Alpha  occ. eigenvalues --   -0.39476  -0.39421  -0.38841  -0.38536  -0.38489
 Alpha  occ. eigenvalues --   -0.38428  -0.38024  -0.37075  -0.36839  -0.36424
 Alpha  occ. eigenvalues --   -0.36342  -0.36270  -0.35150  -0.33818  -0.33697
 Alpha  occ. eigenvalues --   -0.33499  -0.33220  -0.33164  -0.32598  -0.32564
 Alpha  occ. eigenvalues --   -0.32042  -0.31926  -0.31157  -0.26893  -0.26085
 Alpha  occ. eigenvalues --   -0.23500  -0.22566
 Alpha virt. eigenvalues --   -0.07906  -0.06754   0.00007   0.00605   0.01972
 Alpha virt. eigenvalues --    0.01987   0.03787   0.04298   0.04335   0.04895
 Alpha virt. eigenvalues --    0.05127   0.07012   0.07168   0.07585   0.08002

 Mulliken charges:
               1
     1  Mg   0.956982
     2  C    0.004012
     3  C   -0.071937
     4  C   -0.044017
     5  C   -0.099252
     6  N   -0.349454
     7  C    0.011017
     8  C   -0.050757
     9  C   -0.100565
    10  C    0.039584
    11  C    0.023924
    12  C   -0.030717
    13  C   -0.101617
    14  H    0.062348
    15  N   -0.458866
    16  C    0.154302
    17  C   -0.150861
    18  C   -0.094572
    19  C    0.205464
    20  C    0.091996
    21  C    0.063274
    22  O   -0.267835
    23  C   -0.000185
    24  N   -0.297876
    25  C    0.011008
    26  C   -0.080706
    27  C   -0.045986
    28  C    0.048417
    29  C    0.002539
    30  C   -0.042791
    31  C   -0.065008
    32  N   -0.464664
    33  C    0.133648
    34  C   -0.171337
    35  C   -0.013198
    36  C    0.155666
    37  C    0.081434
    38  C    0.117873
    39  O   -0.220303
    40  C   -0.107861
    41  C    0.242585
    42  O   -0.244063
    43  O   -0.368859
    44  C    0.139795
    45  H    0.011748
    46  H   -0.042731
    47  H    0.000703
    48  H    0.052475
    49  H    0.038592
    50  H    0.039487
    51  H    0.034760
    52  H    0.041341
    53  H    0.057321
    54  H    0.041177
    55  H    0.052233
    56  H    0.036572
    57  H    0.060576
    58  H    0.046832
    59  H    0.000104
    60  H    0.063513
    61  H    0.040944
    62  H    0.054700
    63  H    0.045316
    64  H    0.032505
    65  H    0.028523
    66  H    0.031391
    67  H    0.039496
    68  H    0.036129
    69  H    0.041010
    70  H    0.033311
    71  H    0.036190
    72  H    0.047802
    73  H    0.043718
    74  H    0.066860
    75  H    0.074594
    76  H    0.058531
    77  H    0.052708
    78  H    0.037445
    79  H    0.061542
    80  Mg   0.976062
    81  C   -0.099632
    82  C   -0.080728
    83  C   -0.088301
    84  C   -0.101396
    85  N   -0.370355
    86  C   -0.011640
    87  C   -0.072281
    88  C   -0.107069
    89  C    0.104557
    90  C    0.024213
    91  C    0.006622
    92  C   -0.108838
    93  H    0.027751
    94  N   -0.454557
    95  C    0.114092
    96  C   -0.149563
    97  C   -0.076289
    98  C    0.118110
    99  C    0.069498
   100  C    0.031622
   101  O   -0.238346
   102  C    0.011629
   103  N   -0.401004
   104  C    0.093512
   105  C   -0.058165
   106  C   -0.103779
   107  C    0.063822
   108  C    0.035205
   109  C   -0.016658
   110  C   -0.026196
   111  N   -0.388730
   112  C    0.149121
   113  C   -0.228862
   114  C    0.015756
   115  C    0.154239
   116  C    0.098526
   117  C    0.146802
   118  O   -0.221222
   119  C   -0.037143
   120  C    0.292774
   121  O   -0.256309
   122  O   -0.367182
   123  C    0.121114
   124  H   -0.014013
   125  H    0.016142
   126  H   -0.003781
   127  H    0.041610
   128  H    0.034201
   129  H    0.028896
   130  H    0.041573
   131  H    0.043005
   132  H    0.032008
   133  H    0.037987
   134  H    0.064340
   135  H    0.054477
   136  H    0.046782
   137  H    0.028285
   138  H    0.042612
   139  H    0.049488
   140  H    0.052099
   141  H    0.067747
   142  H    0.030987
   143  H    0.029174
   144  H    0.038576
   145  H    0.045325
   146  H    0.035504
   147  H    0.029355
   148  H    0.034956
   149  H    0.028929
   150  H    0.041838
   151  H    0.043814
   152  H    0.022994
   153  H    0.059004
   154  H    0.067084
   155  H    0.058103
   156  H    0.063437
   157  H    0.072051
   158  H    0.044627
 Sum of Mulliken charges =  -0.00000

 Dipole moment (field-independent basis, Debye):
    X=             -7.3593    Y=              0.1623    Z=             -3.9531  Tot=              8.3554
 Quadrupole moment (field-independent basis, Debye-Ang):
   XX=           -539.7351   YY=           -505.7702   ZZ=           -494.8512
   XY=              7.1035   XZ=            145.4984   YZ=              5.1288

 Normal termination of Gaussian 16 at Sat Sep 18 22:47:59 2021.
