 Gaussian 16, Revision A.03,
 Gaussian 16:  ES64L-G16RevA.03 25-Dec-2016

 --------------------------------
 #p wB97XD/Def2SVP td=(nstates=5)
 --------------------------------

 --------------------------------
 TDDFT excited states in gaussian
 --------------------------------
 Symbolic Z-matrix:
 Charge =  0 Multiplicity = 1

                         Standard orientation:
 ---------------------------------------------------------------------
 Center     Atomic      Atomic             Coordinates (Angstroms)
 Number     Number       Type             X           Y           Z
 ---------------------------------------------------------------------
      1         12           0      -25.663102   -0.344422    0.525827
      2          6           0      -24.226681    2.042437   -1.555764
      3          6           0      -25.413918   -2.636935   -2.008962
      4          6           0      -27.362647   -2.542306    2.499423
      5          6           0      -26.047430    2.263331    2.910203
      6          7           0      -24.943616   -0.294901   -1.544980
      7          6           0      -24.292381    0.768523   -2.112257
      8          6           0      -23.815538    0.299977   -3.489238
      9          6           0      -24.462093   -1.055871   -3.710410
     10          6           0      -24.947347   -1.368184   -2.299395
     11          6           0      -25.527424   -1.216214   -4.761527
     12          6           0      -22.229255    0.324850   -3.715804
     13          6           0      -21.716968   -0.353108   -5.027133
     14          1           0      -21.555672    0.519666   -6.299263
     15          7           0      -26.155372   -2.349013    0.311091
     16          6           0      -26.001902   -3.105581   -0.804075
     17          6           0      -26.574634   -4.393516   -0.510362
     18          6           0      -27.142377   -4.353400    0.797029
     19          6           0      -26.931771   -3.055658    1.259477
     20          6           0      -26.522270   -5.495143   -1.523503
     21          6           0      -27.976035   -5.479311    1.475261
     22          8           0      -28.706650   -5.254272    2.423485
     23          6           0      -28.048278   -6.841272    0.971559
     24          7           0      -26.510348   -0.154199    2.322302
     25          6           0      -27.132090   -1.204625    2.996669
     26          6           0      -27.622259   -0.797800    4.397184
     27          6           0      -26.942269    0.602335    4.574507
     28          6           0      -26.424551    0.900841    3.177107
     29          6           0      -29.059829   -0.965984    4.669235
     30          6           0      -25.826475    0.806008    5.742260
     31          6           0      -26.031949    1.850470    6.843500
     32          7           0      -25.275119    1.812270    0.667910
     33          6           0      -25.509503    2.688527    1.690198
     34          6           0      -25.072636    4.001678    1.354111
     35          6           0      -24.463601    3.791631    0.058187
     36          6           0      -24.704353    2.445783   -0.336651
     37          6           0      -25.169391    5.171303    2.257814
     38          6           0      -23.674808    4.436370   -0.966376
     39          8           0      -23.166128    5.534689   -1.076144
     40          6           0      -23.500258    3.263733   -2.099626
     41          6           0      -23.882756    3.750039   -3.449812
     42          8           0      -25.014659    4.049076   -3.761427
     43          8           0      -22.836329    3.808118   -4.292105
     44          6           0      -23.138738    4.040079   -5.756653
     45          1           0      -25.288579   -3.386020   -2.793926
     46          1           0      -27.910513   -3.264010    3.108597
     47          1           0      -26.229747    2.907379    3.773210
     48          1           0      -24.270830    1.068431   -4.113815
     49          1           0      -23.702429   -1.768377   -4.030914
     50          1           0      -26.397855   -1.301949   -4.111791
     51          1           0      -25.347028   -2.068907   -5.416264
     52          1           0      -25.689975   -0.301504   -5.332005
     53          1           0      -21.877572   -0.228396   -2.844721
     54          1           0      -21.869456    1.352883   -3.695641
     55          1           0      -22.382905   -1.150564   -5.354426
     56          1           0      -20.755401   -0.817140   -4.807710
     57          1           0      -25.968207   -5.322408   -2.446676
     58          1           0      -27.551475   -5.637969   -1.851135
     59          1           0      -26.216420   -6.451846   -1.099633
     60          1           0      -28.244075   -7.023068   -0.084688
     61          1           0      -28.712408   -7.509360    1.519756
     62          1           0      -27.063039   -7.227463    1.231985
     63          1           0      -27.053815   -1.535582    4.964101
     64          1           0      -27.839510    1.209752    4.692177
     65          1           0      -29.337006   -1.687565    5.438211
     66          1           0      -29.534567   -1.271094    3.736326
     67          1           0      -29.555717   -0.060142    5.017787
     68          1           0      -24.887757    1.062927    5.251811
     69          1           0      -25.553114   -0.068599    6.333765
     70          1           0      -25.443331    2.761013    6.728523
     71          1           0      -25.987558    1.459556    7.859626
     72          1           0      -27.042776    2.242765    6.731148
     73          1           0      -26.164523    5.182499    2.701805
     74          1           0      -24.925420    6.109227    1.759659
     75          1           0      -24.571912    4.945722    3.141709
     76          1           0      -22.431034    3.057688   -2.136468
     77          1           0      -22.181277    4.403927   -6.128777
     78          1           0      -23.934835    4.780233   -5.834718
     79          1           0      -23.365912    3.064070   -6.185739
     80         12           0       25.888692    0.537177   -0.292167
     81          6           0       24.156545   -2.483919   -0.764227
     82          6           0       22.885691    2.202199   -0.470583
     83          6           0       27.473574    3.186325    0.897671
     84          6           0       28.882054   -1.327602    0.132367
     85          7           0       23.773603   -0.099110   -0.327317
     86          6           0       23.271688   -1.410632   -0.530036
     87          6           0       21.857467   -1.424568   -0.942116
     88          6           0       21.490825    0.122154   -0.936872
     89          6           0       22.803601    0.807019   -0.590951
     90          6           0       20.785773    0.570200   -2.240013
     91          6           0       20.931721   -2.106145    0.018808
     92          6           0       21.231463   -1.924624    1.514256
     93          1           0       20.070925   -1.816264    2.578493
     94          7           0       25.296652    2.482560    0.134905
     95          6           0       24.067806    2.966451   -0.128626
     96          6           0       24.078434    4.388523    0.107086
     97          6           0       25.414555    4.726317    0.435300
     98          6           0       26.157397    3.456509    0.478022
     99          6           0       22.884821    5.303161    0.043901
    100          6           0       25.938595    6.138145    0.696313
    101          8           0       25.198548    7.101056    0.645351
    102          6           0       27.315553    6.531403    1.142929
    103          7           0       27.803350    0.832841    0.652140
    104          6           0       28.257287    2.070394    1.023301
    105          6           0       29.799959    2.060822    1.281297
    106          6           0       30.113489    0.534421    1.319160
    107          6           0       28.878364   -0.025986    0.648626
    108          6           0       30.658959    2.770717    0.207108
    109          6           0       30.127654   -0.145167    2.769114
    110          6           0       31.266960   -1.048321    3.075612
    111          7           0       26.471330   -1.396755   -0.397431
    112          6           0       27.698291   -1.935045   -0.392069
    113          6           0       27.662872   -3.313161   -1.012085
    114          6           0       26.259442   -3.512438   -1.209870
    115          6           0       25.572760   -2.380701   -0.686122
    116          6           0       28.789069   -4.290581   -1.316383
    117          6           0       25.299554   -4.514661   -1.573013
    118          8           0       25.454743   -5.671296   -1.931700
    119          6           0       23.882461   -3.858078   -1.321154
    120          6           0       23.237248   -4.624896   -0.185456
    121          8           0       23.564521   -4.644288    0.954941
    122          8           0       22.101906   -5.233341   -0.676901
    123          6           0       21.223110   -5.771470    0.366391
    124          1           0       21.968309    2.737358   -0.723749
    125          1           0       28.056090    4.081433    1.122031
    126          1           0       29.864137   -1.804862    0.145195
    127          1           0       21.801513   -1.921080   -1.910844
    128          1           0       20.891939    0.469161   -0.094899
    129          1           0       19.943331    1.124532   -1.825977
    130          1           0       20.503069   -0.336214   -2.775476
    131          1           0       21.385163    1.260360   -2.834074
    132          1           0       20.719303   -3.145403   -0.233437
    133          1           0       19.896954   -1.765741   -0.025549
    134          1           0       21.862347   -1.036547    1.564809
    135          1           0       21.882182   -2.775186    1.718017
    136          1           0       22.854078    5.967108    0.908441
    137          1           0       21.974758    4.715554   -0.076331
    138          1           0       23.054435    5.894233   -0.856399
    139          1           0       27.596934    6.199729    2.141870
    140          1           0       27.196159    7.609011    1.256201
    141          1           0       28.065325    6.437942    0.356576
    142          1           0       29.978878    2.560940    2.233036
    143          1           0       31.010376    0.262191    0.762156
    144          1           0       31.244969    2.018011   -0.319961
    145          1           0       31.161636    3.651052    0.607307
    146          1           0       29.991689    3.197333   -0.540936
    147          1           0       29.192030   -0.668327    2.965281
    148          1           0       30.157443    0.704634    3.451275
    149          1           0       31.813333   -0.756249    3.972185
    150          1           0       31.973964   -1.152523    2.252253
    151          1           0       30.931840   -2.062310    3.292152
    152          1           0       28.562171   -5.201758   -0.762846
    153          1           0       29.733253   -3.775958   -1.133901
    154          1           0       28.665812   -4.555941   -2.366301
    155          1           0       23.260113   -3.860846   -2.215735
    156          1           0       21.280453   -5.214296    1.301367
    157          1           0       21.591348   -6.787876    0.506098
    158          1           0       20.245595   -5.884487   -0.101646
 ---------------------------------------------------------------------

 SCF Done:  E(RwB97XD) =  -4070.60382654     A.U. after   20 cycles

 Excitation energies and oscillator strengths:

 Excited State   1:      Singlet-A      1.6067 eV  771.68 nm  f=0.3668  <S**2>=0.000
     309 -> 316        0.17858
     312 -> 314        0.68541
     309 <- 316        0.11727
 This state for optimization and/or second-order correction.
 Total Energy, E(TD-HF/TD-DFT) =  -4070.54478232
 Copying the excited state density for this state as the 1-particle RhoCI density.

 Excited State   2:      Singlet-A      1.6386 eV  756.63 nm  f=0.4028  <S**2>=0.000
     310 -> 315       -0.18463
     311 -> 313        0.68352
     310 <- 315       -0.11770

 Excited State   3:      Singlet-A      2.1629 eV  573.23 nm  f=0.0918  <S**2>=0.000
     310 -> 313        0.63065
     311 -> 315        0.30294

 Excited State   4:      Singlet-A      2.2111 eV  560.73 nm  f=0.0984  <S**2>=0.000
     309 -> 314        0.62751
     312 -> 316       -0.31206

 Excited State   5:      Singlet-A      3.2557 eV  380.83 nm  f=0.0003  <S**2>=0.000
     306 -> 313       -0.22713
     308 -> 313        0.64154

 The electronic state is 1-A.
 Alpha  occ. eigenvalues --  -46.94944 -46.94224 -19.29851 -19.29637 -19.25342
 Alpha  occ. eigenvalues --  -19.24189 -19.24108 -19.23722 -19.23255 -19.23202
 Alpha  occ. eigenvalues --  -14.47334 -14.46997 -14.46619 -14.46490 -14.44187
 Alpha  occ. eigenvalues --  -14.44115 -14.43692 -14.43033 -10.43089 -10.41799
 Alpha  occ. eigenvalues --  -10.39553 -10.39014 -10.38678 -10.38567 -10.35862
 Alpha  occ. eigenvalues --  -10.35665 -10.35248 -10.35210 -10.35141 -10.35124
 Alpha  occ. eigenvalues --  -10.34976 -10.34841 -10.34659 -10.34606 -10.34514
 Alpha  occ. eigenvalues --  -10.34451 -10.34000 -10.33865 -10.33749 -10.33601
 Alpha  occ. eigenvalues --  -10.33330 -10.32990 -10.32869 -10.32565 -10.32560
 Alpha  occ. eigenvalues --  -10.32462 -10.32458 -10.32299 -10.32208 -10.32184
 Alpha  occ. eigenvalues --  -10.32179 -10.32112 -10.32109 -10.31886 -10.31883
 Alpha  occ. eigenvalues --  -10.31634 -10.31580 -10.31527 -10.31490 -10.31321
 Alpha  occ. eigenvalues --  -10.31236 -10.31199 -10.31137 -10.31073 -10.31007
 Alpha  occ. eigenvalues --  -10.30971 -10.30956 -10.30917 -10.30898 -10.30861
 Alpha  occ. eigenvalues --  -10.30545 -10.30498 -10.30425 -10.30371 -10.30306
 Alpha  occ. eigenvalues --  -10.30130 -10.30019 -10.29963 -10.29596 -10.29438
 Alpha  occ. eigenvalues --  -10.29401 -10.29367 -10.29329 -10.29311 -10.29188
 Alpha  occ. eigenvalues --  -10.29160  -3.21013  -3.20302  -1.94566  -1.94144
 Alpha  occ. eigenvalues --   -1.94003  -1.93914  -1.93428  -1.93279  -1.19415
 Alpha  occ. eigenvalues --   -1.18017  -1.13200  -1.12613  -1.12198  -1.11740
 Alpha  occ. eigenvalues --   -1.11166  -1.08925  -1.07239  -1.06596  -1.06134
 Alpha  occ. eigenvalues --   -1.06038  -1.05341  -1.05334  -1.04655  -1.04418
 Alpha  occ. eigenvalues --   -0.95164  -0.94403  -0.91749  -0.91315  -0.91074
 Alpha  occ. eigenvalues --   -0.90580  -0.90301  -0.90281  -0.89500  -0.89455
 Alpha  occ. eigenvalues --   -0.88921  -0.88653  -0.88288  -0.87760  -0.86651
 Alpha  occ. eigenvalues --   -0.86539  -0.86056  -0.85606  -0.84636  -0.84565
 Alpha  occ. eigenvalues --   -0.84378  -0.83604  -0.83348  -0.82822  -0.82713
 Alpha  occ. eigenvalues --   -0.82471  -0.80767  -0.79888  -0.79720  -0.79445
 Alpha  occ. eigenvalues --   -0.79202  -0.78784  -0.77985  -0.77839  -0.77101
 Alpha  occ. eigenvalues --   -0.77098  -0.74776  -0.74696  -0.73801  -0.73659
 Alpha  occ. eigenvalues --   -0.71562  -0.71306  -0.70842  -0.70816  -0.70576
 Alpha  occ. eigenvalues --   -0.70235  -0.69094  -0.68938  -0.67794  -0.67545
 Alpha  occ. eigenvalues --   -0.67374  -0.67079  -0.66619  -0.66526  -0.66373
 Alpha  occ. eigenvalues --   -0.66211  -0.64104  -0.63427  -0.62536  -0.61980
 Alpha  occ. eigenvalues --   -0.61708  -0.61430  -0.61013  -0.60967  -0.60929
 Alpha  occ. eigenvalues --   -0.60821  -0.60110  -0.59971  -0.59401  -0.59235
 Alpha  occ. eigenvalues --   -0.58540  -0.58338  -0.58023  -0.57755  -0.57367
 Alpha  occ. eigenvalues --   -0.57295  -0.57060  -0.56721  -0.56565  -0.56492
 Alpha  occ. eigenvalues --   -0.56029  -0.55768  -0.55108  -0.54997  -0.54910
 Alpha  occ. eigenvalues --   -0.54808  -0.54545  -0.54302  -0.54234  -0.54214
 Alpha  occ. eigenvalues --   -0.54034  -0.54022  -0.53535  -0.53347  -0.53253
 Alpha  occ. eigenvalues --   -0.53080  -0.52920  -0.52877  -0.52773  -0.52458
 Alpha  occ. eigenvalues --   -0.52267  -0.52103  -0.51845  -0.51556  -0.51387
 Alpha  occ. eigenvalues --   -0.51343  -0.51261  -0.51218  -0.51052  -0.50911
 Alpha  occ. eigenvalues --   -0.50851  -0.50692  -0.50555  -0.50554  -0.50288
 Alpha  occ. eigenvalues --   -0.50181  -0.49650  -0.49467  -0.49378  -0.49135
 Alpha  occ. eigenvalues --   -0.49051  -0.49047  -0.48828  -0.48782  -0.48741
 Alpha  occ. eigenvalues --   -0.48512  -0.48507  -0.48315  -0.48179  -0.48024
 Alpha  occ. eigenvalues --   -0.47952  -0.47828  -0.47428  -0.47173  -0.47079
 Alpha  occ. eigenvalues --   -0.47030  -0.46742  -0.46605  -0.46330  -0.46300
 Alpha  occ. eigenvalues --   -0.46192  -0.46028  -0.45928  -0.45841  -0.45654
 Alpha  occ. eigenvalues --   -0.45540  -0.45286  -0.45154  -0.44797  -0.44701
 Alpha  occ. eigenvalues --   -0.44654  -0.44525  -0.44385  -0.44117  -0.44084
 Alpha  occ. eigenvalues --   -0.43984  -0.43792  -0.43732  -0.43469  -0.43222
 Alpha  occ. eigenvalues --   -0.43061  -0.42829  -0.42676  -0.42300  -0.42294
 Alpha  occ. eigenvalues --   -0.42107  -0.41766  -0.41446  -0.41191  -0.41035
 Alpha  occ. eigenvalues --   -0.40704  -0.40414  -0.39814  -0.39760  -0.39320
 Alpha  occ. eigenvalues --   -0.39216  -0.39079  -0.38898  -0.38480  -0.38288
 Alpha  occ. eigenvalues --   -0.38071  -0.37715  -0.37054  -0.36224  -0.36219
 Alpha  occ. eigenvalues --   -0.36046  -0.35301  -0.34976  -0.33582  -0.33263
 Alpha  occ. eigenvalues --   -0.33183  -0.33124  -0.32468  -0.32229  -0.32075
 Alpha  occ. eigenvalues --   -0.31908  -0.31829  -0.31222  -0.26231  -0.26129
 Alpha  occ. eigenvalues --   -0.22934  -0.22854
 Alpha virt. eigenvalues --   -0.07163  -0.07123   0.00032   0.00124   0.02295
 Alpha virt. eigenvalues --    0.02674   0.04489   0.04650   0.04826   0.06474
 Alpha virt. eigenvalues --    0.07336   0.07573   0.07769   0.07925   0.08151

 Mulliken charges:
               1
     1  Mg   0.969813
     2  C    0.027106
     3  C   -0.088521
     4  C   -0.071899
     5  C   -0.105504
     6  N   -0.331639
     7  C   -0.006825
     8  C   -0.044244
     9  C   -0.151806
    10  C    0.059858
    11  C    0.050745
    12  C    0.000350
    13  C   -0.115584
    14  H    0.029154
    15  N   -0.488239
    16  C    0.172303
    17  C   -0.166753
    18  C   -0.057426
    19  C    0.126074
    20  C    0.053417
    21  C    0.071616
    22  O   -0.233733
    23  C   -0.004529
    24  N   -0.422639
    25  C    0.060752
    26  C   -0.086698
    27  C   -0.053605
    28  C    0.048367
    29  C    0.042961
    30  C   -0.002763
    31  C   -0.069049
    32  N   -0.373849
    33  C    0.160114
    34  C   -0.166752
    35  C   -0.076243
    36  C    0.112976
    37  C    0.102557
    38  C    0.145474
    39  O   -0.193129
    40  C   -0.138694
    41  C    0.241296
    42  O   -0.254343
    43  O   -0.372493
    44  C    0.133515
    45  H   -0.016245
    46  H    0.028712
    47  H    0.001734
    48  H    0.035361
    49  H    0.021857
    50  H    0.039181
    51  H    0.043587
    52  H    0.038588
    53  H    0.034479
    54  H    0.060952
    55  H    0.043703
    56  H    0.059103
    57  H    0.039656
    58  H    0.049867
    59  H    0.047123
    60  H    0.056597
    61  H    0.050150
    62  H    0.049749
    63  H    0.038399
    64  H    0.031811
    65  H    0.040580
    66  H    0.046737
    67  H    0.027948
    68  H    0.036102
    69  H    0.035527
    70  H    0.039398
    71  H    0.045775
    72  H    0.018535
    73  H    0.034830
    74  H    0.072747
    75  H    0.044360
    76  H    0.067441
    77  H    0.062654
    78  H    0.082027
    79  H    0.059486
    80  Mg   0.971430
    81  C   -0.073554
    82  C   -0.088730
    83  C   -0.070227
    84  C   -0.087587
    85  N   -0.366549
    86  C    0.021406
    87  C   -0.041328
    88  C   -0.131871
    89  C    0.060004
    90  C    0.036714
    91  C   -0.026156
    92  C   -0.106230
    93  H    0.042060
    94  N   -0.438588
    95  C    0.155082
    96  C   -0.199152
    97  C   -0.050459
    98  C    0.165405
    99  C    0.110801
   100  C    0.017524
   101  O   -0.237342
   102  C   -0.009348
   103  N   -0.356926
   104  C    0.045788
   105  C   -0.080002
   106  C   -0.111605
   107  C    0.037450
   108  C    0.042905
   109  C    0.014740
   110  C   -0.045854
   111  N   -0.434721
   112  C    0.147929
   113  C   -0.205203
   114  C   -0.044312
   115  C    0.163016
   116  C    0.102124
   117  C    0.124260
   118  O   -0.206598
   119  C   -0.072879
   120  C    0.257836
   121  O   -0.210077
   122  O   -0.374946
   123  C    0.128950
   124  H   -0.001778
   125  H   -0.030291
   126  H    0.001584
   127  H    0.040519
   128  H    0.052533
   129  H    0.037929
   130  H    0.045532
   131  H    0.046147
   132  H    0.018114
   133  H    0.023445
   134  H    0.051754
   135  H    0.057210
   136  H    0.065756
   137  H    0.021432
   138  H    0.056293
   139  H    0.066065
   140  H    0.044682
   141  H    0.054422
   142  H    0.033933
   143  H    0.029520
   144  H    0.040564
   145  H    0.046115
   146  H    0.027743
   147  H    0.057229
   148  H    0.024515
   149  H    0.038664
   150  H    0.024904
   151  H    0.035844
   152  H    0.069366
   153  H    0.037726
   154  H    0.057393
   155  H    0.064938
   156  H    0.073183
   157  H    0.055917
   158  H    0.055914
 Sum of Mulliken charges =  -0.00000

 Dipole moment (field-independent basis, Debye):
    X=              2.4023    Y=             -4.1456    Z=             -0.8513  Tot=              4.8664
 Quadrupole moment (field-independent basis, Debye-Ang):
   XX=           -448.4611   YY=           -567.9346   ZZ=           -475.9968
   XY=            170.4075   XZ=            -23.8417   YZ=             17.3100

 Normal termination of Gaussian 16 at Mon Sep 20 01:37:05 2021.
