 Gaussian 16, Revision A.03,
 Gaussian 16:  ES64L-G16RevA.03 25-Dec-2016

 --------------------------------
 #p wB97XD/Def2SVP td=(nstates=5)
 --------------------------------

 --------------------------------
 TDDFT excited states in gaussian
 --------------------------------
 Symbolic Z-matrix:
 Charge =  0 Multiplicity = 1

                         Standard orientation:
 ---------------------------------------------------------------------
 Center     Atomic      Atomic             Coordinates (Angstroms)
 Number     Number       Type             X           Y           Z
 ---------------------------------------------------------------------
      1         12           0      -10.657726    0.195500    0.051400
      2          6           0       -7.779254   -0.058356   -2.165559
      3          6           0      -10.679927   -3.235922    0.171497
      4          6           0      -12.154123    0.386397    3.035821
      5          6           0      -10.570995    3.574573   -0.295999
      6          7           0       -9.214939   -1.447859   -0.763920
      7          6           0       -8.143572   -1.303822   -1.717521
      8          6           0       -7.714849   -2.687957   -2.212641
      9          6           0       -8.866483   -3.634468   -1.762415
     10          6           0       -9.690768   -2.764219   -0.714983
     11          6           0       -9.814441   -4.108764   -2.963293
     12          6           0       -6.313020   -3.124953   -1.902357
     13          6           0       -5.557393   -2.362978   -0.788125
     14          1           0       -4.148128   -2.673264   -0.251329
     15          7           0      -11.460644   -1.251639    1.371437
     16          6           0      -11.340820   -2.617622    1.241388
     17          6           0      -12.135558   -3.259311    2.334705
     18          6           0      -12.440433   -2.204495    3.191200
     19          6           0      -11.988626   -0.942631    2.609694
     20          6           0      -12.317887   -4.734987    2.382694
     21          6           0      -13.145429   -2.365531    4.569503
     22          8           0      -13.370373   -3.495788    4.964477
     23          6           0      -13.432151   -1.243922    5.511953
     24          7           0      -11.111721    1.808261    1.237954
     25          6           0      -11.876488    1.588644    2.383073
     26          6           0      -12.355815    2.910192    2.983607
     27          6           0      -12.134020    3.923506    1.802815
     28          6           0      -11.280829    3.075248    0.857058
     29          6           0      -13.797996    2.986780    3.547467
     30          6           0      -11.485775    5.293029    2.183935
     31          6           0      -12.462579    6.556349    2.169918
     32          7           0       -9.500132    1.538221   -1.063885
     33          6           0       -9.653423    2.914019   -1.154721
     34          6           0       -8.799921    3.414390   -2.204162
     35          6           0       -8.029512    2.290123   -2.530757
     36          6           0       -8.530075    1.176612   -1.811863
     37          6           0       -8.727567    4.895835   -2.612947
     38          6           0       -6.990898    1.789712   -3.378153
     39          8           0       -6.376107    2.458991   -4.232850
     40          6           0       -6.848117    0.204837   -3.307868
     41          6           0       -5.408249   -0.022651   -3.073007
     42          8           0       -4.702094    0.529993   -2.223045
     43          8           0       -5.042703   -1.045000   -3.884582
     44          6           0       -3.576982   -1.336248   -3.965336
     45          1           0      -10.674452   -4.326299    0.222067
     46          1           0      -12.655802    0.432442    4.004931
     47          1           0      -10.654266    4.648220   -0.475061
     48          1           0       -7.816679   -2.488890   -3.279488
     49          1           0       -8.518690   -4.466719   -1.150196
     50          1           0       -9.609162   -5.176265   -3.032805
     51          1           0       -9.573759   -3.539627   -3.861531
     52          1           0      -10.833795   -3.947574   -2.610727
     53          1           0       -5.783478   -3.132954   -2.854875
     54          1           0       -6.483357   -4.164950   -1.621975
     55          1           0       -6.230582   -2.392653    0.069215
     56          1           0       -5.427621   -1.321475   -1.082969
     57          1           0      -11.741786   -5.077996    3.241589
     58          1           0      -11.952394   -5.152543    1.445010
     59          1           0      -13.382218   -4.965486    2.441005
     60          1           0      -12.589078   -0.711778    5.950932
     61          1           0      -13.923979   -1.577831    6.425108
     62          1           0      -14.116718   -0.649490    4.907036
     63          1           0      -11.612282    2.971107    3.779151
     64          1           0      -13.121861    4.039771    1.356446
     65          1           0      -13.846152    2.896936    4.633165
     66          1           0      -14.380617    2.146501    3.171341
     67          1           0      -14.243443    3.910955    3.177640
     68          1           0      -10.618438    5.561728    1.580272
     69          1           0      -11.073409    5.118039    3.177710
     70          1           0      -12.178704    7.067728    3.089362
     71          1           0      -13.525962    6.316510    2.174882
     72          1           0      -12.289803    7.074434    1.227279
     73          1           0       -8.458162    5.079408   -3.653288
     74          1           0       -7.916247    5.241639   -1.973333
     75          1           0       -9.715282    5.352073   -2.550607
     76          1           0       -7.206556   -0.229401   -4.242332
     77          1           0       -3.414923   -2.177939   -4.639571
     78          1           0       -3.175575   -1.613717   -2.990480
     79          1           0       -3.182833   -0.396904   -4.350570
     80         12           0       10.315524   -0.026556    0.428653
     81          6           0        7.904275   -1.572836   -1.489904
     82          6           0        9.619259    2.937298   -1.457793
     83          6           0       12.797018    1.472644    1.927903
     84          6           0       11.115149   -3.036108    1.934773
     85          7           0        9.017041    0.520308   -1.463266
     86          6           0        7.999528   -0.223667   -1.863352
     87          6           0        6.964743    0.626267   -2.653559
     88          6           0        7.869246    1.845024   -3.050364
     89          6           0        8.931252    1.818757   -1.939477
     90          6           0        8.496172    1.684650   -4.480915
     91          6           0        5.839953    0.970983   -1.652146
     92          6           0        4.610049    1.689310   -2.223783
     93          1           0        4.639716    2.248149   -3.632195
     94          7           0       11.079694    1.906653    0.402765
     95          6           0       10.615407    2.982904   -0.429138
     96          6           0       11.302842    4.177255    0.042469
     97          6           0       12.157109    3.768925    1.114031
     98          6           0       12.076496    2.310439    1.179978
     99          6           0       11.066472    5.629602   -0.516994
    100          6           0       12.995435    4.694186    2.056714
    101          8           0       13.752899    4.174212    2.829435
    102          6           0       12.878873    6.180925    1.963043
    103          7           0       11.710638   -0.678810    1.830457
    104          6           0       12.669104    0.133034    2.330963
    105          6           0       13.636206   -0.583987    3.272284
    106          6           0       13.000577   -1.990165    3.370675
    107          6           0       11.847277   -1.898065    2.290653
    108          6           0       15.138605   -0.618655    2.808011
    109          6           0       12.613720   -2.481912    4.742128
    110          6           0       11.825441   -1.583980    5.725950
    111          7           0        9.712152   -1.948271    0.306120
    112          6           0       10.101433   -3.074683    0.972714
    113          6           0        9.203020   -4.137672    0.574268
    114          6           0        8.267440   -3.622030   -0.387360
    115          6           0        8.656080   -2.260147   -0.512813
    116          6           0        9.279805   -5.538583    1.095981
    117          6           0        7.194591   -3.914352   -1.277442
    118          8           0        6.573624   -4.965813   -1.546065
    119          6           0        7.130538   -2.593870   -2.222064
    120          6           0        5.650997   -2.347368   -2.521712
    121          8           0        4.800269   -2.249397   -1.722382
    122          8           0        5.498183   -2.308418   -3.878455
    123          6           0        4.277796   -1.736644   -4.409270
    124          1           0        9.448014    3.816843   -2.081187
    125          1           0       13.669220    1.909557    2.418676
    126          1           0       11.328852   -4.018449    2.359380
    127          1           0        6.636096    0.131718   -3.567505
    128          1           0        7.197828    2.698556   -2.953596
    129          1           0        7.969175    2.332236   -5.180551
    130          1           0        8.414247    0.635060   -4.763971
    131          1           0        9.536202    2.005875   -4.538653
    132          1           0        6.256759    1.669052   -0.926611
    133          1           0        5.564245    0.116250   -1.035235
    134          1           0        4.130352    2.355397   -1.506272
    135          1           0        3.832881    0.924808   -2.222817
    136          1           0       11.998977    6.129804   -0.780079
    137          1           0       10.499603    6.150023    0.254798
    138          1           0       10.388831    5.584091   -1.370392
    139          1           0       13.119399    6.486492    2.981558
    140          1           0       11.853497    6.513415    1.805407
    141          1           0       13.326703    6.721152    1.129000
    142          1           0       13.563073   -0.041525    4.214615
    143          1           0       13.622418   -2.769847    2.930835
    144          1           0       15.523112   -1.582515    3.140456
    145          1           0       15.573310    0.204692    3.375166
    146          1           0       15.214903   -0.386619    1.745777
    147          1           0       13.592333   -2.485792    5.220957
    148          1           0       12.139863   -3.461538    4.812958
    149          1           0       12.296216   -1.317516    6.671315
    150          1           0       10.942334   -2.095046    6.109330
    151          1           0       11.579029   -0.643781    5.232371
    152          1           0        8.512382   -6.092714    0.556267
    153          1           0        9.001830   -5.559527    2.150588
    154          1           0       10.271943   -5.988737    1.079949
    155          1           0        7.735247   -2.847206   -3.093084
    156          1           0        4.090941   -2.628606   -5.007429
    157          1           0        4.418708   -0.769752   -4.892816
    158          1           0        3.472582   -1.636691   -3.680971
 ---------------------------------------------------------------------

 SCF Done:  E(RwB97XD) =  -4070.57297360     A.U. after   19 cycles

 Excitation energies and oscillator strengths:

 Excited State   1:      Singlet-A      1.6112 eV  769.52 nm  f=0.3439  <S**2>=0.000
     309 -> 316       -0.16126
     312 -> 313        0.68848
     309 <- 316       -0.10984
 This state for optimization and/or second-order correction.
 Total Energy, E(TD-HF/TD-DFT) =  -4070.51376365
 Copying the excited state density for this state as the 1-particle RhoCI density.

 Excited State   2:      Singlet-A      1.6756 eV  739.95 nm  f=0.3795  <S**2>=0.000
     310 -> 315        0.20163
     311 -> 314        0.67866
     310 <- 315        0.12036

 Excited State   3:      Singlet-A      2.1625 eV  573.34 nm  f=0.0908  <S**2>=0.000
     310 -> 314        0.63331
     311 -> 315       -0.30128

 Excited State   4:      Singlet-A      2.2274 eV  556.63 nm  f=0.0769  <S**2>=0.000
     309 -> 313        0.61819
     312 -> 316        0.32476

 Excited State   5:      Singlet-A      3.6170 eV  342.78 nm  f=0.0000  <S**2>=0.000
     312 -> 314        0.70699

 The electronic state is 1-A.
 Alpha  occ. eigenvalues --  -46.95608 -46.94486 -19.30507 -19.29518 -19.25065
 Alpha  occ. eigenvalues --  -19.24298 -19.24100 -19.24021 -19.23953 -19.22061
 Alpha  occ. eigenvalues --  -14.47020 -14.46191 -14.46166 -14.46149 -14.44320
 Alpha  occ. eigenvalues --  -14.43779 -14.43775 -14.43225 -10.42910 -10.42652
 Alpha  occ. eigenvalues --  -10.39482 -10.39084 -10.39032 -10.37491 -10.36012
 Alpha  occ. eigenvalues --  -10.35805 -10.35711 -10.35101 -10.34973 -10.34924
 Alpha  occ. eigenvalues --  -10.34907 -10.34607 -10.34513 -10.34470 -10.34467
 Alpha  occ. eigenvalues --  -10.34308 -10.34185 -10.33559 -10.33252 -10.33024
 Alpha  occ. eigenvalues --  -10.32907 -10.32839 -10.32733 -10.32677 -10.32527
 Alpha  occ. eigenvalues --  -10.32475 -10.32454 -10.32418 -10.32351 -10.31987
 Alpha  occ. eigenvalues --  -10.31913 -10.31835 -10.31812 -10.31700 -10.31686
 Alpha  occ. eigenvalues --  -10.31650 -10.31630 -10.31603 -10.31603 -10.31570
 Alpha  occ. eigenvalues --  -10.31516 -10.31417 -10.31414 -10.31348 -10.31233
 Alpha  occ. eigenvalues --  -10.31178 -10.31090 -10.30795 -10.30725 -10.30663
 Alpha  occ. eigenvalues --  -10.30494 -10.30465 -10.30399 -10.30288 -10.30205
 Alpha  occ. eigenvalues --  -10.30183 -10.30034 -10.29963 -10.29939 -10.29853
 Alpha  occ. eigenvalues --  -10.29777 -10.29732 -10.29605 -10.28971 -10.28809
 Alpha  occ. eigenvalues --  -10.27902  -3.21549  -3.20550  -1.95106  -1.94693
 Alpha  occ. eigenvalues --   -1.94497  -1.94142  -1.93693  -1.93511  -1.19665
 Alpha  occ. eigenvalues --   -1.18174  -1.13585  -1.12910  -1.11898  -1.10181
 Alpha  occ. eigenvalues --   -1.09593  -1.08813  -1.07104  -1.06786  -1.05989
 Alpha  occ. eigenvalues --   -1.05952  -1.04986  -1.04883  -1.03968  -1.02296
 Alpha  occ. eigenvalues --   -0.94919  -0.93832  -0.91224  -0.91106  -0.90838
 Alpha  occ. eigenvalues --   -0.90473  -0.90429  -0.90214  -0.89119  -0.88757
 Alpha  occ. eigenvalues --   -0.88598  -0.88281  -0.87960  -0.87473  -0.86241
 Alpha  occ. eigenvalues --   -0.85845  -0.85557  -0.85496  -0.84616  -0.84210
 Alpha  occ. eigenvalues --   -0.84181  -0.83526  -0.83256  -0.82866  -0.82121
 Alpha  occ. eigenvalues --   -0.82060  -0.79982  -0.79819  -0.79626  -0.79153
 Alpha  occ. eigenvalues --   -0.78568  -0.78366  -0.77872  -0.77697  -0.77319
 Alpha  occ. eigenvalues --   -0.77124  -0.74958  -0.74560  -0.73859  -0.73638
 Alpha  occ. eigenvalues --   -0.72064  -0.71531  -0.70897  -0.70725  -0.69914
 Alpha  occ. eigenvalues --   -0.69501  -0.68872  -0.68105  -0.68050  -0.67320
 Alpha  occ. eigenvalues --   -0.67013  -0.66747  -0.66635  -0.66156  -0.65989
 Alpha  occ. eigenvalues --   -0.65458  -0.64232  -0.64060  -0.62361  -0.61625
 Alpha  occ. eigenvalues --   -0.61506  -0.61073  -0.61001  -0.60985  -0.60698
 Alpha  occ. eigenvalues --   -0.60037  -0.59886  -0.59760  -0.59479  -0.59146
 Alpha  occ. eigenvalues --   -0.58715  -0.58101  -0.58003  -0.57983  -0.57513
 Alpha  occ. eigenvalues --   -0.57171  -0.57050  -0.56483  -0.56117  -0.56078
 Alpha  occ. eigenvalues --   -0.55570  -0.55505  -0.55398  -0.55305  -0.54771
 Alpha  occ. eigenvalues --   -0.54718  -0.54471  -0.54202  -0.54174  -0.54070
 Alpha  occ. eigenvalues --   -0.53893  -0.53678  -0.53569  -0.53330  -0.53099
 Alpha  occ. eigenvalues --   -0.52938  -0.52590  -0.52535  -0.52505  -0.51947
 Alpha  occ. eigenvalues --   -0.51863  -0.51782  -0.51504  -0.51499  -0.51493
 Alpha  occ. eigenvalues --   -0.51374  -0.51124  -0.51087  -0.50802  -0.50646
 Alpha  occ. eigenvalues --   -0.50631  -0.50194  -0.50057  -0.50029  -0.49952
 Alpha  occ. eigenvalues --   -0.49756  -0.49662  -0.49524  -0.49424  -0.49079
 Alpha  occ. eigenvalues --   -0.48807  -0.48739  -0.48703  -0.48436  -0.48422
 Alpha  occ. eigenvalues --   -0.48304  -0.48100  -0.47804  -0.47638  -0.47620
 Alpha  occ. eigenvalues --   -0.47425  -0.47361  -0.47064  -0.47034  -0.46820
 Alpha  occ. eigenvalues --   -0.46810  -0.46503  -0.46303  -0.45876  -0.45794
 Alpha  occ. eigenvalues --   -0.45644  -0.45361  -0.45260  -0.45152  -0.45081
 Alpha  occ. eigenvalues --   -0.44822  -0.44794  -0.44735  -0.44598  -0.44497
 Alpha  occ. eigenvalues --   -0.44445  -0.44190  -0.44150  -0.44023  -0.43923
 Alpha  occ. eigenvalues --   -0.43863  -0.43836  -0.43678  -0.43633  -0.43456
 Alpha  occ. eigenvalues --   -0.43164  -0.42924  -0.42737  -0.42735  -0.41953
 Alpha  occ. eigenvalues --   -0.41779  -0.41262  -0.41218  -0.41183  -0.40962
 Alpha  occ. eigenvalues --   -0.40369  -0.40179  -0.39674  -0.39432  -0.39310
 Alpha  occ. eigenvalues --   -0.39185  -0.39046  -0.38454  -0.38243  -0.38234
 Alpha  occ. eigenvalues --   -0.37720  -0.37628  -0.37052  -0.36265  -0.35821
 Alpha  occ. eigenvalues --   -0.35763  -0.35449  -0.34878  -0.33699  -0.33548
 Alpha  occ. eigenvalues --   -0.33124  -0.32907  -0.32388  -0.32277  -0.31906
 Alpha  occ. eigenvalues --   -0.31508  -0.31388  -0.31117  -0.26352  -0.25607
 Alpha  occ. eigenvalues --   -0.22779  -0.22538
 Alpha virt. eigenvalues --   -0.06877  -0.06669   0.00150   0.00174   0.02356
 Alpha virt. eigenvalues --    0.03191   0.04512   0.04677   0.04834   0.06245
 Alpha virt. eigenvalues --    0.07130   0.07824   0.08180   0.08416   0.08630

 Mulliken charges:
               1
     1  Mg   0.954151
     2  C   -0.033061
     3  C   -0.082943
     4  C   -0.079795
     5  C   -0.083115
     6  N   -0.368416
     7  C   -0.053045
     8  C   -0.004991
     9  C   -0.142279
    10  C    0.044715
    11  C    0.036995
    12  C    0.030538
    13  C   -0.102973
    14  H    0.039599
    15  N   -0.470899
    16  C    0.145008
    17  C   -0.159805
    18  C   -0.079531
    19  C    0.169809
    20  C    0.104887
    21  C    0.036163
    22  O   -0.227484
    23  C    0.002013
    24  N   -0.386242
    25  C    0.091729
    26  C   -0.126980
    27  C   -0.015432
    28  C    0.025556
    29  C    0.031699
    30  C   -0.022125
    31  C   -0.061823
    32  N   -0.378369
    33  C    0.092383
    34  C   -0.180670
    35  C   -0.010953
    36  C    0.119016
    37  C    0.073214
    38  C    0.083703
    39  O   -0.251272
    40  C   -0.041096
    41  C    0.265093
    42  O   -0.260868
    43  O   -0.368508
    44  C    0.138379
    45  H    0.004442
    46  H   -0.041855
    47  H   -0.009317
    48  H    0.025571
    49  H    0.040412
    50  H    0.048989
    51  H    0.050365
    52  H    0.040631
    53  H    0.031552
    54  H    0.018208
    55  H    0.046857
    56  H    0.071572
    57  H    0.073767
    58  H    0.022341
    59  H    0.060890
    60  H    0.076710
    61  H    0.048862
    62  H    0.056527
    63  H    0.052197
    64  H    0.031403
    65  H    0.041472
    66  H    0.036541
    67  H    0.042266
    68  H    0.044321
    69  H    0.024489
    70  H    0.051051
    71  H    0.034940
    72  H    0.047310
    73  H    0.051309
    74  H    0.071440
    75  H    0.038668
    76  H    0.074219
    77  H    0.060045
    78  H    0.068440
    79  H    0.071390
    80  Mg   0.966083
    81  C   -0.025577
    82  C   -0.076833
    83  C   -0.088023
    84  C   -0.117868
    85  N   -0.288472
    86  C   -0.035724
    87  C   -0.084031
    88  C   -0.089580
    89  C    0.019597
    90  C    0.040399
    91  C    0.000138
    92  C   -0.089874
    93  H    0.044356
    94  N   -0.478853
    95  C    0.176005
    96  C   -0.189276
    97  C   -0.081202
    98  C    0.188751
    99  C    0.062280
   100  C    0.064802
   101  O   -0.213874
   102  C   -0.007196
   103  N   -0.342034
   104  C    0.014426
   105  C   -0.099293
   106  C   -0.054247
   107  C    0.091240
   108  C    0.035515
   109  C   -0.009917
   110  C   -0.072537
   111  N   -0.486525
   112  C    0.144503
   113  C   -0.184500
   114  C   -0.031147
   115  C    0.180619
   116  C    0.067929
   117  C    0.153511
   118  O   -0.234277
   119  C   -0.147574
   120  C    0.242660
   121  O   -0.185416
   122  O   -0.368776
   123  C    0.110612
   124  H    0.004028
   125  H    0.009432
   126  H   -0.005773
   127  H    0.019277
   128  H    0.023638
   129  H    0.040180
   130  H    0.043573
   131  H    0.040066
   132  H    0.025830
   133  H    0.065917
   134  H    0.044352
   135  H    0.038624
   136  H    0.058878
   137  H    0.058020
   138  H    0.030481
   139  H    0.058017
   140  H    0.020736
   141  H    0.069130
   142  H    0.047863
   143  H    0.031039
   144  H    0.046123
   145  H    0.047803
   146  H    0.054180
   147  H    0.029007
   148  H    0.040594
   149  H    0.032608
   150  H    0.032920
   151  H    0.039742
   152  H    0.062043
   153  H    0.042893
   154  H    0.047150
   155  H    0.085482
   156  H    0.069047
   157  H    0.063346
   158  H    0.062955
 Sum of Mulliken charges =  -0.00000

 Dipole moment (field-independent basis, Debye):
    X=             -3.2331    Y=              3.5270    Z=              0.4671  Tot=              4.8074
 Quadrupole moment (field-independent basis, Debye-Ang):
   XX=           -411.0388   YY=           -497.2540   ZZ=           -496.9978
   XY=            -15.0472   XZ=             -1.5216   YZ=             13.3002

 Normal termination of Gaussian 16 at Sat Sep 18 14:26:53 2021.
