 Gaussian 16, Revision A.03,
 Gaussian 16:  ES64L-G16RevA.03 25-Dec-2016

 --------------------------------
 #p wB97XD/Def2SVP td=(nstates=5)
 --------------------------------

 --------------------------------
 TDDFT excited states in gaussian
 --------------------------------
 Symbolic Z-matrix:
 Charge =  0 Multiplicity = 1

                         Standard orientation:
 ---------------------------------------------------------------------
 Center     Atomic      Atomic             Coordinates (Angstroms)
 Number     Number       Type             X           Y           Z
 ---------------------------------------------------------------------
      1         12           0      -30.469796   -0.517301   -0.196760
      2          6           0      -27.841264    1.721465   -0.392464
      3          6           0      -28.408607   -2.640325    1.762089
      4          6           0      -33.167271   -2.500718    0.532519
      5          6           0      -32.598190    1.758827   -1.686118
      6          7           0      -28.332566   -0.480898    0.456882
      7          6           0      -27.486738    0.601621    0.336498
      8          6           0      -26.152541    0.464410    1.161563
      9          6           0      -26.180664   -1.097307    1.514280
     10          6           0      -27.724626   -1.512857    1.204140
     11          6           0      -25.158708   -2.066172    0.806249
     12          6           0      -26.066841    1.317872    2.377773
     13          6           0      -24.979388    2.366040    2.515520
     14          1           0      -24.536803    2.694220    3.950502
     15          7           0      -30.728312   -2.388671    0.917798
     16          6           0      -29.703556   -3.083275    1.587711
     17          6           0      -30.217931   -4.308971    2.110520
     18          6           0      -31.685482   -4.216806    1.892528
     19          6           0      -31.950060   -2.983656    1.088467
     20          6           0      -29.403277   -5.290795    2.959100
     21          6           0      -32.642930   -5.294216    2.431009
     22          8           0      -32.349421   -6.287232    3.090475
     23          6           0      -34.093594   -4.964361    2.439726
     24          7           0      -32.708471   -0.307719   -0.381788
     25          6           0      -33.519027   -1.352194   -0.163355
     26          6           0      -34.948167   -0.821560   -0.266948
     27          6           0      -34.837168    0.552228   -1.079229
     28          6           0      -33.250682    0.702925   -1.095129
     29          6           0      -35.824076   -1.825091   -1.097658
     30          6           0      -35.551906    1.853686   -0.527965
     31          6           0      -36.701586    2.488717   -1.295812
     32          7           0      -30.266674    1.374861   -0.994363
     33          6           0      -31.221242    2.188307   -1.612893
     34          6           0      -30.635919    3.445864   -1.964559
     35          6           0      -29.285793    3.343895   -1.507033
     36          6           0      -29.139529    2.007813   -0.964677
     37          6           0      -31.279982    4.620742   -2.630574
     38          6           0      -28.027727    3.964075   -1.430543
     39          8           0      -27.713584    5.069370   -1.824546
     40          6           0      -27.064926    2.993221   -0.643166
     41          6           0      -25.776737    2.934398   -1.351524
     42          8           0      -24.766439    3.507345   -0.959534
     43          8           0      -25.899921    2.174940   -2.505450
     44          6           0      -24.647961    2.110631   -3.292519
     45          1           0      -27.861521   -3.390804    2.335735
     46          1           0      -33.952833   -3.232190    0.735258
     47          1           0      -33.295708    2.480507   -2.116063
     48          1           0      -25.303140    0.674727    0.512580
     49          1           0      -26.086679   -1.169138    2.598437
     50          1           0      -24.406288   -1.440402    0.326375
     51          1           0      -25.604568   -2.743113    0.077389
     52          1           0      -24.736550   -2.702410    1.583225
     53          1           0      -25.881827    0.641277    3.213454
     54          1           0      -26.992578    1.878200    2.504232
     55          1           0      -25.378389    3.306890    2.137564
     56          1           0      -24.050940    2.093652    2.014151
     57          1           0      -28.377915   -5.070109    3.254958
     58          1           0      -29.492053   -6.211592    2.383128
     59          1           0      -30.071870   -5.509928    3.790992
     60          1           0      -34.708341   -5.212165    1.575469
     61          1           0      -34.280476   -3.934670    2.744915
     62          1           0      -34.535915   -5.590268    3.215662
     63          1           0      -35.410774   -0.657331    0.706522
     64          1           0      -35.095467    0.391366   -2.125309
     65          1           0      -36.726313   -2.009751   -0.514606
     66          1           0      -35.343596   -2.771244   -1.349903
     67          1           0      -36.114589   -1.436020   -2.073801
     68          1           0      -34.739062    2.572258   -0.425227
     69          1           0      -35.987566    1.552429    0.425697
     70          1           0      -36.711622    3.531088   -0.976284
     71          1           0      -37.637206    2.034710   -0.968586
     72          1           0      -36.682777    2.513690   -2.384852
     73          1           0      -30.498112    5.374810   -2.724626
     74          1           0      -32.122251    4.921732   -2.008345
     75          1           0      -31.656199    4.436058   -3.636943
     76          1           0      -26.893544    3.514791    0.299083
     77          1           0      -24.614765    2.929712   -4.010846
     78          1           0      -24.615318    1.107151   -3.716800
     79          1           0      -23.765470    2.160423   -2.655319
     80         12           0       29.704258    0.395834    0.702649
     81          6           0       30.194567   -2.341344   -1.556173
     82          6           0       27.970109    1.967955   -1.936429
     83          6           0       29.776558    3.226363    2.341869
     84          6           0       31.711450   -1.166340    2.959474
     85          7           0       29.122939   -0.179647   -1.461678
     86          6           0       29.368291   -1.379323   -2.041225
     87          6           0       28.624420   -1.439727   -3.365175
     88          6           0       27.859722   -0.098477   -3.548056
     89          6           0       28.298226    0.603319   -2.248296
     90          6           0       28.237285    0.688222   -4.926676
     91          6           0       27.602721   -2.653859   -3.441607
     92          6           0       27.651799   -3.510748   -4.707023
     93          1           0       28.010776   -2.873779   -6.109253
     94          7           0       29.011777    2.363178    0.233868
     95          6           0       28.339834    2.750996   -0.829359
     96          6           0       28.071881    4.153513   -0.679039
     97          6           0       28.438503    4.578727    0.623037
     98          6           0       29.126200    3.407161    1.099104
     99          6           0       27.213953    4.940734   -1.668182
    100          6           0       28.169515    5.826818    1.449051
    101          8           0       28.653272    6.008984    2.551237
    102          6           0       27.208716    6.819065    0.853860
    103          7           0       30.912388    1.033684    2.229231
    104          6           0       30.588607    2.226637    2.878174
    105          6           0       31.177276    2.319042    4.312200
    106          6           0       31.633989    0.822238    4.492046
    107          6           0       31.405158    0.162823    3.132070
    108          6           0       32.290667    3.374388    4.379778
    109          6           0       30.765145    0.012197    5.566393
    110          6           0       31.375233   -0.287182    6.894613
    111          7           0       30.638725   -1.391355    0.780455
    112          6           0       31.460314   -1.879601    1.773406
    113          6           0       32.085604   -3.150608    1.417305
    114          6           0       31.605175   -3.391360    0.080741
    115          6           0       30.850000   -2.254240   -0.291484
    116          6           0       32.830774   -4.011916    2.371668
    117          6           0       31.550631   -4.353269   -1.009349
    118          8           0       32.074231   -5.481815   -1.041763
    119          6           0       30.626542   -3.684509   -2.178205
    120          6           0       31.513282   -3.553180   -3.323453
    121          8           0       32.564063   -2.950658   -3.295693
    122          8           0       31.015353   -4.168214   -4.402698
    123          6           0       31.759141   -4.233025   -5.699745
    124          1           0       27.362479    2.471974   -2.690771
    125          1           0       29.506793    3.946357    3.118140
    126          1           0       32.279310   -1.664675    3.747580
    127          1           0       29.377053   -1.516899   -4.149849
    128          1           0       26.786994   -0.253112   -3.665239
    129          1           0       28.636378   -0.001660   -5.670303
    130          1           0       28.963454    1.443367   -4.624671
    131          1           0       27.352370    1.191551   -5.315804
    132          1           0       26.560603   -2.393143   -3.262034
    133          1           0       27.826148   -3.359153   -2.641235
    134          1           0       26.718295   -4.052179   -4.861841
    135          1           0       28.374606   -4.282702   -4.442918
    136          1           0       26.169423    5.040481   -1.372573
    137          1           0       27.333025    4.570841   -2.687011
    138          1           0       27.650538    5.938110   -1.715345
    139          1           0       26.336243    6.385259    0.364357
    140          1           0       27.644883    7.492928    0.117778
    141          1           0       26.699719    7.343937    1.662316
    142          1           0       30.363205    2.605533    4.977459
    143          1           0       32.678924    0.827948    4.802451
    144          1           0       32.367980    4.007050    3.495657
    145          1           0       33.273584    2.915783    4.481870
    146          1           0       32.131089    4.007688    5.253070
    147          1           0       30.426298   -0.969198    5.234555
    148          1           0       29.803993    0.483420    5.768581
    149          1           0       30.821664    0.217433    7.685433
    150          1           0       32.383293    0.115905    6.795715
    151          1           0       31.355966   -1.359175    7.090745
    152          1           0       32.670823   -5.068768    2.160891
    153          1           0       32.551071   -3.673125    3.369039
    154          1           0       33.889296   -3.791671    2.226775
    155          1           0       29.788812   -4.326297   -2.447662
    156          1           0       32.775331   -4.582450   -5.516155
    157          1           0       31.824938   -3.263728   -6.194558
    158          1           0       31.247879   -4.810111   -6.469759
 ---------------------------------------------------------------------

 SCF Done:  E(RwB97XD) =  -4070.58805716     A.U. after   20 cycles

 Excitation energies and oscillator strengths:

 Excited State   1:      Singlet-A      1.6235 eV  763.67 nm  f=0.4003  <S**2>=0.000
     310 -> 316        0.17886
     312 -> 314        0.68453
     310 <- 316        0.11640
 This state for optimization and/or second-order correction.
 Total Energy, E(TD-HF/TD-DFT) =  -4070.52839335
 Copying the excited state density for this state as the 1-particle RhoCI density.

 Excited State   2:      Singlet-A      1.6654 eV  744.49 nm  f=0.3820  <S**2>=0.000
     309 -> 315       -0.17866
     311 -> 313        0.68430
     309 <- 315       -0.11350

 Excited State   3:      Singlet-A      2.1184 eV  585.28 nm  f=0.1557  <S**2>=0.000
     309 -> 313        0.64907
     311 -> 315        0.25655

 Excited State   4:      Singlet-A      2.1424 eV  578.72 nm  f=0.1286  <S**2>=0.000
     310 -> 314        0.64798
     312 -> 316       -0.26646

 Excited State   5:      Singlet-A      3.0630 eV  404.79 nm  f=0.0077  <S**2>=0.000
     307 -> 313        0.68068

 The electronic state is 1-A.
 Alpha  occ. eigenvalues --  -46.96858 -46.94966 -19.30462 -19.30368 -19.24798
 Alpha  occ. eigenvalues --  -19.24551 -19.24226 -19.24110 -19.23449 -19.23321
 Alpha  occ. eigenvalues --  -14.48185 -14.46583 -14.46490 -14.46308 -14.44734
 Alpha  occ. eigenvalues --  -14.44448 -14.43999 -14.43656 -10.43002 -10.42310
 Alpha  occ. eigenvalues --  -10.39750 -10.39535 -10.39334 -10.38177 -10.37305
 Alpha  occ. eigenvalues --  -10.36280 -10.36256 -10.35783 -10.35714 -10.35374
 Alpha  occ. eigenvalues --  -10.35263 -10.34815 -10.34791 -10.34583 -10.34505
 Alpha  occ. eigenvalues --  -10.34271 -10.34129 -10.34115 -10.33675 -10.33610
 Alpha  occ. eigenvalues --  -10.33559 -10.33208 -10.33056 -10.33021 -10.32805
 Alpha  occ. eigenvalues --  -10.32775 -10.32760 -10.32744 -10.32630 -10.32605
 Alpha  occ. eigenvalues --  -10.32370 -10.32353 -10.32335 -10.32333 -10.32263
 Alpha  occ. eigenvalues --  -10.32252 -10.32163 -10.31993 -10.31946 -10.31855
 Alpha  occ. eigenvalues --  -10.31838 -10.31678 -10.31569 -10.31354 -10.31152
 Alpha  occ. eigenvalues --  -10.30987 -10.30968 -10.30899 -10.30873 -10.30657
 Alpha  occ. eigenvalues --  -10.30606 -10.30308 -10.30256 -10.30196 -10.30093
 Alpha  occ. eigenvalues --  -10.29949 -10.29925 -10.29911 -10.29742 -10.29733
 Alpha  occ. eigenvalues --  -10.29647 -10.29621 -10.29363 -10.29307 -10.28925
 Alpha  occ. eigenvalues --  -10.28811  -3.22551  -3.21032  -1.96160  -1.95643
 Alpha  occ. eigenvalues --   -1.95513  -1.94586  -1.94162  -1.94009  -1.18725
 Alpha  occ. eigenvalues --   -1.17719  -1.13057  -1.12364  -1.11982  -1.10696
 Alpha  occ. eigenvalues --   -1.09707  -1.09557  -1.06828  -1.06684  -1.06089
 Alpha  occ. eigenvalues --   -1.05521  -1.05144  -1.04669  -1.03929  -1.03841
 Alpha  occ. eigenvalues --   -0.94571  -0.94141  -0.91502  -0.91286  -0.90509
 Alpha  occ. eigenvalues --   -0.90156  -0.90074  -0.89969  -0.89682  -0.89112
 Alpha  occ. eigenvalues --   -0.89057  -0.88953  -0.88364  -0.87868  -0.86474
 Alpha  occ. eigenvalues --   -0.86151  -0.86012  -0.85754  -0.84854  -0.84561
 Alpha  occ. eigenvalues --   -0.84209  -0.83748  -0.83228  -0.82861  -0.82759
 Alpha  occ. eigenvalues --   -0.82660  -0.80226  -0.79816  -0.79605  -0.79170
 Alpha  occ. eigenvalues --   -0.78972  -0.78801  -0.78182  -0.78178  -0.77490
 Alpha  occ. eigenvalues --   -0.76789  -0.75528  -0.74483  -0.74318  -0.73399
 Alpha  occ. eigenvalues --   -0.71370  -0.71001  -0.70748  -0.70021  -0.69753
 Alpha  occ. eigenvalues --   -0.69610  -0.69129  -0.68926  -0.67571  -0.67486
 Alpha  occ. eigenvalues --   -0.67475  -0.67316  -0.67099  -0.66813  -0.66629
 Alpha  occ. eigenvalues --   -0.66492  -0.65013  -0.64412  -0.62493  -0.62333
 Alpha  occ. eigenvalues --   -0.61760  -0.61485  -0.61177  -0.61101  -0.60823
 Alpha  occ. eigenvalues --   -0.60467  -0.60033  -0.59827  -0.59463  -0.58935
 Alpha  occ. eigenvalues --   -0.58583  -0.58089  -0.57960  -0.57668  -0.57437
 Alpha  occ. eigenvalues --   -0.57147  -0.56723  -0.56288  -0.55800  -0.55525
 Alpha  occ. eigenvalues --   -0.55446  -0.55256  -0.55207  -0.54940  -0.54852
 Alpha  occ. eigenvalues --   -0.54833  -0.54722  -0.54545  -0.54429  -0.54253
 Alpha  occ. eigenvalues --   -0.54074  -0.54004  -0.53873  -0.53293  -0.53211
 Alpha  occ. eigenvalues --   -0.53112  -0.52867  -0.52540  -0.52468  -0.52381
 Alpha  occ. eigenvalues --   -0.52185  -0.51999  -0.51928  -0.51740  -0.51476
 Alpha  occ. eigenvalues --   -0.51207  -0.51172  -0.51006  -0.50871  -0.50704
 Alpha  occ. eigenvalues --   -0.50583  -0.50489  -0.50327  -0.50251  -0.50031
 Alpha  occ. eigenvalues --   -0.49863  -0.49817  -0.49673  -0.49356  -0.49173
 Alpha  occ. eigenvalues --   -0.48991  -0.48658  -0.48640  -0.48546  -0.48531
 Alpha  occ. eigenvalues --   -0.48163  -0.48117  -0.48049  -0.47953  -0.47824
 Alpha  occ. eigenvalues --   -0.47824  -0.47679  -0.47237  -0.47226  -0.47125
 Alpha  occ. eigenvalues --   -0.47037  -0.46681  -0.46526  -0.46459  -0.46191
 Alpha  occ. eigenvalues --   -0.46097  -0.45754  -0.45688  -0.45596  -0.45540
 Alpha  occ. eigenvalues --   -0.45265  -0.45002  -0.44973  -0.44773  -0.44690
 Alpha  occ. eigenvalues --   -0.44601  -0.44442  -0.44368  -0.44186  -0.43769
 Alpha  occ. eigenvalues --   -0.43617  -0.43482  -0.43460  -0.43339  -0.43268
 Alpha  occ. eigenvalues --   -0.43197  -0.42910  -0.42434  -0.42366  -0.42185
 Alpha  occ. eigenvalues --   -0.41916  -0.41655  -0.41612  -0.41403  -0.41262
 Alpha  occ. eigenvalues --   -0.40287  -0.40284  -0.39968  -0.39853  -0.39438
 Alpha  occ. eigenvalues --   -0.39230  -0.39055  -0.38819  -0.38535  -0.38227
 Alpha  occ. eigenvalues --   -0.38121  -0.37867  -0.36549  -0.36449  -0.36358
 Alpha  occ. eigenvalues --   -0.35703  -0.35502  -0.35234  -0.34029  -0.33693
 Alpha  occ. eigenvalues --   -0.33401  -0.33238  -0.32784  -0.32503  -0.32326
 Alpha  occ. eigenvalues --   -0.32267  -0.31870  -0.31582  -0.26573  -0.25751
 Alpha  occ. eigenvalues --   -0.24004  -0.22765
 Alpha virt. eigenvalues --   -0.08119  -0.07080  -0.00448   0.00801   0.02033
 Alpha virt. eigenvalues --    0.02213   0.04155   0.04298   0.04934   0.05443
 Alpha virt. eigenvalues --    0.07028   0.07367   0.07398   0.07866   0.08157

 Mulliken charges:
               1
     1  Mg   0.930373
     2  C    0.060759
     3  C   -0.053575
     4  C   -0.067799
     5  C   -0.064659
     6  N   -0.367866
     7  C   -0.017626
     8  C   -0.066833
     9  C   -0.122697
    10  C    0.087821
    11  C    0.030133
    12  C    0.037185
    13  C   -0.149443
    14  H    0.025285
    15  N   -0.454755
    16  C    0.135332
    17  C   -0.149590
    18  C   -0.136726
    19  C    0.177524
    20  C    0.084138
    21  C    0.092256
    22  O   -0.239785
    23  C   -0.062658
    24  N   -0.335396
    25  C    0.120523
    26  C   -0.138865
    27  C   -0.048758
    28  C    0.022577
    29  C    0.006354
    30  C   -0.011642
    31  C   -0.052433
    32  N   -0.425381
    33  C    0.118231
    34  C   -0.169422
    35  C   -0.018293
    36  C    0.076915
    37  C    0.078416
    38  C    0.069284
    39  O   -0.202377
    40  C   -0.060371
    41  C    0.246603
    42  O   -0.245804
    43  O   -0.384152
    44  C    0.135012
    45  H   -0.012768
    46  H   -0.019723
    47  H   -0.002589
    48  H    0.034877
    49  H    0.040603
    50  H    0.043274
    51  H    0.048393
    52  H    0.043003
    53  H    0.039664
    54  H    0.043321
    55  H    0.068919
    56  H    0.058999
    57  H    0.056943
    58  H    0.057837
    59  H    0.063781
    60  H    0.068480
    61  H    0.055859
    62  H    0.048656
    63  H    0.055227
    64  H    0.030162
    65  H    0.036229
    66  H    0.039792
    67  H    0.031095
    68  H    0.041412
    69  H    0.028837
    70  H    0.037002
    71  H    0.037571
    72  H    0.038392
    73  H    0.063009
    74  H    0.045537
    75  H    0.046944
    76  H    0.066563
    77  H    0.069713
    78  H    0.052466
    79  H    0.054707
    80  Mg   0.966225
    81  C   -0.049251
    82  C   -0.089592
    83  C   -0.059808
    84  C   -0.106147
    85  N   -0.317395
    86  C    0.011326
    87  C   -0.040433
    88  C   -0.105310
    89  C    0.050187
    90  C   -0.005211
    91  C   -0.008569
    92  C   -0.109766
    93  H    0.017142
    94  N   -0.387976
    95  C    0.163889
    96  C   -0.188203
    97  C   -0.059184
    98  C    0.115196
    99  C    0.051867
   100  C    0.080760
   101  O   -0.219431
   102  C   -0.036772
   103  N   -0.403448
   104  C    0.019129
   105  C   -0.074858
   106  C   -0.053986
   107  C    0.103452
   108  C    0.032748
   109  C   -0.056524
   110  C   -0.031323
   111  N   -0.481513
   112  C    0.161554
   113  C   -0.187039
   114  C   -0.019366
   115  C    0.159895
   116  C    0.089885
   117  C    0.119871
   118  O   -0.226485
   119  C   -0.061593
   120  C    0.257946
   121  O   -0.245671
   122  O   -0.357581
   123  C    0.146422
   124  H   -0.009392
   125  H    0.024583
   126  H    0.000978
   127  H    0.044139
   128  H    0.046806
   129  H    0.047924
   130  H    0.045195
   131  H    0.037824
   132  H    0.030183
   133  H    0.028292
   134  H    0.044366
   135  H    0.052369
   136  H    0.066430
   137  H    0.038119
   138  H    0.031161
   139  H    0.036023
   140  H    0.074631
   141  H    0.049267
   142  H    0.043696
   143  H    0.035658
   144  H    0.053044
   145  H    0.026337
   146  H    0.041777
   147  H    0.029355
   148  H    0.020486
   149  H    0.036575
   150  H    0.025285
   151  H    0.038911
   152  H    0.066615
   153  H    0.037271
   154  H    0.055609
   155  H    0.057909
   156  H    0.070427
   157  H    0.046847
   158  H    0.060246
 Sum of Mulliken charges =  -0.00000

 Dipole moment (field-independent basis, Debye):
    X=             -7.5279    Y=             -1.3924    Z=             -1.6806  Tot=              7.8378
 Quadrupole moment (field-independent basis, Debye-Ang):
   XX=           -586.4026   YY=           -576.3434   ZZ=           -475.8916
   XY=            109.6595   XZ=             31.5533   YZ=              4.0875

 Normal termination of Gaussian 16 at Mon Sep 20 06:11:55 2021.
