 Gaussian 16, Revision A.03,
 Gaussian 16:  ES64L-G16RevA.03 25-Dec-2016

 --------------------------------
 #p wB97XD/Def2SVP td=(nstates=5)
 --------------------------------

 --------------------------------
 TDDFT excited states in gaussian
 --------------------------------
 Symbolic Z-matrix:
 Charge =  0 Multiplicity = 1

                         Standard orientation:
 ---------------------------------------------------------------------
 Center     Atomic      Atomic             Coordinates (Angstroms)
 Number     Number       Type             X           Y           Z
 ---------------------------------------------------------------------
      1         12           0      -26.733741   -0.505099   -0.062936
      2          6           0      -25.030254    2.390923   -0.932169
      3          6           0      -28.104859    1.076276    2.581570
      4          6           0      -28.181704   -3.404601    0.774423
      5          6           0      -25.135579   -2.102531   -2.738018
      6          7           0      -26.556526    1.550337    0.664567
      7          6           0      -25.913501    2.565242    0.138511
      8          6           0      -26.223109    3.849350    1.037777
      9          6           0      -26.469602    3.135790    2.350229
     10          6           0      -27.140817    1.815063    1.855784
     11          6           0      -25.146857    2.978259    3.130766
     12          6           0      -27.340100    4.753153    0.359006
     13          6           0      -27.377493    6.201554    0.856103
     14          1           0      -26.551722    6.579131    2.073774
     15          7           0      -28.092590   -1.033614    1.339830
     16          6           0      -28.603116   -0.184880    2.319191
     17          6           0      -29.726245   -0.901887    2.994202
     18          6           0      -29.722375   -2.278300    2.508410
     19          6           0      -28.575197   -2.259906    1.562327
     20          6           0      -30.605440   -0.249676    4.034810
     21          6           0      -30.690332   -3.511197    2.820332
     22          8           0      -30.601202   -4.610908    2.263936
     23          6           0      -31.776858   -3.272425    3.847978
     24          7           0      -26.588226   -2.443561   -0.772191
     25          6           0      -27.261894   -3.472534   -0.265113
     26          6           0      -26.887530   -4.830105   -0.936055
     27          6           0      -26.129202   -4.319104   -2.169486
     28          6           0      -25.971961   -2.849121   -1.937728
     29          6           0      -26.071979   -5.797464   -0.033401
     30          6           0      -26.647170   -4.753722   -3.612277
     31          6           0      -27.401249   -3.739156   -4.407424
     32          7           0      -25.210042   -0.071862   -1.426663
     33          6           0      -24.716488   -0.771386   -2.475941
     34          6           0      -23.735384   -0.057137   -3.212297
     35          6           0      -23.818536    1.247935   -2.632665
     36          6           0      -24.717770    1.131523   -1.597413
     37          6           0      -22.791970   -0.420294   -4.329572
     38          6           0      -23.360733    2.605108   -2.662734
     39          8           0      -22.558725    3.175096   -3.370676
     40          6           0      -24.220922    3.460556   -1.678788
     41          6           0      -23.338653    4.252727   -0.816704
     42          8           0      -22.534221    3.739110   -0.054166
     43          8           0      -23.377121    5.645622   -1.081551
     44          6           0      -22.424124    6.473116   -0.325334
     45          1           0      -28.474667    1.603342    3.462291
     46          1           0      -28.635637   -4.342237    1.099554
     47          1           0      -24.619679   -2.646801   -3.531354
     48          1           0      -25.349565    4.499360    1.064116
     49          1           0      -27.219765    3.607425    2.984493
     50          1           0      -25.311537    3.627659    3.991229
     51          1           0      -24.275527    3.308491    2.563697
     52          1           0      -25.134323    1.949653    3.490521
     53          1           0      -28.327433    4.327653    0.540725
     54          1           0      -27.060298    4.798077   -0.693771
     55          1           0      -28.424006    6.435781    1.048726
     56          1           0      -27.073442    6.828241    0.018059
     57          1           0      -30.749675    0.811084    3.826508
     58          1           0      -30.294567   -0.339581    5.075158
     59          1           0      -31.602992   -0.682268    3.959752
     60          1           0      -31.232232   -2.871184    4.702337
     61          1           0      -32.278157   -4.174663    4.197160
     62          1           0      -32.538161   -2.611280    3.433637
     63          1           0      -27.777277   -5.385150   -1.232936
     64          1           0      -25.099603   -4.646109   -2.028913
     65          1           0      -25.296692   -6.203146   -0.683821
     66          1           0      -26.621654   -6.603190    0.450711
     67          1           0      -25.673497   -5.217204    0.798875
     68          1           0      -27.193342   -5.691759   -3.512193
     69          1           0      -25.785950   -4.941159   -4.253174
     70          1           0      -26.777708   -3.465365   -5.258833
     71          1           0      -27.516759   -2.756488   -3.948464
     72          1           0      -28.345255   -4.096431   -4.819040
     73          1           0      -22.826080   -1.482577   -4.573985
     74          1           0      -21.797399   -0.043824   -4.088648
     75          1           0      -23.027914   -0.018726   -5.315288
     76          1           0      -24.885643    4.141687   -2.209454
     77          1           0      -22.580943    7.548376   -0.407298
     78          1           0      -21.461976    6.192423   -0.754662
     79          1           0      -22.463963    6.096079    0.695926
     80         12           0       26.043697   -0.830353    0.294436
     81          6           0       27.215155    2.512218   -0.456085
     82          6           0       25.609698    0.228146    3.315795
     83          6           0       25.277511   -3.990093    0.834383
     84          6           0       27.355950   -1.998029   -2.887414
     85          7           0       26.277417    1.235635    1.271604
     86          6           0       26.762488    2.449629    0.831408
     87          6           0       26.762141    3.438957    1.940508
     88          6           0       26.712405    2.555928    3.213854
     89          6           0       26.209649    1.235095    2.584862
     90          6           0       28.079869    2.351694    3.902059
     91          6           0       25.469526    4.307851    1.869098
     92          6           0       25.652259    5.858861    2.094009
     93          1           0       24.542964    6.866702    1.592266
     94          7           0       25.443038   -1.754316    1.954405
     95          6           0       25.206326   -1.155640    3.091174
     96          6           0       24.632941   -2.127160    4.003347
     97          6           0       24.442209   -3.282582    3.209428
     98          6           0       25.091327   -3.035526    1.950515
     99          6           0       24.209157   -1.722401    5.426928
    100          6           0       23.754153   -4.550726    3.631796
    101          8           0       23.682186   -5.475096    2.878320
    102          6           0       23.075229   -4.603802    4.961505
    103          7           0       26.574168   -2.802601   -0.829645
    104          6           0       25.949055   -3.886667   -0.375038
    105          6           0       25.947067   -4.987324   -1.368340
    106          6           0       26.817224   -4.356199   -2.500997
    107          6           0       26.962684   -2.917926   -2.079174
    108          6           0       26.382374   -6.416930   -0.883588
    109          6           0       26.143751   -4.555668   -3.914696
    110          6           0       26.730728   -5.597355   -4.907562
    111          7           0       27.032210   -0.041922   -1.301939
    112          6           0       27.441511   -0.562348   -2.550009
    113          6           0       28.014489    0.524392   -3.370830
    114          6           0       27.914666    1.675721   -2.601213
    115          6           0       27.379267    1.323337   -1.373910
    116          6           0       28.720341    0.334723   -4.735339
    117          6           0       28.216732    3.142703   -2.642324
    118          8           0       28.658793    3.883652   -3.488338
    119          6           0       27.929148    3.722611   -1.167962
    120          6           0       27.233702    4.956161   -1.213989
    121          8           0       25.997104    5.016148   -1.166340
    122          8           0       28.004325    6.105519   -1.359303
    123          6           0       27.347426    7.440732   -1.213859
    124          1           0       25.375111    0.465210    4.355016
    125          1           0       24.964640   -5.024670    0.989382
    126          1           0       27.746298   -2.330835   -3.850391
    127          1           0       27.714490    3.969253    1.965071
    128          1           0       26.055940    2.894488    4.015199
    129          1           0       28.055285    2.736413    4.922045
    130          1           0       28.814910    2.899556    3.313162
    131          1           0       28.427386    1.318474    3.926125
    132          1           0       24.832140    3.918783    2.663329
    133          1           0       25.009625    4.075370    0.908820
    134          1           0       26.616873    6.140025    1.672307
    135          1           0       25.714471    5.924898    3.180880
    136          1           0       23.124203   -1.808255    5.499652
    137          1           0       24.542855   -0.741557    5.763848
    138          1           0       24.537174   -2.474879    6.143492
    139          1           0       22.259219   -3.886117    5.041945
    140          1           0       23.668900   -4.313686    5.828318
    141          1           0       22.611602   -5.583736    5.077715
    142          1           0       24.928669   -5.088039   -1.743626
    143          1           0       27.827858   -4.761301   -2.445484
    144          1           0       26.509650   -6.345595    0.196103
    145          1           0       27.231217   -6.880115   -1.387841
    146          1           0       25.576183   -7.114822   -1.110279
    147          1           0       26.181771   -3.611681   -4.459018
    148          1           0       25.075598   -4.605804   -3.703459
    149          1           0       25.925729   -6.193830   -5.336547
    150          1           0       27.452231   -6.227851   -4.387658
    151          1           0       27.229870   -5.097491   -5.738545
    152          1           0       28.237471   -0.499217   -5.243959
    153          1           0       29.746579    0.009455   -4.563069
    154          1           0       28.678715    1.235778   -5.347715
    155          1           0       28.889736    3.871913   -0.675807
    156          1           0       26.948404    7.574174   -0.207343
    157          1           0       26.700206    7.662724   -2.061495
    158          1           0       28.151402    8.175364   -1.170537
 ---------------------------------------------------------------------

 SCF Done:  E(RwB97XD) =  -4070.58811092     A.U. after   19 cycles

 Excitation energies and oscillator strengths:

 Excited State   1:      Singlet-A      1.6906 eV  733.39 nm  f=0.3831  <S**2>=0.000
     309 -> 315        0.18167
     312 -> 314        0.68417
     309 <- 315        0.11472
 This state for optimization and/or second-order correction.
 Total Energy, E(TD-HF/TD-DFT) =  -4070.52598378
 Copying the excited state density for this state as the 1-particle RhoCI density.

 Excited State   2:      Singlet-A      1.6949 eV  731.51 nm  f=0.3881  <S**2>=0.000
     310 -> 316        0.16827
     311 -> 313        0.68665
     310 <- 316        0.11046

 Excited State   3:      Singlet-A      2.1227 eV  584.10 nm  f=0.2207  <S**2>=0.000
     310 -> 313        0.67195
     311 -> 316       -0.20538

 Excited State   4:      Singlet-A      2.1645 eV  572.81 nm  f=0.1466  <S**2>=0.000
     309 -> 314        0.65220
     312 -> 315       -0.26036

 Excited State   5:      Singlet-A      3.4401 eV  360.41 nm  f=0.0065  <S**2>=0.000
     303 -> 313       -0.20134
     304 -> 313       -0.17630
     307 -> 313        0.63308

 The electronic state is 1-A.
 Alpha  occ. eigenvalues --  -46.95766 -46.94122 -19.29176 -19.29146 -19.25578
 Alpha  occ. eigenvalues --  -19.24610 -19.24404 -19.24301 -19.23439 -19.22916
 Alpha  occ. eigenvalues --  -14.46613 -14.46370 -14.46034 -14.44756 -14.44719
 Alpha  occ. eigenvalues --  -14.44403 -14.44355 -14.43198 -10.42721 -10.42309
 Alpha  occ. eigenvalues --  -10.41297 -10.39918 -10.39110 -10.38080 -10.35416
 Alpha  occ. eigenvalues --  -10.35355 -10.35279 -10.35257 -10.35142 -10.35081
 Alpha  occ. eigenvalues --  -10.34790 -10.34723 -10.34651 -10.34580 -10.34455
 Alpha  occ. eigenvalues --  -10.34060 -10.34011 -10.33816 -10.33800 -10.33569
 Alpha  occ. eigenvalues --  -10.33341 -10.33238 -10.32944 -10.32833 -10.32755
 Alpha  occ. eigenvalues --  -10.32618 -10.32273 -10.32253 -10.32228 -10.32120
 Alpha  occ. eigenvalues --  -10.32049 -10.32035 -10.32023 -10.31959 -10.31884
 Alpha  occ. eigenvalues --  -10.31648 -10.31596 -10.31595 -10.31346 -10.31301
 Alpha  occ. eigenvalues --  -10.31285 -10.31284 -10.31276 -10.31087 -10.30986
 Alpha  occ. eigenvalues --  -10.30841 -10.30784 -10.30546 -10.30378 -10.30259
 Alpha  occ. eigenvalues --  -10.30236 -10.30153 -10.30004 -10.29863 -10.29857
 Alpha  occ. eigenvalues --  -10.29642 -10.29603 -10.29588 -10.29584 -10.29533
 Alpha  occ. eigenvalues --  -10.29533 -10.29382 -10.29332 -10.29067 -10.28298
 Alpha  occ. eigenvalues --  -10.28174  -3.21745  -3.20288  -1.95320  -1.94876
 Alpha  occ. eigenvalues --   -1.94706  -1.93898  -1.93383  -1.93312  -1.16633
 Alpha  occ. eigenvalues --   -1.16306  -1.14412  -1.13029  -1.12771  -1.11778
 Alpha  occ. eigenvalues --   -1.08939  -1.08517  -1.07812  -1.07587  -1.06959
 Alpha  occ. eigenvalues --   -1.06902  -1.06744  -1.06180  -1.05239  -1.02948
 Alpha  occ. eigenvalues --   -0.94092  -0.93175  -0.91132  -0.91098  -0.90800
 Alpha  occ. eigenvalues --   -0.90450  -0.90218  -0.89867  -0.89755  -0.89607
 Alpha  occ. eigenvalues --   -0.89276  -0.89045  -0.88174  -0.87111  -0.86260
 Alpha  occ. eigenvalues --   -0.86216  -0.85519  -0.84930  -0.84704  -0.84523
 Alpha  occ. eigenvalues --   -0.84062  -0.83900  -0.82891  -0.82861  -0.82362
 Alpha  occ. eigenvalues --   -0.82042  -0.80759  -0.80593  -0.79150  -0.79022
 Alpha  occ. eigenvalues --   -0.78589  -0.78575  -0.78115  -0.77765  -0.77370
 Alpha  occ. eigenvalues --   -0.77003  -0.74809  -0.74712  -0.73161  -0.73074
 Alpha  occ. eigenvalues --   -0.71193  -0.71131  -0.70737  -0.70703  -0.69956
 Alpha  occ. eigenvalues --   -0.69896  -0.69266  -0.68670  -0.68040  -0.67518
 Alpha  occ. eigenvalues --   -0.67027  -0.66965  -0.66585  -0.66223  -0.66187
 Alpha  occ. eigenvalues --   -0.65966  -0.63478  -0.63251  -0.63034  -0.62696
 Alpha  occ. eigenvalues --   -0.62056  -0.61550  -0.61125  -0.61044  -0.60017
 Alpha  occ. eigenvalues --   -0.60014  -0.59957  -0.59575  -0.59514  -0.59157
 Alpha  occ. eigenvalues --   -0.58560  -0.57841  -0.57658  -0.57622  -0.57466
 Alpha  occ. eigenvalues --   -0.57360  -0.56683  -0.55903  -0.55889  -0.55818
 Alpha  occ. eigenvalues --   -0.55574  -0.55353  -0.55337  -0.55004  -0.54952
 Alpha  occ. eigenvalues --   -0.54588  -0.54582  -0.54362  -0.54244  -0.54087
 Alpha  occ. eigenvalues --   -0.53916  -0.53760  -0.53736  -0.53207  -0.53136
 Alpha  occ. eigenvalues --   -0.52722  -0.52700  -0.52517  -0.52229  -0.52169
 Alpha  occ. eigenvalues --   -0.52057  -0.51820  -0.51784  -0.51624  -0.51522
 Alpha  occ. eigenvalues --   -0.51419  -0.51156  -0.51111  -0.50989  -0.50793
 Alpha  occ. eigenvalues --   -0.50743  -0.50635  -0.50486  -0.50413  -0.50221
 Alpha  occ. eigenvalues --   -0.49929  -0.49754  -0.49682  -0.49452  -0.49336
 Alpha  occ. eigenvalues --   -0.49314  -0.48797  -0.48361  -0.48354  -0.48176
 Alpha  occ. eigenvalues --   -0.48130  -0.47941  -0.47706  -0.47696  -0.47450
 Alpha  occ. eigenvalues --   -0.47442  -0.47290  -0.46863  -0.46856  -0.46717
 Alpha  occ. eigenvalues --   -0.46583  -0.46508  -0.46415  -0.46263  -0.45937
 Alpha  occ. eigenvalues --   -0.45926  -0.45886  -0.45441  -0.45411  -0.45271
 Alpha  occ. eigenvalues --   -0.45260  -0.45159  -0.44935  -0.44893  -0.44715
 Alpha  occ. eigenvalues --   -0.44648  -0.44434  -0.44145  -0.44027  -0.43761
 Alpha  occ. eigenvalues --   -0.43745  -0.43307  -0.43189  -0.42959  -0.42897
 Alpha  occ. eigenvalues --   -0.42863  -0.42538  -0.42425  -0.42255  -0.42094
 Alpha  occ. eigenvalues --   -0.42077  -0.41880  -0.41772  -0.41747  -0.41107
 Alpha  occ. eigenvalues --   -0.40242  -0.40201  -0.39979  -0.39552  -0.39452
 Alpha  occ. eigenvalues --   -0.39084  -0.38643  -0.38455  -0.38155  -0.38130
 Alpha  occ. eigenvalues --   -0.37704  -0.37622  -0.36443  -0.35892  -0.35543
 Alpha  occ. eigenvalues --   -0.35441  -0.35024  -0.34746  -0.34207  -0.33961
 Alpha  occ. eigenvalues --   -0.33606  -0.33393  -0.33265  -0.32749  -0.32722
 Alpha  occ. eigenvalues --   -0.32159  -0.31780  -0.31697  -0.25826  -0.25450
 Alpha  occ. eigenvalues --   -0.23451  -0.23218
 Alpha virt. eigenvalues --   -0.07409  -0.07177   0.00659   0.01588   0.01998
 Alpha virt. eigenvalues --    0.03055   0.04573   0.04726   0.05501   0.06601
 Alpha virt. eigenvalues --    0.06748   0.06975   0.07740   0.08037   0.08713

 Mulliken charges:
               1
     1  Mg   0.985890
     2  C   -0.033870
     3  C   -0.089313
     4  C   -0.081518
     5  C   -0.112996
     6  N   -0.312447
     7  C   -0.022121
     8  C   -0.084852
     9  C   -0.106229
    10  C    0.035598
    11  C    0.056894
    12  C    0.017381
    13  C   -0.109391
    14  H    0.037440
    15  N   -0.477270
    16  C    0.189945
    17  C   -0.158428
    18  C   -0.108875
    19  C    0.127291
    20  C    0.049056
    21  C    0.101688
    22  O   -0.227646
    23  C   -0.029608
    24  N   -0.378991
    25  C    0.081032
    26  C   -0.097512
    27  C   -0.032392
    28  C    0.052888
    29  C    0.021164
    30  C   -0.006352
    31  C   -0.048402
    32  N   -0.374800
    33  C    0.116172
    34  C   -0.174757
    35  C   -0.023281
    36  C    0.102205
    37  C    0.084891
    38  C    0.096532
    39  O   -0.204567
    40  C   -0.019841
    41  C    0.245759
    42  O   -0.251786
    43  O   -0.402737
    44  C    0.147320
    45  H    0.004666
    46  H    0.017868
    47  H   -0.007216
    48  H    0.021238
    49  H    0.004267
    50  H    0.035514
    51  H    0.070932
    52  H    0.037003
    53  H    0.035389
    54  H    0.041313
    55  H    0.045560
    56  H    0.053110
    57  H    0.040764
    58  H    0.065824
    59  H    0.031019
    60  H    0.059250
    61  H    0.056238
    62  H    0.081368
    63  H    0.037165
    64  H    0.030706
    65  H    0.038439
    66  H    0.045370
    67  H    0.041231
    68  H    0.033873
    69  H    0.028047
    70  H    0.018053
    71  H    0.047786
    72  H    0.040840
    73  H    0.015390
    74  H    0.066026
    75  H    0.046112
    76  H    0.068319
    77  H    0.063921
    78  H    0.057336
    79  H    0.048112
    80  Mg   0.974082
    81  C   -0.021015
    82  C   -0.054270
    83  C   -0.053577
    84  C   -0.110090
    85  N   -0.302004
    86  C   -0.007118
    87  C   -0.073285
    88  C   -0.132779
    89  C    0.070387
    90  C    0.036915
    91  C    0.034072
    92  C   -0.096302
    93  H    0.049896
    94  N   -0.460766
    95  C    0.091600
    96  C   -0.147394
    97  C   -0.078556
    98  C    0.134352
    99  C    0.063149
   100  C    0.051843
   101  O   -0.201379
   102  C   -0.020556
   103  N   -0.271169
   104  C    0.014709
   105  C   -0.095338
   106  C   -0.044771
   107  C    0.058211
   108  C    0.023221
   109  C   -0.029520
   110  C   -0.028132
   111  N   -0.485659
   112  C    0.125933
   113  C   -0.223665
   114  C   -0.055373
   115  C    0.152332
   116  C    0.077564
   117  C    0.163232
   118  O   -0.174802
   119  C   -0.083148
   120  C    0.267155
   121  O   -0.273029
   122  O   -0.390015
   123  C    0.157588
   124  H   -0.025740
   125  H    0.021031
   126  H   -0.000198
   127  H    0.020579
   128  H    0.035029
   129  H    0.041922
   130  H    0.027846
   131  H    0.045264
   132  H    0.025033
   133  H    0.073873
   134  H    0.043865
   135  H    0.037051
   136  H    0.048564
   137  H    0.053699
   138  H    0.042053
   139  H    0.049843
   140  H    0.042901
   141  H    0.056135
   142  H    0.045892
   143  H    0.031644
   144  H    0.049301
   145  H    0.037534
   146  H    0.032034
   147  H    0.020880
   148  H    0.014753
   149  H    0.040160
   150  H    0.034891
   151  H    0.038235
   152  H    0.028688
   153  H    0.052691
   154  H    0.061917
   155  H    0.080194
   156  H    0.043665
   157  H    0.073806
   158  H    0.042433
 Sum of Mulliken charges =  -0.00000

 Dipole moment (field-independent basis, Debye):
    X=             -5.3475    Y=             -1.2568    Z=              8.3469  Tot=              9.9923
 Quadrupole moment (field-independent basis, Debye-Ang):
   XX=           -292.0030   YY=           -498.4167   ZZ=           -474.7171
   XY=            -52.0756   XZ=             43.1298   YZ=             47.9001

 Normal termination of Gaussian 16 at Mon Sep 20 20:38:33 2021.
