 Gaussian 16, Revision A.03,
 Gaussian 16:  ES64L-G16RevA.03 25-Dec-2016

 --------------------------------
 #p wB97XD/Def2SVP td=(nstates=5)
 --------------------------------

 --------------------------------
 TDDFT excited states in gaussian
 --------------------------------
 Symbolic Z-matrix:
 Charge =  0 Multiplicity = 1

                         Standard orientation:
 ---------------------------------------------------------------------
 Center     Atomic      Atomic             Coordinates (Angstroms)
 Number     Number       Type             X           Y           Z
 ---------------------------------------------------------------------
      1         12           0       30.788415    0.416477   -0.672272
      2          6           0       28.105093   -1.717794    0.556392
      3          6           0       28.997697    3.096138    0.511925
      4          6           0       33.657296    2.111640   -0.392346
      5          6           0       32.353513   -2.336470   -1.904381
      6          7           0       28.840595    0.608947    0.598932
      7          6           0       27.872263   -0.412207    0.911192
      8          6           0       26.600749    0.243538    1.457112
      9          6           0       26.752958    1.749195    1.090134
     10          6           0       28.285607    1.892017    0.684569
     11          6           0       25.809736    2.214201   -0.118084
     12          6           0       26.214925   -0.077454    2.871491
     13          6           0       27.301921   -0.687883    3.787409
     14          1           0       27.162106   -1.031905    5.281583
     15          7           0       31.252304    2.415151   -0.151222
     16          6           0       30.363793    3.350672    0.330993
     17          6           0       31.090975    4.650386    0.474751
     18          6           0       32.430944    4.303764    0.321437
     19          6           0       32.543507    2.892099   -0.037879
     20          6           0       30.365961    5.895462    0.845296
     21          6           0       33.622392    5.284935    0.522508
     22          8           0       33.372626    6.408288    0.922231
     23          6           0       35.061772    4.906918    0.405397
     24          7           0       32.737020   -0.162437   -0.960053
     25          6           0       33.729287    0.815783   -0.906281
     26          6           0       35.063296    0.271751   -1.417492
     27          6           0       34.631152   -1.030952   -2.183315
     28          6           0       33.182605   -1.171314   -1.710090
     29          6           0       35.949491    1.191498   -2.296362
     30          6           0       35.505979   -2.300392   -1.929806
     31          6           0       36.462414   -2.740938   -3.130419
     32          7           0       30.329635   -1.624648   -0.772854
     33          6           0       31.059041   -2.625534   -1.397965
     34          6           0       30.272179   -3.833938   -1.425750
     35          6           0       29.181666   -3.504859   -0.609259
     36          6           0       29.272511   -2.132919   -0.267492
     37          6           0       30.747005   -5.147854   -2.070098
     38          6           0       27.950778   -3.978407   -0.054393
     39          8           0       27.476510   -5.119228   -0.227625
     40          6           0       27.092877   -2.818865    0.621345
     41          6           0       26.752626   -3.346857    1.957603
     42          8           0       27.530031   -3.861163    2.768551
     43          8           0       25.449058   -3.042609    2.171186
     44          6           0       24.818144   -3.644530    3.387461
     45          1           0       28.434961    3.945092    0.904497
     46          1           0       34.584476    2.682872   -0.308634
     47          1           0       32.827518   -3.174558   -2.418816
     48          1           0       25.899284   -0.220770    0.763912
     49          1           0       26.679417    2.407830    1.955701
     50          1           0       25.109660    2.895653    0.363629
     51          1           0       25.349851    1.338464   -0.576633
     52          1           0       26.458941    2.766525   -0.798405
     53          1           0       25.314036   -0.687242    2.805703
     54          1           0       25.909584    0.907671    3.225779
     55          1           0       28.147023   -0.003917    3.703202
     56          1           0       27.607970   -1.657080    3.393086
     57          1           0       30.692815    6.140441    1.855445
     58          1           0       29.296535    5.693441    0.793275
     59          1           0       30.580218    6.670709    0.108806
     60          1           0       35.466489    4.192344    1.121108
     61          1           0       35.732760    5.744325    0.594512
     62          1           0       35.103452    4.615942   -0.644127
     63          1           0       35.516468    0.094729   -0.441408
     64          1           0       34.618203   -0.736460   -3.232934
     65          1           0       36.767623    1.660262   -1.748593
     66          1           0       35.352095    2.021917   -2.671209
     67          1           0       36.291532    0.599069   -3.145673
     68          1           0       34.938343   -3.185523   -1.641337
     69          1           0       36.077022   -2.048533   -1.036087
     70          1           0       37.388957   -2.970113   -2.604617
     71          1           0       36.629284   -1.977428   -3.890376
     72          1           0       35.958301   -3.555965   -3.648525
     73          1           0       29.954813   -5.793046   -2.450556
     74          1           0       31.215696   -5.633466   -1.214858
     75          1           0       31.321692   -4.938476   -2.972050
     76          1           0       26.217731   -2.613355    0.003163
     77          1           0       23.778701   -3.320610    3.450191
     78          1           0       25.320857   -3.314793    4.296865
     79          1           0       24.923378   -4.710424    3.190179
     80         12           0      -31.155545    0.003331   -0.402024
     81          6           0      -27.704244    0.624653   -0.092314
     82          6           0      -30.446139   -3.292200    0.452395
     83          6           0      -34.423155   -0.615715   -0.225750
     84          6           0      -31.668170    3.434469   -0.313139
     85          7           0      -29.253622   -1.110365    0.277475
     86          6           0      -27.929290   -0.722580    0.216981
     87          6           0      -26.919764   -1.850564    0.256266
     88          6           0      -27.803602   -3.111573    0.407658
     89          6           0      -29.249981   -2.516898    0.398975
     90          6           0      -27.582678   -4.202440   -0.717402
     91          6           0      -25.822273   -1.783561    1.410028
     92          6           0      -26.218349   -1.131445    2.744746
     93          1           0      -26.508305   -2.058089    3.962462
     94          7           0      -32.248266   -1.683214    0.032977
     95          6           0      -31.785967   -2.941203    0.296551
     96          6           0      -32.913912   -3.877413    0.402513
     97          6           0      -34.099931   -3.106925    0.201469
     98          6           0      -33.600283   -1.712509   -0.002290
     99          6           0      -32.750140   -5.371248    0.656296
    100          6           0      -35.502604   -3.805193    0.353291
    101          8           0      -35.523129   -4.984917    0.675597
    102          6           0      -36.837045   -2.964489    0.181450
    103          7           0      -32.764468    1.221612   -0.162146
    104          6           0      -34.068862    0.746397   -0.276907
    105          6           0      -35.129795    1.984867   -0.332070
    106          6           0      -34.115117    3.244996   -0.195223
    107          6           0      -32.776195    2.581417   -0.233764
    108          6           0      -35.977370    1.991411   -1.638259
    109          6           0      -34.296099    4.122715    1.116683
    110          6           0      -34.451144    5.645140    0.978161
    111          7           0      -29.953746    1.739147   -0.360492
    112          6           0      -30.267173    3.073457   -0.315435
    113          6           0      -29.010677    3.848254   -0.238901
    114          6           0      -27.973039    2.878329   -0.270144
    115          6           0      -28.631252    1.617063   -0.294776
    116          6           0      -28.854820    5.339753   -0.129496
    117          6           0      -26.507079    2.741093   -0.180891
    118          8           0      -25.580909    3.564830   -0.203861
    119          6           0      -26.291620    1.237365   -0.265633
    120          6           0      -25.591666    0.842509   -1.441370
    121          8           0      -26.163151    0.750148   -2.558589
    122          8           0      -24.241175    0.550456   -1.165272
    123          6           0      -23.426691   -0.024637   -2.230944
    124          1           0      -30.272771   -4.366024    0.545407
    125          1           0      -35.493327   -0.803030   -0.331856
    126          1           0      -31.912641    4.497713   -0.349323
    127          1           0      -26.439888   -1.770290   -0.718384
    128          1           0      -27.659454   -3.445760    1.434466
    129          1           0      -27.105199   -5.080283   -0.282166
    130          1           0      -26.941304   -3.734622   -1.464801
    131          1           0      -28.529387   -4.520275   -1.155498
    132          1           0      -25.070640   -1.143825    0.945812
    133          1           0      -25.399980   -2.777792    1.557669
    134          1           0      -27.091438   -0.491097    2.614840
    135          1           0      -25.433514   -0.429244    3.022788
    136          1           0      -32.970267   -5.688413    1.675659
    137          1           0      -31.812071   -5.739012    0.240323
    138          1           0      -33.425676   -5.946256    0.023200
    139          1           0      -36.727000   -2.384131   -0.734930
    140          1           0      -36.930445   -2.321787    1.056438
    141          1           0      -37.748511   -3.552255    0.290364
    142          1           0      -35.849713    1.794041    0.463239
    143          1           0      -34.225820    3.839247   -1.102541
    144          1           0      -35.479770    2.654531   -2.345600
    145          1           0      -37.024084    2.239888   -1.462522
    146          1           0      -36.086258    1.011897   -2.103580
    147          1           0      -33.461205    3.874339    1.772726
    148          1           0      -35.228521    3.721346    1.513643
    149          1           0      -34.220908    6.166682    1.907592
    150          1           0      -35.505282    5.745893    0.720801
    151          1           0      -33.755540    5.910971    0.181913
    152          1           0      -29.780655    5.666807    0.342985
    153          1           0      -28.871454    5.649990   -1.174265
    154          1           0      -27.922730    5.679361    0.323099
    155          1           0      -25.701928    1.056029    0.632696
    156          1           0      -23.238209    0.594654   -3.107941
    157          1           0      -23.871411   -0.958577   -2.575825
    158          1           0      -22.518147   -0.394465   -1.755397
 ---------------------------------------------------------------------

 SCF Done:  E(RwB97XD) =  -4070.56971384     A.U. after   19 cycles

 Excitation energies and oscillator strengths:

 Excited State   1:      Singlet-A      1.6105 eV  769.85 nm  f=0.3570  <S**2>=0.000
     309 -> 316       -0.16151
     312 -> 313        0.68856
     309 <- 316       -0.10999
 This state for optimization and/or second-order correction.
 Total Energy, E(TD-HF/TD-DFT) =  -4070.51052913
 Copying the excited state density for this state as the 1-particle RhoCI density.

 Excited State   2:      Singlet-A      1.6637 eV  745.24 nm  f=0.3754  <S**2>=0.000
     310 -> 315        0.18691
     311 -> 314        0.68288
     310 <- 315        0.11708

 Excited State   3:      Singlet-A      2.2277 eV  556.56 nm  f=0.0766  <S**2>=0.000
     309 -> 313        0.61814
     312 -> 316        0.32516

 Excited State   4:      Singlet-A      2.2612 eV  548.31 nm  f=0.0696  <S**2>=0.000
     310 -> 314        0.61503
     311 -> 315       -0.33678

 Excited State   5:      Singlet-A      3.3589 eV  369.12 nm  f=0.1118  <S**2>=0.000
     305 -> 313       -0.46365
     308 -> 313        0.33346
     308 -> 318       -0.13815
     308 -> 321        0.15283
     309 -> 313       -0.10243
     312 -> 316        0.30073

 The electronic state is 1-A.
 Alpha  occ. eigenvalues --  -46.95645 -46.95291 -19.31032 -19.30557 -19.25209
 Alpha  occ. eigenvalues --  -19.24653 -19.24343 -19.24266 -19.24139 -19.22089
 Alpha  occ. eigenvalues --  -14.47298 -14.47063 -14.46666 -14.46191 -14.44568
 Alpha  occ. eigenvalues --  -14.44362 -14.43908 -14.43266 -10.43899 -10.42956
 Alpha  occ. eigenvalues --  -10.40516 -10.39520 -10.39394 -10.37520 -10.36057
 Alpha  occ. eigenvalues --  -10.35982 -10.35858 -10.35854 -10.35742 -10.35429
 Alpha  occ. eigenvalues --  -10.35015 -10.35005 -10.34961 -10.34945 -10.34627
 Alpha  occ. eigenvalues --  -10.34591 -10.34522 -10.34113 -10.33907 -10.33373
 Alpha  occ. eigenvalues --  -10.33059 -10.32977 -10.32948 -10.32800 -10.32569
 Alpha  occ. eigenvalues --  -10.32552 -10.32526 -10.32445 -10.32393 -10.32366
 Alpha  occ. eigenvalues --  -10.32357 -10.32272 -10.32138 -10.31960 -10.31893
 Alpha  occ. eigenvalues --  -10.31876 -10.31850 -10.31812 -10.31678 -10.31665
 Alpha  occ. eigenvalues --  -10.31622 -10.31547 -10.31387 -10.31367 -10.31272
 Alpha  occ. eigenvalues --  -10.31260 -10.31220 -10.31106 -10.31031 -10.30818
 Alpha  occ. eigenvalues --  -10.30789 -10.30764 -10.30699 -10.30687 -10.30674
 Alpha  occ. eigenvalues --  -10.30494 -10.30450 -10.30231 -10.30214 -10.29884
 Alpha  occ. eigenvalues --  -10.29868 -10.29863 -10.29709 -10.29426 -10.29235
 Alpha  occ. eigenvalues --  -10.27939  -3.21586  -3.21357  -1.95143  -1.94903
 Alpha  occ. eigenvalues --   -1.94729  -1.94534  -1.94495  -1.94331  -1.18222
 Alpha  occ. eigenvalues --   -1.17151  -1.12949  -1.12652  -1.11301  -1.09631
 Alpha  occ. eigenvalues --   -1.09226  -1.08849  -1.06824  -1.06161  -1.06027
 Alpha  occ. eigenvalues --   -1.05604  -1.04922  -1.04614  -1.03910  -1.02347
 Alpha  occ. eigenvalues --   -0.95138  -0.93874  -0.91256  -0.91066  -0.90879
 Alpha  occ. eigenvalues --   -0.90722  -0.90495  -0.89962  -0.88796  -0.88733
 Alpha  occ. eigenvalues --   -0.88641  -0.88021  -0.87993  -0.87545  -0.86467
 Alpha  occ. eigenvalues --   -0.86287  -0.85792  -0.85593  -0.84695  -0.84661
 Alpha  occ. eigenvalues --   -0.84254  -0.83580  -0.82961  -0.82910  -0.82109
 Alpha  occ. eigenvalues --   -0.82053  -0.80103  -0.80020  -0.79653  -0.79164
 Alpha  occ. eigenvalues --   -0.78704  -0.78453  -0.78415  -0.77916  -0.77185
 Alpha  occ. eigenvalues --   -0.76868  -0.74996  -0.74329  -0.73736  -0.73682
 Alpha  occ. eigenvalues --   -0.71556  -0.71242  -0.70961  -0.70879  -0.70376
 Alpha  occ. eigenvalues --   -0.69560  -0.68915  -0.68833  -0.68136  -0.67699
 Alpha  occ. eigenvalues --   -0.67370  -0.67196  -0.66677  -0.66590  -0.66193
 Alpha  occ. eigenvalues --   -0.65510  -0.64442  -0.64105  -0.62248  -0.61662
 Alpha  occ. eigenvalues --   -0.61607  -0.61112  -0.61036  -0.61023  -0.60653
 Alpha  occ. eigenvalues --   -0.59930  -0.59728  -0.59521  -0.59208  -0.59184
 Alpha  occ. eigenvalues --   -0.58758  -0.58155  -0.58118  -0.57539  -0.57095
 Alpha  occ. eigenvalues --   -0.56888  -0.56523  -0.56372  -0.56175  -0.56157
 Alpha  occ. eigenvalues --   -0.55722  -0.55624  -0.55436  -0.54995  -0.54741
 Alpha  occ. eigenvalues --   -0.54515  -0.54505  -0.54308  -0.54241  -0.54063
 Alpha  occ. eigenvalues --   -0.53732  -0.53491  -0.53372  -0.53162  -0.53140
 Alpha  occ. eigenvalues --   -0.52982  -0.52891  -0.52662  -0.52574  -0.52243
 Alpha  occ. eigenvalues --   -0.51951  -0.51891  -0.51542  -0.51529  -0.51326
 Alpha  occ. eigenvalues --   -0.51260  -0.51190  -0.50911  -0.50834  -0.50710
 Alpha  occ. eigenvalues --   -0.50484  -0.50270  -0.50257  -0.50080  -0.50065
 Alpha  occ. eigenvalues --   -0.49693  -0.49557  -0.49277  -0.49198  -0.49115
 Alpha  occ. eigenvalues --   -0.48853  -0.48779  -0.48557  -0.48473  -0.48384
 Alpha  occ. eigenvalues --   -0.48174  -0.48143  -0.48088  -0.47687  -0.47657
 Alpha  occ. eigenvalues --   -0.47410  -0.47301  -0.47111  -0.46903  -0.46886
 Alpha  occ. eigenvalues --   -0.46730  -0.46577  -0.46472  -0.46326  -0.46126
 Alpha  occ. eigenvalues --   -0.45929  -0.45877  -0.45839  -0.45397  -0.45306
 Alpha  occ. eigenvalues --   -0.45162  -0.45021  -0.44888  -0.44864  -0.44654
 Alpha  occ. eigenvalues --   -0.44648  -0.44483  -0.44360  -0.44229  -0.44183
 Alpha  occ. eigenvalues --   -0.44056  -0.44054  -0.43905  -0.43675  -0.43554
 Alpha  occ. eigenvalues --   -0.42964  -0.42954  -0.42776  -0.42494  -0.42151
 Alpha  occ. eigenvalues --   -0.41819  -0.41768  -0.41604  -0.41242  -0.40990
 Alpha  occ. eigenvalues --   -0.40848  -0.40442  -0.39605  -0.39468  -0.39352
 Alpha  occ. eigenvalues --   -0.39233  -0.39162  -0.38992  -0.38646  -0.38559
 Alpha  occ. eigenvalues --   -0.38281  -0.37793  -0.36747  -0.36318  -0.36310
 Alpha  occ. eigenvalues --   -0.35809  -0.35480  -0.34918  -0.33741  -0.33543
 Alpha  occ. eigenvalues --   -0.33242  -0.33163  -0.33024  -0.32450  -0.32318
 Alpha  occ. eigenvalues --   -0.31771  -0.31540  -0.31145  -0.26394  -0.26075
 Alpha  occ. eigenvalues --   -0.22642  -0.22575
 Alpha virt. eigenvalues --   -0.06917  -0.06512   0.00108   0.00134   0.02336
 Alpha virt. eigenvalues --    0.03150   0.04099   0.04476   0.04643   0.04918
 Alpha virt. eigenvalues --    0.05574   0.07084   0.07486   0.07777   0.07801

 Mulliken charges:
               1
     1  Mg   0.953773
     2  C   -0.033145
     3  C   -0.082972
     4  C   -0.079772
     5  C   -0.083034
     6  N   -0.368323
     7  C   -0.053450
     8  C   -0.004955
     9  C   -0.142394
    10  C    0.044627
    11  C    0.037074
    12  C    0.030604
    13  C   -0.102160
    14  H    0.037275
    15  N   -0.470939
    16  C    0.144955
    17  C   -0.159824
    18  C   -0.079511
    19  C    0.169697
    20  C    0.104729
    21  C    0.036113
    22  O   -0.227568
    23  C    0.002077
    24  N   -0.386179
    25  C    0.091662
    26  C   -0.126881
    27  C   -0.015489
    28  C    0.025732
    29  C    0.031688
    30  C   -0.022218
    31  C   -0.061808
    32  N   -0.378310
    33  C    0.092524
    34  C   -0.180572
    35  C   -0.010830
    36  C    0.119111
    37  C    0.073307
    38  C    0.083820
    39  O   -0.250551
    40  C   -0.041256
    41  C    0.265175
    42  O   -0.260784
    43  O   -0.368560
    44  C    0.138612
    45  H    0.004113
    46  H   -0.041795
    47  H   -0.008962
    48  H    0.025760
    49  H    0.039999
    50  H    0.048696
    51  H    0.050479
    52  H    0.040820
    53  H    0.031517
    54  H    0.017658
    55  H    0.047105
    56  H    0.072043
    57  H    0.073564
    58  H    0.022215
    59  H    0.060957
    60  H    0.076667
    61  H    0.048879
    62  H    0.056590
    63  H    0.052201
    64  H    0.031506
    65  H    0.041498
    66  H    0.036521
    67  H    0.042372
    68  H    0.044453
    69  H    0.024532
    70  H    0.051162
    71  H    0.034943
    72  H    0.047429
    73  H    0.051615
    74  H    0.071740
    75  H    0.038740
    76  H    0.074331
    77  H    0.059712
    78  H    0.067151
    79  H    0.072723
    80  Mg   0.987076
    81  C   -0.108776
    82  C   -0.085678
    83  C   -0.110637
    84  C   -0.096054
    85  N   -0.341882
    86  C   -0.038434
    87  C   -0.062397
    88  C   -0.058518
    89  C    0.026649
    90  C    0.027357
    91  C   -0.015208
    92  C   -0.118672
    93  H    0.036881
    94  N   -0.448627
    95  C    0.153495
    96  C   -0.157766
    97  C   -0.113636
    98  C    0.206950
    99  C    0.095411
   100  C    0.069642
   101  O   -0.226536
   102  C   -0.026109
   103  N   -0.421886
   104  C    0.079393
   105  C   -0.103155
   106  C   -0.075672
   107  C    0.085735
   108  C    0.009857
   109  C   -0.024263
   110  C   -0.038134
   111  N   -0.406703
   112  C    0.119736
   113  C   -0.211614
   114  C   -0.096413
   115  C    0.263437
   116  C    0.092509
   117  C    0.145483
   118  O   -0.217870
   119  C   -0.059298
   120  C    0.315791
   121  O   -0.277634
   122  O   -0.382214
   123  C    0.152218
   124  H   -0.009080
   125  H   -0.035063
   126  H   -0.015895
   127  H    0.049466
   128  H    0.045657
   129  H    0.043701
   130  H    0.040420
   131  H    0.046400
   132  H    0.038339
   133  H    0.048333
   134  H    0.063101
   135  H    0.056403
   136  H    0.065391
   137  H    0.023024
   138  H    0.044083
   139  H    0.073633
   140  H    0.060917
   141  H    0.052780
   142  H    0.044431
   143  H    0.036137
   144  H    0.037590
   145  H    0.038513
   146  H    0.031780
   147  H    0.048508
   148  H    0.025113
   149  H    0.051614
   150  H    0.041619
   151  H    0.037707
   152  H    0.034751
   153  H    0.054935
   154  H    0.066674
   155  H    0.059796
   156  H    0.069370
   157  H    0.033798
   158  H    0.052217
 Sum of Mulliken charges =  -0.00000

 Dipole moment (field-independent basis, Debye):
    X=             -0.7569    Y=              2.3903    Z=             -3.6954  Tot=              4.4657
 Quadrupole moment (field-independent basis, Debye-Ang):
   XX=           -220.0398   YY=           -559.1036   ZZ=           -510.9221
   XY=             55.6177   XZ=            -83.9193   YZ=              7.4167

 Normal termination of Gaussian 16 at Sat Sep 18 16:14:30 2021.
