 Gaussian 16, Revision A.03,
 Gaussian 16:  ES64L-G16RevA.03 25-Dec-2016

 --------------------------------
 #p wB97XD/Def2SVP td=(nstates=5)
 --------------------------------

 --------------------------------
 TDDFT excited states in gaussian
 --------------------------------
 Symbolic Z-matrix:
 Charge =  0 Multiplicity = 1

                         Standard orientation:
 ---------------------------------------------------------------------
 Center     Atomic      Atomic             Coordinates (Angstroms)
 Number     Number       Type             X           Y           Z
 ---------------------------------------------------------------------
      1         12           0        9.244489   -0.347422   -0.287977
      2          6           0        7.146945    2.307342   -0.384170
      3          6           0       11.788285    1.704929    0.887481
      4          6           0       11.343970   -3.001762   -0.197789
      5          6           0        6.875660   -2.279816   -1.912031
      6          7           0        9.341733    1.682109    0.264380
      7          6           0        8.387437    2.636786    0.125454
      8          6           0        8.774011    3.936668    0.781402
      9          6           0       10.338014    3.812464    0.929648
     10          6           0       10.499942    2.273422    0.704068
     11          6           0       11.300541    4.725099    0.060511
     12          6           0        8.100110    4.097874    2.217934
     13          6           0        7.969659    5.587740    2.651661
     14          1           0        8.932231    6.670947    2.136625
     15          7           0       11.335202   -0.642452    0.191872
     16          6           0       12.190433    0.381609    0.676716
     17          6           0       13.484521   -0.167678    0.948594
     18          6           0       13.393230   -1.567177    0.619928
     19          6           0       11.960820   -1.766334    0.197503
     20          6           0       14.619224    0.589250    1.544615
     21          6           0       14.462922   -2.650486    0.701043
     22          8           0       14.342053   -3.840099    0.285118
     23          6           0       15.815775   -2.317215    1.306784
     24          7           0        9.164731   -2.324373   -1.012134
     25          6           0       10.094624   -3.313082   -0.686673
     26          6           0        9.606796   -4.769472   -0.936114
     27          6           0        8.097335   -4.441316   -1.457282
     28          6           0        7.999992   -2.959733   -1.445723
     29          6           0       10.512149   -5.428147   -1.984887
     30          6           0        7.012938   -5.141585   -0.692669
     31          6           0        6.106838   -5.968589   -1.559275
     32          7           0        7.482868   -0.131510   -1.112875
     33          6           0        6.573401   -0.982017   -1.729137
     34          6           0        5.399880   -0.271229   -2.079245
     35          6           0        5.556566    1.064627   -1.621435
     36          6           0        6.792916    1.089703   -0.942210
     37          6           0        4.175269   -0.763340   -2.750118
     38          6           0        4.985327    2.393479   -1.637978
     39          8           0        3.992793    2.897447   -2.126189
     40          6           0        6.019832    3.223814   -0.739717
     41          6           0        6.263331    4.589588   -1.273160
     42          8           0        6.443958    4.890246   -2.425459
     43          8           0        6.231775    5.542284   -0.328393
     44          6           0        6.488014    6.920760   -0.834516
     45          1           0       12.552739    2.459997    1.082901
     46          1           0       12.068154   -3.814002   -0.287832
     47          1           0        6.035708   -2.843820   -2.322744
     48          1           0        8.636320    4.793132    0.121606
     49          1           0       10.593777    3.964978    1.977692
     50          1           0       10.671671    5.428156   -0.485814
     51          1           0       11.970187    4.229751   -0.640769
     52          1           0       11.968258    5.224962    0.762474
     53          1           0        8.736551    3.508609    2.878326
     54          1           0        7.109180    3.647346    2.160193
     55          1           0        8.040637    5.517020    3.737202
     56          1           0        6.931613    5.865024    2.470071
     57          1           0       14.600610    0.696680    2.629195
     58          1           0       14.612826    1.556249    1.043217
     59          1           0       15.593866    0.235424    1.209803
     60          1           0       16.395396   -1.859241    0.505429
     61          1           0       16.251856   -3.282747    1.561886
     62          1           0       15.767970   -1.626883    2.149143
     63          1           0        9.740753   -5.295974    0.008924
     64          1           0        8.008496   -4.782702   -2.489176
     65          1           0       11.225880   -4.769114   -2.479661
     66          1           0        9.893410   -6.006122   -2.670924
     67          1           0       11.148581   -6.119653   -1.431975
     68          1           0        6.329075   -4.456776   -0.191030
     69          1           0        7.366904   -5.790035    0.108880
     70          1           0        5.951395   -6.976895   -1.176600
     71          1           0        6.508162   -6.073687   -2.566891
     72          1           0        5.209968   -5.357234   -1.663360
     73          1           0        4.313086   -1.578267   -3.461375
     74          1           0        3.939344    0.038089   -3.450818
     75          1           0        3.416127   -1.008374   -2.007233
     76          1           0        5.373270    3.326012    0.132326
     77          1           0        5.614324    7.344114   -1.332069
     78          1           0        7.413388    6.979294   -1.407785
     79          1           0        6.674979    7.566560    0.023789
     80         12           0       -8.774337   -0.993498    0.557687
     81          6           0      -10.080826    2.061757   -0.561809
     82          6           0       -7.173364    0.727191    3.073700
     83          6           0       -7.532061   -3.877390    1.573363
     84          6           0      -10.353604   -2.554472   -2.164807
     85          7           0       -8.750334    1.132289    1.180489
     86          6           0       -9.332678    2.250998    0.584351
     87          6           0       -9.305005    3.534161    1.504346
     88          6           0       -8.270705    3.072936    2.512910
     89          6           0       -8.038437    1.526246    2.258852
     90          6           0       -6.872100    3.802571    2.262317
     91          6           0      -10.755374    3.567934    2.162609
     92          6           0      -11.462326    4.988855    2.286317
     93          1           0      -10.421956    6.054600    2.518449
     94          7           0       -7.445098   -1.456506    1.980605
     95          6           0       -6.897037   -0.659385    2.893475
     96          6           0       -6.049594   -1.370899    3.813403
     97          6           0       -6.265543   -2.733663    3.528059
     98          6           0       -7.081986   -2.745658    2.256200
     99          6           0       -5.214513   -0.766055    4.881817
    100          6           0       -5.890147   -3.973920    4.312604
    101          8           0       -6.363868   -5.090027    4.071157
    102          6           0       -4.802623   -3.896938    5.387759
    103          7           0       -8.899116   -2.952312   -0.248307
    104          6           0       -8.314629   -3.969849    0.468245
    105          6           0       -8.730111   -5.300182   -0.156222
    106          6           0       -9.760480   -4.894031   -1.319274
    107          6           0       -9.742891   -3.390461   -1.233793
    108          6           0       -7.454307   -6.118352   -0.564323
    109          6           0      -11.148330   -5.512366   -1.256478
    110          6           0      -11.586373   -6.209712   -2.582374
    111          7           0       -9.948409   -0.377755   -1.046149
    112          6           0      -10.517893   -1.140443   -2.113683
    113          6           0      -11.217194   -0.290331   -3.009658
    114          6           0      -11.062354    0.975075   -2.418895
    115          6           0      -10.248456    0.853695   -1.273522
    116          6           0      -11.990855   -0.603490   -4.249746
    117          6           0      -11.396012    2.359089   -2.529083
    118          8           0      -12.014493    2.991781   -3.352446
    119          6           0      -10.855238    3.078463   -1.261077
    120          6           0      -10.134155    4.309122   -1.676377
    121          8           0       -9.052325    4.386117   -2.251832
    122          8           0      -10.863289    5.345785   -1.252011
    123          6           0      -10.313787    6.667411   -1.470437
    124          1           0       -6.726152    1.120740    3.988749
    125          1           0       -7.080151   -4.796777    1.954059
    126          1           0      -10.911477   -3.005133   -2.988377
    127          1           0       -9.168576    4.368035    0.816460
    128          1           0       -8.640924    3.221950    3.526672
    129          1           0       -6.901314    4.474482    1.404313
    130          1           0       -6.114598    3.038408    2.089181
    131          1           0       -6.680252    4.330602    3.196448
    132          1           0      -10.776307    3.176178    3.179129
    133          1           0      -11.368775    2.884341    1.575051
    134          1           0      -12.030287    5.054381    3.214414
    135          1           0      -12.233459    5.119806    1.526728
    136          1           0       -5.661753   -1.065398    5.830673
    137          1           0       -5.234678    0.321881    4.835448
    138          1           0       -4.175702   -1.093881    4.856934
    139          1           0       -4.543037   -4.953039    5.457313
    140          1           0       -5.140818   -3.464850    6.330319
    141          1           0       -3.861496   -3.420464    5.113909
    142          1           0       -9.258811   -5.987188    0.504473
    143          1           0       -9.318606   -5.167703   -2.277459
    144          1           0       -7.632722   -7.134206   -0.211570
    145          1           0       -6.520829   -5.702308   -0.185208
    146          1           0       -7.438552   -6.316876   -1.636626
    147          1           0      -11.936352   -4.816958   -0.969174
    148          1           0      -11.028308   -6.353575   -0.572328
    149          1           0      -10.762463   -6.233822   -3.295786
    150          1           0      -12.315689   -5.612491   -3.129290
    151          1           0      -11.928433   -7.228694   -2.400172
    152          1           0      -12.895551   -1.042542   -3.828291
    153          1           0      -11.356452   -1.249847   -4.855861
    154          1           0      -12.293752    0.292213   -4.790203
    155          1           0      -11.764851    3.423534   -0.767710
    156          1           0      -10.066087    6.797953   -2.524233
    157          1           0       -9.372814    6.897424   -0.969534
    158          1           0      -11.094750    7.370245   -1.179664
 ---------------------------------------------------------------------

 SCF Done:  E(RwB97XD) =  -4070.63552211     A.U. after   19 cycles

 Excitation energies and oscillator strengths:

 Excited State   1:      Singlet-A      1.5873 eV  781.08 nm  f=0.4199  <S**2>=0.000
     309 -> 315       -0.17563
     311 -> 313        0.68615
     309 <- 315       -0.11657
 This state for optimization and/or second-order correction.
 Total Energy, E(TD-HF/TD-DFT) =  -4070.57718809
 Copying the excited state density for this state as the 1-particle RhoCI density.

 Excited State   2:      Singlet-A      1.6801 eV  737.97 nm  f=0.3611  <S**2>=0.000
     310 -> 316        0.16540
     312 -> 314        0.68517
     310 <- 316        0.10504

 Excited State   3:      Singlet-A      2.1694 eV  571.50 nm  f=0.1012  <S**2>=0.000
     309 -> 313        0.63582
     311 -> 315        0.29418

 Excited State   4:      Singlet-A      2.2331 eV  555.20 nm  f=0.1210  <S**2>=0.000
     310 -> 314        0.63510
     312 -> 316       -0.28372

 Excited State   5:      Singlet-A      3.4147 eV  363.09 nm  f=0.0000  <S**2>=0.000
     312 -> 313        0.70668

 The electronic state is 1-A.
 Alpha  occ. eigenvalues --  -46.94028 -46.93542 -19.30395 -19.30330 -19.24965
 Alpha  occ. eigenvalues --  -19.24299 -19.23711 -19.23603 -19.23582 -19.22288
 Alpha  occ. eigenvalues --  -14.47499 -14.46762 -14.46331 -14.46145 -14.44776
 Alpha  occ. eigenvalues --  -14.44145 -14.43434 -14.42942 -10.42437 -10.42022
 Alpha  occ. eigenvalues --  -10.40228 -10.39250 -10.39192 -10.37005 -10.35910
 Alpha  occ. eigenvalues --  -10.35835 -10.35413 -10.35067 -10.34987 -10.34968
 Alpha  occ. eigenvalues --  -10.34751 -10.34665 -10.34658 -10.34548 -10.34372
 Alpha  occ. eigenvalues --  -10.34151 -10.33979 -10.33927 -10.33393 -10.33219
 Alpha  occ. eigenvalues --  -10.32995 -10.32921 -10.32888 -10.32867 -10.32786
 Alpha  occ. eigenvalues --  -10.32411 -10.32343 -10.32296 -10.32221 -10.32142
 Alpha  occ. eigenvalues --  -10.32095 -10.31944 -10.31937 -10.31868 -10.31792
 Alpha  occ. eigenvalues --  -10.31762 -10.31631 -10.31620 -10.31576 -10.31550
 Alpha  occ. eigenvalues --  -10.31543 -10.31341 -10.31174 -10.31042 -10.31030
 Alpha  occ. eigenvalues --  -10.31019 -10.30711 -10.30608 -10.30526 -10.30507
 Alpha  occ. eigenvalues --  -10.30077 -10.30064 -10.30004 -10.29875 -10.29789
 Alpha  occ. eigenvalues --  -10.29714 -10.29661 -10.29541 -10.29532 -10.29531
 Alpha  occ. eigenvalues --  -10.29470 -10.29355 -10.29313 -10.29179 -10.28952
 Alpha  occ. eigenvalues --  -10.27458  -3.20146  -3.19792  -1.93753  -1.93382
 Alpha  occ. eigenvalues --   -1.93256  -1.93150  -1.92906  -1.92814  -1.19498
 Alpha  occ. eigenvalues --   -1.19148  -1.12582  -1.12402  -1.11442  -1.09654
 Alpha  occ. eigenvalues --   -1.09470  -1.09126  -1.07000  -1.06554  -1.05813
 Alpha  occ. eigenvalues --   -1.05635  -1.04831  -1.04760  -1.04273  -1.03456
 Alpha  occ. eigenvalues --   -0.95389  -0.94503  -0.91618  -0.91539  -0.90761
 Alpha  occ. eigenvalues --   -0.90490  -0.90345  -0.90197  -0.89824  -0.89627
 Alpha  occ. eigenvalues --   -0.89200  -0.88855  -0.88502  -0.88386  -0.86268
 Alpha  occ. eigenvalues --   -0.85787  -0.85759  -0.85339  -0.84414  -0.84196
 Alpha  occ. eigenvalues --   -0.83704  -0.83625  -0.83124  -0.83032  -0.82495
 Alpha  occ. eigenvalues --   -0.82240  -0.80844  -0.80339  -0.79739  -0.79307
 Alpha  occ. eigenvalues --   -0.79261  -0.78584  -0.78492  -0.77406  -0.77186
 Alpha  occ. eigenvalues --   -0.76831  -0.75002  -0.74905  -0.73847  -0.73304
 Alpha  occ. eigenvalues --   -0.71108  -0.71097  -0.70720  -0.70627  -0.70189
 Alpha  occ. eigenvalues --   -0.69532  -0.69247  -0.68716  -0.67823  -0.67339
 Alpha  occ. eigenvalues --   -0.67283  -0.67083  -0.66912  -0.66808  -0.66397
 Alpha  occ. eigenvalues --   -0.66114  -0.64355  -0.64331  -0.62759  -0.62363
 Alpha  occ. eigenvalues --   -0.61920  -0.61452  -0.61066  -0.60969  -0.60518
 Alpha  occ. eigenvalues --   -0.60396  -0.59994  -0.59751  -0.59613  -0.59196
 Alpha  occ. eigenvalues --   -0.58595  -0.58106  -0.57473  -0.57380  -0.57225
 Alpha  occ. eigenvalues --   -0.57187  -0.57016  -0.56256  -0.55890  -0.55671
 Alpha  occ. eigenvalues --   -0.55424  -0.55322  -0.55088  -0.54985  -0.54841
 Alpha  occ. eigenvalues --   -0.54499  -0.54473  -0.54398  -0.54387  -0.54132
 Alpha  occ. eigenvalues --   -0.53993  -0.53938  -0.53589  -0.53268  -0.53129
 Alpha  occ. eigenvalues --   -0.53119  -0.52961  -0.52607  -0.52267  -0.52266
 Alpha  occ. eigenvalues --   -0.52151  -0.52040  -0.51957  -0.51879  -0.51619
 Alpha  occ. eigenvalues --   -0.51448  -0.51121  -0.50978  -0.50827  -0.50532
 Alpha  occ. eigenvalues --   -0.50411  -0.50368  -0.50342  -0.50167  -0.49933
 Alpha  occ. eigenvalues --   -0.49784  -0.49706  -0.49478  -0.49386  -0.49284
 Alpha  occ. eigenvalues --   -0.49161  -0.49020  -0.48660  -0.48576  -0.48558
 Alpha  occ. eigenvalues --   -0.48371  -0.48325  -0.48225  -0.47925  -0.47873
 Alpha  occ. eigenvalues --   -0.47176  -0.47124  -0.46882  -0.46843  -0.46744
 Alpha  occ. eigenvalues --   -0.46546  -0.46511  -0.46394  -0.46305  -0.46140
 Alpha  occ. eigenvalues --   -0.46022  -0.45856  -0.45612  -0.45534  -0.45500
 Alpha  occ. eigenvalues --   -0.45238  -0.45147  -0.44886  -0.44847  -0.44444
 Alpha  occ. eigenvalues --   -0.44393  -0.44287  -0.44183  -0.44005  -0.43874
 Alpha  occ. eigenvalues --   -0.43762  -0.43448  -0.43376  -0.42987  -0.42951
 Alpha  occ. eigenvalues --   -0.42874  -0.42619  -0.42536  -0.42363  -0.42316
 Alpha  occ. eigenvalues --   -0.42234  -0.41959  -0.41904  -0.41542  -0.40635
 Alpha  occ. eigenvalues --   -0.40250  -0.40124  -0.39921  -0.39668  -0.39529
 Alpha  occ. eigenvalues --   -0.39281  -0.39204  -0.39017  -0.38798  -0.38670
 Alpha  occ. eigenvalues --   -0.38352  -0.38217  -0.36652  -0.36236  -0.36139
 Alpha  occ. eigenvalues --   -0.35770  -0.35455  -0.34867  -0.34254  -0.33710
 Alpha  occ. eigenvalues --   -0.33508  -0.33034  -0.32839  -0.32673  -0.32163
 Alpha  occ. eigenvalues --   -0.31786  -0.31586  -0.31214  -0.26265  -0.25964
 Alpha  occ. eigenvalues --   -0.22869  -0.22792
 Alpha virt. eigenvalues --   -0.07354  -0.06845   0.00262   0.00309   0.02140
 Alpha virt. eigenvalues --    0.02611   0.04307   0.05049   0.06071   0.06534
 Alpha virt. eigenvalues --    0.07385   0.07813   0.08006   0.08216   0.08536

 Mulliken charges:
               1
     1  Mg   0.985394
     2  C    0.012603
     3  C   -0.095395
     4  C   -0.062382
     5  C   -0.128091
     6  N   -0.378523
     7  C   -0.008344
     8  C   -0.043331
     9  C   -0.121973
    10  C    0.057914
    11  C    0.021183
    12  C    0.005263
    13  C   -0.092359
    14  H    0.043770
    15  N   -0.389468
    16  C    0.163730
    17  C   -0.155440
    18  C   -0.073752
    19  C    0.100044
    20  C    0.064813
    21  C    0.052921
    22  O   -0.274736
    23  C   -0.022276
    24  N   -0.392042
    25  C    0.057720
    26  C   -0.092172
    27  C   -0.027199
    28  C    0.109073
    29  C    0.008971
    30  C   -0.008365
    31  C   -0.063031
    32  N   -0.527513
    33  C    0.189650
    34  C   -0.191349
    35  C   -0.054958
    36  C    0.141417
    37  C    0.072746
    38  C    0.153005
    39  O   -0.182419
    40  C   -0.107000
    41  C    0.224397
    42  O   -0.229521
    43  O   -0.358978
    44  C    0.140753
    45  H   -0.003577
    46  H    0.017304
    47  H   -0.016739
    48  H    0.024706
    49  H    0.035276
    50  H    0.042435
    51  H    0.048569
    52  H    0.037192
    53  H    0.035565
    54  H    0.041125
    55  H    0.043889
    56  H    0.060473
    57  H    0.073695
    58  H    0.034924
    59  H    0.031944
    60  H    0.066762
    61  H    0.059200
    62  H    0.050396
    63  H    0.055895
    64  H    0.035461
    65  H    0.060834
    66  H    0.037329
    67  H    0.041352
    68  H    0.032846
    69  H    0.028115
    70  H    0.043755
    71  H    0.022582
    72  H    0.037664
    73  H    0.027264
    74  H    0.062147
    75  H    0.068149
    76  H    0.068745
    77  H    0.071130
    78  H    0.058683
    79  H    0.040161
    80  Mg   0.984001
    81  C    0.006701
    82  C   -0.113054
    83  C   -0.076156
    84  C   -0.074115
    85  N   -0.350840
    86  C   -0.048796
    87  C   -0.050118
    88  C   -0.098210
    89  C    0.098195
    90  C    0.023348
    91  C    0.001870
    92  C   -0.115006
    93  H    0.032042
    94  N   -0.466366
    95  C    0.154063
    96  C   -0.174128
    97  C   -0.070558
    98  C    0.138093
    99  C    0.077793
   100  C    0.062678
   101  O   -0.243788
   102  C   -0.045356
   103  N   -0.389845
   104  C    0.116296
   105  C   -0.106873
   106  C   -0.048808
   107  C    0.073260
   108  C    0.010049
   109  C    0.001516
   110  C   -0.071400
   111  N   -0.414244
   112  C    0.082256
   113  C   -0.193207
   114  C   -0.037891
   115  C    0.139459
   116  C    0.088149
   117  C    0.083383
   118  O   -0.205243
   119  C   -0.074338
   120  C    0.226036
   121  O   -0.256150
   122  O   -0.334080
   123  C    0.142380
   124  H   -0.000269
   125  H    0.028079
   126  H   -0.008115
   127  H    0.050046
   128  H    0.039727
   129  H    0.052548
   130  H    0.044164
   131  H    0.039844
   132  H    0.030774
   133  H    0.043219
   134  H    0.042548
   135  H    0.062648
   136  H    0.052853
   137  H    0.041256
   138  H    0.058234
   139  H    0.058156
   140  H    0.065292
   141  H    0.052644
   142  H    0.043005
   143  H    0.032440
   144  H    0.027343
   145  H    0.060762
   146  H    0.025906
   147  H    0.049316
   148  H    0.027982
   149  H    0.020917
   150  H    0.037447
   151  H    0.045591
   152  H    0.054057
   153  H    0.053009
   154  H    0.061583
   155  H    0.066947
   156  H    0.054937
   157  H    0.045393
   158  H    0.056721
 Sum of Mulliken charges =  -0.00000

 Dipole moment (field-independent basis, Debye):
    X=              3.6271    Y=             -0.1253    Z=              9.7369  Tot=             10.3913
 Quadrupole moment (field-independent basis, Debye-Ang):
   XX=           -499.4382   YY=           -479.7113   ZZ=           -511.9722
   XY=             58.3784   XZ=             -7.8969   YZ=             51.8328

 Normal termination of Gaussian 16 at Mon Sep 20 00:20:23 2021.
