 Gaussian 16, Revision A.03,
 Gaussian 16:  ES64L-G16RevA.03 25-Dec-2016

 --------------------------------
 #p wB97XD/Def2SVP td=(nstates=5)
 --------------------------------

 --------------------------------
 TDDFT excited states in gaussian
 --------------------------------
 Symbolic Z-matrix:
 Charge =  0 Multiplicity = 1

                         Standard orientation:
 ---------------------------------------------------------------------
 Center     Atomic      Atomic             Coordinates (Angstroms)
 Number     Number       Type             X           Y           Z
 ---------------------------------------------------------------------
      1         12           0       12.706423   -0.717298   -0.338812
      2          6           0       14.837091    1.936062   -0.116134
      3          6           0       10.002045    1.529299    0.052420
      4          6           0       10.592933   -3.314606   -0.319287
      5          6           0       15.406814   -2.794434   -0.777183
      6          7           0       12.445488    1.410744    0.246789
      7          6           0       13.500052    2.328666    0.160907
      8          6           0       13.021650    3.788246    0.403212
      9          6           0       11.495354    3.528204    0.508067
     10          6           0       11.276592    2.037772    0.320760
     11          6           0       10.644120    4.058175    1.739549
     12          6           0       13.386281    4.857704   -0.718329
     13          6           0       12.825217    6.265467   -0.382331
     14          1           0       13.907765    7.265199    0.026904
     15          7           0       10.534645   -0.858105   -0.201937
     16          6           0        9.650051    0.195492   -0.286525
     17          6           0        8.321060   -0.395537   -0.182261
     18          6           0        8.509102   -1.811543   -0.283803
     19          6           0        9.914594   -2.069762   -0.297108
     20          6           0        7.113942    0.456439   -0.094963
     21          6           0        7.326696   -2.839689   -0.210207
     22          8           0        7.487739   -4.070578   -0.084082
     23          6           0        5.902342   -2.349087   -0.214233
     24          7           0       12.948378   -2.652274   -0.483442
     25          6           0       11.895441   -3.609005   -0.441369
     26          6           0       12.442977   -5.009514   -0.284305
     27          6           0       13.830170   -4.818210   -0.894458
     28          6           0       14.096905   -3.324611   -0.773094
     29          6           0       12.492657   -5.483285    1.207112
     30          6           0       13.881105   -5.190455   -2.393165
     31          6           0       14.119784   -6.628753   -2.767084
     32          7           0       14.762619   -0.581713   -0.403586
     33          6           0       15.729515   -1.452535   -0.735065
     34          6           0       17.000140   -0.791132   -0.691461
     35          6           0       16.721329    0.541583   -0.474764
     36          6           0       15.326768    0.634810   -0.346484
     37          6           0       18.282187   -1.499773   -0.958147
     38          6           0       17.319134    1.801494   -0.345145
     39          8           0       18.478170    2.159595   -0.427467
     40          6           0       16.089588    2.796564   -0.101025
     41          6           0       16.328547    3.511266    1.181678
     42          8           0       16.327109    3.037773    2.291896
     43          8           0       16.410405    4.831549    0.991861
     44          6           0       16.600576    5.678048    2.232239
     45          1           0        9.222793    2.293413    0.019828
     46          1           0        9.915579   -4.170947   -0.321250
     47          1           0       16.299758   -3.366273   -1.036793
     48          1           0       13.408783    4.122203    1.365919
     49          1           0       10.993710    3.963244   -0.356856
     50          1           0        9.634516    4.403852    1.515910
     51          1           0       11.248639    4.737541    2.340745
     52          1           0       10.460486    3.164306    2.335534
     53          1           0       12.995954    4.407052   -1.630005
     54          1           0       14.471755    4.900824   -0.806758
     55          1           0       12.007842    6.178662    0.333536
     56          1           0       12.402834    6.656879   -1.307332
     57          1           0        6.693284    0.338466    0.903835
     58          1           0        6.498630    0.186328   -0.953191
     59          1           0        7.366204    1.503472   -0.263467
     60          1           0        5.218216   -3.197646   -0.219597
     61          1           0        5.788564   -1.890739   -1.197573
     62          1           0        5.620881   -1.637589    0.561631
     63          1           0       11.839396   -5.732587   -0.833599
     64          1           0       14.613710   -5.363117   -0.368318
     65          1           0       13.301661   -4.993586    1.747757
     66          1           0       12.601354   -6.567061    1.256303
     67          1           0       11.523938   -5.213316    1.626141
     68          1           0       14.594327   -4.589127   -2.955491
     69          1           0       12.957234   -4.873053   -2.876917
     70          1           0       13.254446   -6.945747   -3.348454
     71          1           0       14.022817   -7.147964   -1.813481
     72          1           0       15.084387   -6.821569   -3.236901
     73          1           0       18.585609   -1.356588   -1.994497
     74          1           0       18.376589   -2.538872   -0.641274
     75          1           0       19.025698   -0.968426   -0.363788
     76          1           0       16.060002    3.510352   -0.924590
     77          1           0       15.833096    5.374110    2.944405
     78          1           0       16.452537    6.743260    2.052811
     79          1           0       17.600189    5.478972    2.619185
     80         12           0      -13.041691   -0.626803    0.326134
     81          6           0      -13.587244    2.507313   -1.191069
     82          6           0      -11.775873    1.100263    3.038988
     83          6           0      -12.344584   -3.590599    1.870331
     84          6           0      -13.975701   -2.177230   -2.501068
     85          7           0      -12.748381    1.585871    0.880120
     86          6           0      -13.165402    2.706693    0.172269
     87          6           0      -13.075387    3.945059    1.041241
     88          6           0      -12.159392    3.491507    2.235558
     89          6           0      -12.250420    1.993961    2.046329
     90          6           0      -10.699817    4.093803    2.247185
     91          6           0      -14.437915    4.408764    1.577571
     92          6           0      -14.625654    5.926718    1.672130
     93          1           0      -13.808885    6.709602    2.737518
     94          7           0      -12.269686   -1.178185    2.215480
     95          6           0      -11.791155   -0.287935    3.114900
     96          6           0      -11.217740   -1.007382    4.205537
     97          6           0      -11.469657   -2.410160    4.016366
     98          6           0      -11.991247   -2.437031    2.661265
     99          6           0      -10.535687   -0.313178    5.351605
    100          6           0      -11.144694   -3.630540    4.877930
    101          8           0      -11.600353   -4.764369    4.610806
    102          6           0      -10.188835   -3.567174    6.063840
    103          7           0      -13.230380   -2.576532   -0.199192
    104          6           0      -12.817564   -3.667864    0.559213
    105          6           0      -13.007102   -4.915654   -0.240735
    106          6           0      -13.600178   -4.547825   -1.648295
    107          6           0      -13.663721   -3.022562   -1.467401
    108          6           0      -11.773992   -5.868243   -0.263641
    109          6           0      -14.983197   -5.155298   -1.968276
    110          6           0      -14.908493   -6.449692   -2.800993
    111          7           0      -13.606740   -0.039830   -1.475846
    112          6           0      -14.043642   -0.766497   -2.582548
    113          6           0      -14.513978    0.119364   -3.711184
    114          6           0      -14.294952    1.392166   -3.159695
    115          6           0      -13.809965    1.256776   -1.819211
    116          6           0      -15.060156   -0.328724   -5.054575
    117          6           0      -14.427014    2.804509   -3.484066
    118          8           0      -14.792003    3.365413   -4.518096
    119          6           0      -14.074834    3.566530   -2.136588
    120          6           0      -13.017889    4.617015   -2.530461
    121          8           0      -12.098548    4.459511   -3.307111
    122          8           0      -13.383512    5.842665   -1.977168
    123          6           0      -12.443859    6.917155   -2.298052
    124          1           0      -11.457314    1.677507    3.909265
    125          1           0      -12.169529   -4.591369    2.270102
    126          1           0      -14.143942   -2.751044   -3.414410
    127          1           0      -12.596421    4.800186    0.564955
    128          1           0      -12.531517    3.763698    3.223286
    129          1           0      -10.497370    4.850726    1.488890
    130          1           0       -9.881062    3.391391    2.092959
    131          1           0      -10.507073    4.618033    3.183220
    132          1           0      -14.636563    3.995009    2.565962
    133          1           0      -15.242162    4.088473    0.914923
    134          1           0      -15.675342    6.201044    1.776091
    135          1           0      -14.391074    6.413321    0.725631
    136          1           0       -9.863645    0.367476    4.828734
    137          1           0       -9.907949   -0.915067    6.008541
    138          1           0      -11.194846    0.280177    5.984865
    139          1           0       -9.255166   -3.078762    5.784395
    140          1           0      -10.060864   -4.622301    6.305127
    141          1           0      -10.616966   -2.989667    6.883155
    142          1           0      -13.670894   -5.557167    0.339667
    143          1           0      -12.936560   -4.733282   -2.493861
    144          1           0      -10.966973   -5.377547    0.280886
    145          1           0      -11.458031   -6.008180   -1.297068
    146          1           0      -12.125669   -6.764436    0.248591
    147          1           0      -15.594800   -4.359674   -2.393168
    148          1           0      -15.468627   -5.513795   -1.060301
    149          1           0      -13.937082   -6.923759   -2.659196
    150          1           0      -14.960168   -6.337522   -3.884134
    151          1           0      -15.662407   -7.138071   -2.417941
    152          1           0      -16.057938   -0.730599   -4.877544
    153          1           0      -14.496891   -1.117250   -5.553242
    154          1           0      -15.106943    0.571632   -5.666961
    155          1           0      -14.908114    4.070985   -1.647797
    156          1           0      -11.626073    7.037574   -1.586901
    157          1           0      -13.074331    7.804959   -2.345123
    158          1           0      -11.889319    6.876462   -3.235551
 ---------------------------------------------------------------------

 SCF Done:  E(RwB97XD) =  -4070.66204591     A.U. after   18 cycles

 Excitation energies and oscillator strengths:

 Excited State   1:      Singlet-A      1.5970 eV  776.37 nm  f=0.4023  <S**2>=0.000
     309 -> 316       -0.16553
     311 -> 313        0.68788
     309 <- 316       -0.11230
 This state for optimization and/or second-order correction.
 Total Energy, E(TD-HF/TD-DFT) =  -4070.60335823
 Copying the excited state density for this state as the 1-particle RhoCI density.

 Excited State   2:      Singlet-A      1.6478 eV  752.43 nm  f=0.3649  <S**2>=0.000
     310 -> 315        0.19170
     312 -> 314        0.68104
     310 <- 315        0.11852

 Excited State   3:      Singlet-A      2.1798 eV  568.79 nm  f=0.0907  <S**2>=0.000
     310 -> 314        0.63390
     312 -> 315       -0.30013

 Excited State   4:      Singlet-A      2.1949 eV  564.87 nm  f=0.1099  <S**2>=0.000
     309 -> 313        0.63695
     311 -> 316        0.28935

 Excited State   5:      Singlet-A      3.2159 eV  385.54 nm  f=0.0018  <S**2>=0.000
     308 -> 313        0.67723

 The electronic state is 1-A.
 Alpha  occ. eigenvalues --  -46.94026 -46.93884 -19.31031 -19.30185 -19.25384
 Alpha  occ. eigenvalues --  -19.24521 -19.24296 -19.24173 -19.23733 -19.23581
 Alpha  occ. eigenvalues --  -14.47368 -14.47325 -14.46398 -14.45912 -14.44527
 Alpha  occ. eigenvalues --  -14.44137 -14.43509 -14.43466 -10.43584 -10.42412
 Alpha  occ. eigenvalues --  -10.39888 -10.39198 -10.39135 -10.39033 -10.36171
 Alpha  occ. eigenvalues --  -10.36102 -10.35491 -10.35434 -10.35278 -10.34943
 Alpha  occ. eigenvalues --  -10.34867 -10.34829 -10.34556 -10.34348 -10.34317
 Alpha  occ. eigenvalues --  -10.34057 -10.33693 -10.33571 -10.33496 -10.33285
 Alpha  occ. eigenvalues --  -10.33230 -10.33124 -10.33065 -10.33054 -10.32955
 Alpha  occ. eigenvalues --  -10.32924 -10.32873 -10.32743 -10.32707 -10.32682
 Alpha  occ. eigenvalues --  -10.32629 -10.32479 -10.32303 -10.32179 -10.31926
 Alpha  occ. eigenvalues --  -10.31900 -10.31827 -10.31723 -10.31548 -10.31422
 Alpha  occ. eigenvalues --  -10.31383 -10.31345 -10.31253 -10.31202 -10.31186
 Alpha  occ. eigenvalues --  -10.31058 -10.30757 -10.30702 -10.30532 -10.30448
 Alpha  occ. eigenvalues --  -10.30410 -10.30341 -10.30283 -10.30283 -10.30117
 Alpha  occ. eigenvalues --  -10.30068 -10.30009 -10.29756 -10.29710 -10.29619
 Alpha  occ. eigenvalues --  -10.29551 -10.29542 -10.29518 -10.29393 -10.29131
 Alpha  occ. eigenvalues --  -10.28917  -3.20220  -3.20070  -1.93814  -1.93669
 Alpha  occ. eigenvalues --   -1.93325  -1.93237  -1.93214  -1.93044  -1.19134
 Alpha  occ. eigenvalues --   -1.18509  -1.12764  -1.11487  -1.11193  -1.10487
 Alpha  occ. eigenvalues --   -1.10425  -1.09389  -1.07549  -1.06763  -1.05964
 Alpha  occ. eigenvalues --   -1.05781  -1.05125  -1.05112  -1.04006  -1.03481
 Alpha  occ. eigenvalues --   -0.95389  -0.94579  -0.91338  -0.90971  -0.90949
 Alpha  occ. eigenvalues --   -0.90701  -0.90581  -0.90243  -0.89904  -0.89434
 Alpha  occ. eigenvalues --   -0.89147  -0.89025  -0.88515  -0.88121  -0.86365
 Alpha  occ. eigenvalues --   -0.86314  -0.85874  -0.85468  -0.84451  -0.84254
 Alpha  occ. eigenvalues --   -0.83699  -0.83531  -0.83200  -0.82955  -0.82610
 Alpha  occ. eigenvalues --   -0.82083  -0.80468  -0.80373  -0.79508  -0.79418
 Alpha  occ. eigenvalues --   -0.79239  -0.79177  -0.78181  -0.78131  -0.77167
 Alpha  occ. eigenvalues --   -0.77038  -0.75261  -0.74711  -0.73816  -0.73671
 Alpha  occ. eigenvalues --   -0.71461  -0.71388  -0.70961  -0.70766  -0.70247
 Alpha  occ. eigenvalues --   -0.70200  -0.69362  -0.68082  -0.67802  -0.67763
 Alpha  occ. eigenvalues --   -0.67478  -0.66907  -0.66671  -0.66523  -0.66203
 Alpha  occ. eigenvalues --   -0.66186  -0.64597  -0.64137  -0.62402  -0.62241
 Alpha  occ. eigenvalues --   -0.62186  -0.62054  -0.61159  -0.60978  -0.60903
 Alpha  occ. eigenvalues --   -0.60511  -0.60352  -0.60029  -0.59745  -0.59533
 Alpha  occ. eigenvalues --   -0.58562  -0.58071  -0.58031  -0.57496  -0.57124
 Alpha  occ. eigenvalues --   -0.57051  -0.56720  -0.56586  -0.56243  -0.55796
 Alpha  occ. eigenvalues --   -0.55465  -0.55414  -0.55357  -0.55121  -0.54863
 Alpha  occ. eigenvalues --   -0.54855  -0.54680  -0.54545  -0.54256  -0.54154
 Alpha  occ. eigenvalues --   -0.53818  -0.53760  -0.53734  -0.53624  -0.53301
 Alpha  occ. eigenvalues --   -0.53206  -0.52431  -0.52320  -0.52227  -0.52205
 Alpha  occ. eigenvalues --   -0.52034  -0.51961  -0.51863  -0.51758  -0.51711
 Alpha  occ. eigenvalues --   -0.51305  -0.51208  -0.51046  -0.50912  -0.50882
 Alpha  occ. eigenvalues --   -0.50717  -0.50439  -0.50225  -0.50198  -0.50050
 Alpha  occ. eigenvalues --   -0.50012  -0.49717  -0.49618  -0.49470  -0.49363
 Alpha  occ. eigenvalues --   -0.49115  -0.48867  -0.48820  -0.48630  -0.48493
 Alpha  occ. eigenvalues --   -0.48480  -0.48438  -0.48253  -0.47983  -0.47882
 Alpha  occ. eigenvalues --   -0.47871  -0.47490  -0.47477  -0.47250  -0.46875
 Alpha  occ. eigenvalues --   -0.46683  -0.46627  -0.46500  -0.46329  -0.46298
 Alpha  occ. eigenvalues --   -0.46206  -0.45710  -0.45700  -0.45558  -0.45516
 Alpha  occ. eigenvalues --   -0.45401  -0.45301  -0.45184  -0.45001  -0.44837
 Alpha  occ. eigenvalues --   -0.44676  -0.44343  -0.43939  -0.43890  -0.43765
 Alpha  occ. eigenvalues --   -0.43751  -0.43569  -0.43567  -0.43562  -0.43150
 Alpha  occ. eigenvalues --   -0.43132  -0.43011  -0.42857  -0.42581  -0.42430
 Alpha  occ. eigenvalues --   -0.42319  -0.42206  -0.41990  -0.41765  -0.41630
 Alpha  occ. eigenvalues --   -0.40634  -0.40340  -0.40277  -0.40063  -0.39897
 Alpha  occ. eigenvalues --   -0.39421  -0.39341  -0.39064  -0.38896  -0.38759
 Alpha  occ. eigenvalues --   -0.38696  -0.38598  -0.37188  -0.37002  -0.36284
 Alpha  occ. eigenvalues --   -0.36027  -0.35496  -0.35134  -0.33710  -0.33536
 Alpha  occ. eigenvalues --   -0.33319  -0.33192  -0.32980  -0.32838  -0.32721
 Alpha  occ. eigenvalues --   -0.32460  -0.32243  -0.31275  -0.26569  -0.25911
 Alpha  occ. eigenvalues --   -0.22954  -0.22926
 Alpha virt. eigenvalues --   -0.07453  -0.06955   0.00098   0.00342   0.02007
 Alpha virt. eigenvalues --    0.02418   0.03812   0.04444   0.06350   0.06742
 Alpha virt. eigenvalues --    0.07065   0.07270   0.07379   0.07969   0.08282

 Mulliken charges:
               1
     1  Mg   0.971083
     2  C   -0.006103
     3  C   -0.072498
     4  C   -0.076238
     5  C   -0.099549
     6  N   -0.340850
     7  C   -0.009415
     8  C   -0.022277
     9  C   -0.153769
    10  C    0.065446
    11  C    0.013365
    12  C   -0.006121
    13  C   -0.111477
    14  H    0.047905
    15  N   -0.435104
    16  C    0.162804
    17  C   -0.218479
    18  C   -0.077882
    19  C    0.134174
    20  C    0.083604
    21  C    0.066481
    22  O   -0.256618
    23  C   -0.006561
    24  N   -0.468543
    25  C    0.098651
    26  C   -0.069465
    27  C   -0.080641
    28  C    0.140185
    29  C    0.040753
    30  C   -0.043683
    31  C   -0.003963
    32  N   -0.427981
    33  C    0.106621
    34  C   -0.178868
    35  C    0.017678
    36  C    0.137101
    37  C    0.064734
    38  C    0.098715
    39  O   -0.191612
    40  C   -0.123554
    41  C    0.249202
    42  O   -0.247111
    43  O   -0.362844
    44  C    0.139194
    45  H   -0.004183
    46  H    0.019915
    47  H   -0.001688
    48  H    0.044433
    49  H    0.034776
    50  H    0.042174
    51  H    0.043347
    52  H    0.037570
    53  H    0.035493
    54  H    0.054694
    55  H    0.050895
    56  H    0.053039
    57  H    0.065602
    58  H    0.049440
    59  H    0.025689
    60  H    0.051254
    61  H    0.045878
    62  H    0.060568
    63  H    0.028123
    64  H    0.023073
    65  H    0.041788
    66  H    0.042140
    67  H    0.041526
    68  H    0.022371
    69  H    0.020672
    70  H    0.035382
    71  H    0.017878
    72  H    0.051281
    73  H    0.062441
    74  H    0.045015
    75  H    0.051495
    76  H    0.073896
    77  H    0.057929
    78  H    0.059958
    79  H    0.069648
    80  Mg   1.001501
    81  C   -0.064963
    82  C   -0.110854
    83  C   -0.083532
    84  C   -0.100696
    85  N   -0.307723
    86  C    0.022570
    87  C   -0.031917
    88  C   -0.097585
    89  C    0.018890
    90  C    0.008012
    91  C    0.023205
    92  C   -0.123376
    93  H    0.016909
    94  N   -0.427976
    95  C    0.224108
    96  C   -0.180564
    97  C   -0.042678
    98  C    0.127664
    99  C    0.061890
   100  C    0.049216
   101  O   -0.257446
   102  C   -0.023822
   103  N   -0.456718
   104  C    0.108974
   105  C   -0.100429
   106  C   -0.055388
   107  C    0.059380
   108  C    0.015931
   109  C    0.000224
   110  C   -0.055620
   111  N   -0.483418
   112  C    0.140248
   113  C   -0.167191
   114  C   -0.071856
   115  C    0.182763
   116  C    0.080928
   117  C    0.161367
   118  O   -0.208592
   119  C   -0.105918
   120  C    0.266251
   121  O   -0.223870
   122  O   -0.369601
   123  C    0.126421
   124  H   -0.009104
   125  H    0.016497
   126  H   -0.010404
   127  H    0.030530
   128  H    0.039943
   129  H    0.034148
   130  H    0.041724
   131  H    0.034221
   132  H    0.040724
   133  H    0.036970
   134  H    0.048596
   135  H    0.050310
   136  H    0.045977
   137  H    0.026928
   138  H    0.058724
   139  H    0.061349
   140  H    0.063906
   141  H    0.063671
   142  H    0.042849
   143  H    0.042942
   144  H    0.043664
   145  H    0.034153
   146  H    0.043698
   147  H    0.037015
   148  H    0.028072
   149  H    0.024614
   150  H    0.041183
   151  H    0.040974
   152  H    0.050606
   153  H    0.047768
   154  H    0.066131
   155  H    0.072925
   156  H    0.043075
   157  H    0.055726
   158  H    0.065173
 Sum of Mulliken charges =  -0.00000

 Dipole moment (field-independent basis, Debye):
    X=             -1.6297    Y=              2.5675    Z=              2.4932  Tot=              3.9324
 Quadrupole moment (field-independent basis, Debye-Ang):
   XX=           -614.0513   YY=           -476.3554   ZZ=           -517.4466
   XY=              3.2315   XZ=            -67.0821   YZ=             45.9907

 Normal termination of Gaussian 16 at Mon Sep 20 03:58:13 2021.
