 Gaussian 16, Revision A.03,
 Gaussian 16:  ES64L-G16RevA.03 25-Dec-2016

 --------------------------------
 #p wB97XD/Def2SVP td=(nstates=5)
 --------------------------------

 --------------------------------
 TDDFT excited states in gaussian
 --------------------------------
 Symbolic Z-matrix:
 Charge =  0 Multiplicity = 1

                         Standard orientation:
 ---------------------------------------------------------------------
 Center     Atomic      Atomic             Coordinates (Angstroms)
 Number     Number       Type             X           Y           Z
 ---------------------------------------------------------------------
      1         12           0      -17.179771   -0.778681    0.256704
      2          6           0      -16.989016    2.534202   -0.974132
      3          6           0      -16.135765    0.375965    3.251050
      4          6           0      -17.242596   -3.880834    1.301217
      5          6           0      -17.541460   -1.847400   -3.148420
      6          7           0      -16.508493    1.246899    1.063121
      7          6           0      -16.779896    2.441822    0.417929
      8          6           0      -16.635326    3.523335    1.433429
      9          6           0      -15.837255    2.885774    2.571154
     10          6           0      -16.173845    1.391846    2.336660
     11          6           0      -14.294290    3.141986    2.388622
     12          6           0      -18.004495    4.205972    1.973771
     13          6           0      -18.094762    5.750621    2.168113
     14          1           0      -16.941131    6.424992    2.965495
     15          7           0      -16.721166   -1.613230    2.070612
     16          6           0      -16.340895   -0.975879    3.138439
     17          6           0      -16.095822   -1.964273    4.203008
     18          6           0      -16.614170   -3.214152    3.747087
     19          6           0      -16.865979   -2.953874    2.301232
     20          6           0      -15.444226   -1.744713    5.616734
     21          6           0      -16.857991   -4.538563    4.469825
     22          8           0      -17.210560   -5.591316    3.904525
     23          6           0      -16.463763   -4.645987    5.866071
     24          7           0      -17.201822   -2.648339   -0.865582
     25          6           0      -17.338227   -3.828249   -0.138956
     26          6           0      -17.715470   -4.996619   -1.129333
     27          6           0      -17.929701   -4.264540   -2.477569
     28          6           0      -17.576467   -2.811503   -2.152284
     29          6           0      -16.708741   -6.147093   -1.107434
     30          6           0      -19.300444   -4.485106   -3.165490
     31          6           0      -19.317591   -4.641662   -4.703980
     32          7           0      -17.240345    0.099798   -1.683125
     33          6           0      -17.337789   -0.445461   -2.959406
     34          6           0      -17.491511    0.629568   -3.906318
     35          6           0      -17.303334    1.806172   -3.179586
     36          6           0      -17.162625    1.462317   -1.806783
     37          6           0      -17.789706    0.517611   -5.273365
     38          6           0      -17.285947    3.275006   -3.244565
     39          8           0      -17.450636    4.066658   -4.159194
     40          6           0      -17.102839    3.803292   -1.784166
     41          6           0      -15.871075    4.690955   -1.776852
     42          8           0      -14.685526    4.468453   -1.679027
     43          8           0      -16.426939    5.937323   -1.804115
     44          6           0      -15.556341    7.088411   -1.465678
     45          1           0      -15.884199    0.745901    4.247585
     46          1           0      -17.453585   -4.862411    1.730537
     47          1           0      -17.872638   -2.134214   -4.148216
     48          1           0      -16.081967    4.407239    1.115263
     49          1           0      -16.246629    3.117741    3.554063
     50          1           0      -13.747547    3.232583    3.326613
     51          1           0      -14.069839    4.100404    1.919837
     52          1           0      -13.924688    2.258527    1.869173
     53          1           0      -18.337066    3.683435    2.870079
     54          1           0      -18.823639    3.963183    1.295879
     55          1           0      -18.977026    5.848978    2.801639
     56          1           0      -18.188754    6.094912    1.138167
     57          1           0      -16.122065   -1.845210    6.464096
     58          1           0      -15.018559   -0.740873    5.615447
     59          1           0      -14.693924   -2.482140    5.902073
     60          1           0      -16.924267   -3.858160    6.462780
     61          1           0      -15.379671   -4.593980    5.967570
     62          1           0      -16.933567   -5.548299    6.256277
     63          1           0      -18.712539   -5.325316   -0.835840
     64          1           0      -17.122958   -4.497777   -3.172185
     65          1           0      -15.927628   -5.950498   -1.842552
     66          1           0      -17.114461   -7.110653   -1.414074
     67          1           0      -16.141108   -6.102818   -0.178539
     68          1           0      -20.060345   -3.755713   -2.885492
     69          1           0      -19.789981   -5.380099   -2.779163
     70          1           0      -19.578620   -3.647750   -5.067735
     71          1           0      -20.159086   -5.305709   -4.904130
     72          1           0      -18.344256   -4.979528   -5.058683
     73          1           0      -17.530231    1.326087   -5.956469
     74          1           0      -18.851247    0.277801   -5.342027
     75          1           0      -17.198044   -0.326086   -5.626783
     76          1           0      -17.989511    4.355512   -1.473314
     77          1           0      -16.166808    7.709678   -0.810976
     78          1           0      -15.235684    7.711897   -2.299885
     79          1           0      -14.685827    6.744837   -0.907489
     80         12           0       17.398835   -0.552336   -0.152393
     81          6           0       14.967871    1.911003    0.410758
     82          6           0       19.799042    1.905381    0.077471
     83          6           0       19.665880   -2.883778   -0.715040
     84          6           0       14.803405   -2.892719   -0.511619
     85          7           0       17.327661    1.617442    0.288543
     86          6           0       16.233200    2.462748    0.471924
     87          6           0       16.628645    3.881487    1.041541
     88          6           0       18.117934    3.836782    0.759181
     89          6           0       18.463817    2.345633    0.349808
     90          6           0       18.484348    4.761201   -0.490798
     91          6           0       16.349556    3.760530    2.605350
     92          6           0       15.675461    5.012918    3.320345
     93          1           0       16.137571    6.285145    2.657051
     94          7           0       19.377999   -0.460288   -0.435913
     95          6           0       20.183965    0.591150   -0.317577
     96          6           0       21.569054    0.252170   -0.510708
     97          6           0       21.595496   -1.155533   -0.564131
     98          6           0       20.145079   -1.574799   -0.633825
     99          6           0       22.707230    1.205083   -0.545581
    100          6           0       22.759371   -2.121070   -0.475806
    101          8           0       22.612855   -3.333263   -0.282097
    102          6           0       24.184177   -1.625081   -0.737561
    103          7           0       17.224419   -2.617081   -0.609073
    104          6           0       18.387984   -3.341164   -0.719862
    105          6           0       18.027919   -4.822880   -0.804978
    106          6           0       16.433304   -4.860573   -0.617654
    107          6           0       16.101908   -3.395237   -0.511316
    108          6           0       18.623240   -5.440878   -2.119245
    109          6           0       15.893658   -5.712668    0.520381
    110          6           0       14.793263   -6.727615    0.078582
    111          7           0       15.319450   -0.502788   -0.092573
    112          6           0       14.369849   -1.555563   -0.281137
    113          6           0       13.046924   -1.049853   -0.188336
    114          6           0       13.255664    0.312144    0.086660
    115          6           0       14.640699    0.577969    0.079054
    116          6           0       11.726912   -1.744047   -0.288832
    117          6           0       12.609971    1.555931    0.360591
    118          8           0       11.447816    1.882598    0.419148
    119          6           0       13.714567    2.600712    0.686278
    120          6           0       13.444432    3.842636   -0.082884
    121          8           0       13.557886    4.014552   -1.293258
    122          8           0       13.100987    4.780202    0.805603
    123          6           0       12.868508    6.114697    0.294294
    124          1           0       20.661400    2.549720    0.260118
    125          1           0       20.464208   -3.605037   -0.907088
    126          1           0       13.968676   -3.595586   -0.553955
    127          1           0       15.931217    4.574930    0.572630
    128          1           0       18.678841    4.106335    1.653444
    129          1           0       17.605706    5.233451   -0.930638
    130          1           0       18.968318    4.140233   -1.244390
    131          1           0       19.185889    5.488843   -0.082632
    132          1           0       17.250303    3.578816    3.190892
    133          1           0       15.734901    2.869151    2.733524
    134          1           0       16.083237    5.146985    4.322334
    135          1           0       14.616931    4.840101    3.516350
    136          1           0       23.296540    1.016001    0.352705
    137          1           0       22.363717    2.237778   -0.504330
    138          1           0       23.343627    1.087257   -1.422127
    139          1           0       24.668093   -2.576052   -0.959041
    140          1           0       24.629176   -1.091147    0.102907
    141          1           0       24.351281   -1.037562   -1.640134
    142          1           0       18.449763   -5.456808   -0.025106
    143          1           0       15.989445   -5.225125   -1.544131
    144          1           0       19.081603   -6.382981   -1.818292
    145          1           0       19.320123   -4.785165   -2.641349
    146          1           0       17.835922   -5.838448   -2.760776
    147          1           0       15.502208   -5.141385    1.361521
    148          1           0       16.730095   -6.363990    0.777780
    149          1           0       14.684085   -6.730061   -1.006057
    150          1           0       13.799363   -6.402516    0.385441
    151          1           0       15.027982   -7.737939    0.414259
    152          1           0       11.686508   -2.259626    0.671070
    153          1           0       11.768497   -2.360458   -1.186566
    154          1           0       10.889734   -1.047816   -0.311617
    155          1           0       13.515311    2.851924    1.728905
    156          1           0       12.133001    6.082171   -0.509979
    157          1           0       13.716582    6.616892   -0.172407
    158          1           0       12.481641    6.695170    1.132035
 ---------------------------------------------------------------------

 SCF Done:  E(RwB97XD) =  -4070.62763210     A.U. after   19 cycles

 Excitation energies and oscillator strengths:

 Excited State   1:      Singlet-A      1.6742 eV  740.55 nm  f=0.3819  <S**2>=0.000
     310 -> 315       -0.19682
     312 -> 314        0.67872
     310 <- 315       -0.11749
 This state for optimization and/or second-order correction.
 Total Energy, E(TD-HF/TD-DFT) =  -4070.56610541
 Copying the excited state density for this state as the 1-particle RhoCI density.

 Excited State   2:      Singlet-A      1.6809 eV  737.61 nm  f=0.3816  <S**2>=0.000
     309 -> 316       -0.16557
     311 -> 313        0.68504
     309 <- 316       -0.10516

 Excited State   3:      Singlet-A      2.2066 eV  561.89 nm  f=0.0662  <S**2>=0.000
     310 -> 314        0.62033
     312 -> 315        0.32386

 Excited State   4:      Singlet-A      2.2342 eV  554.95 nm  f=0.1204  <S**2>=0.000
     309 -> 313        0.63516
     311 -> 316        0.28430

 Excited State   5:      Singlet-A      3.4057 eV  364.05 nm  f=0.1366  <S**2>=0.000
     307 -> 314        0.57109
     310 -> 314        0.13910
     312 -> 315       -0.36110

 The electronic state is 1-A.
 Alpha  occ. eigenvalues --  -46.95649 -46.94090 -19.30415 -19.29542 -19.24991
 Alpha  occ. eigenvalues --  -19.24909 -19.24249 -19.23694 -19.23669 -19.22350
 Alpha  occ. eigenvalues --  -14.46824 -14.46307 -14.46204 -14.45944 -14.44828
 Alpha  occ. eigenvalues --  -14.44374 -14.43498 -14.43002 -10.43024 -10.42108
 Alpha  occ. eigenvalues --  -10.40252 -10.39440 -10.38773 -10.37068 -10.35976
 Alpha  occ. eigenvalues --  -10.35718 -10.35136 -10.35121 -10.35055 -10.34773
 Alpha  occ. eigenvalues --  -10.34763 -10.34720 -10.34718 -10.34434 -10.34270
 Alpha  occ. eigenvalues --  -10.34030 -10.33985 -10.33933 -10.33780 -10.33594
 Alpha  occ. eigenvalues --  -10.33504 -10.33267 -10.32944 -10.32840 -10.32481
 Alpha  occ. eigenvalues --  -10.32370 -10.32142 -10.32141 -10.31904 -10.31874
 Alpha  occ. eigenvalues --  -10.31800 -10.31775 -10.31608 -10.31583 -10.31583
 Alpha  occ. eigenvalues --  -10.31556 -10.31524 -10.31522 -10.31401 -10.31293
 Alpha  occ. eigenvalues --  -10.31243 -10.31194 -10.31098 -10.31078 -10.31073
 Alpha  occ. eigenvalues --  -10.30709 -10.30661 -10.30569 -10.30531 -10.30511
 Alpha  occ. eigenvalues --  -10.30251 -10.30169 -10.30133 -10.30113 -10.29927
 Alpha  occ. eigenvalues --  -10.29883 -10.29867 -10.29586 -10.29580 -10.29563
 Alpha  occ. eigenvalues --  -10.29495 -10.29414 -10.29212 -10.29034 -10.28779
 Alpha  occ. eigenvalues --  -10.27516  -3.21494  -3.20208  -1.95077  -1.94616
 Alpha  occ. eigenvalues --   -1.94451  -1.93815  -1.93318  -1.93213  -1.19233
 Alpha  occ. eigenvalues --   -1.18225  -1.12607  -1.11766  -1.11527  -1.11505
 Alpha  occ. eigenvalues --   -1.09902  -1.09215  -1.07129  -1.07056  -1.05887
 Alpha  occ. eigenvalues --   -1.05873  -1.04991  -1.04890  -1.04331  -1.04033
 Alpha  occ. eigenvalues --   -0.94686  -0.94567  -0.91589  -0.90708  -0.90390
 Alpha  occ. eigenvalues --   -0.90308  -0.90264  -0.89870  -0.89819  -0.89429
 Alpha  occ. eigenvalues --   -0.89016  -0.88913  -0.88748  -0.88558  -0.86079
 Alpha  occ. eigenvalues --   -0.85850  -0.85425  -0.85395  -0.84553  -0.84351
 Alpha  occ. eigenvalues --   -0.84234  -0.83746  -0.83386  -0.83184  -0.82507
 Alpha  occ. eigenvalues --   -0.82290  -0.80888  -0.80288  -0.79314  -0.79309
 Alpha  occ. eigenvalues --   -0.78891  -0.78646  -0.77725  -0.77476  -0.76988
 Alpha  occ. eigenvalues --   -0.76886  -0.75058  -0.74435  -0.73730  -0.73362
 Alpha  occ. eigenvalues --   -0.71147  -0.70803  -0.70764  -0.70612  -0.69636
 Alpha  occ. eigenvalues --   -0.69584  -0.69305  -0.69267  -0.67370  -0.67345
 Alpha  occ. eigenvalues --   -0.67227  -0.67138  -0.66969  -0.66908  -0.66459
 Alpha  occ. eigenvalues --   -0.66265  -0.64400  -0.63876  -0.62803  -0.62429
 Alpha  occ. eigenvalues --   -0.61511  -0.61498  -0.61171  -0.61123  -0.60577
 Alpha  occ. eigenvalues --   -0.60231  -0.59833  -0.59679  -0.59438  -0.59252
 Alpha  occ. eigenvalues --   -0.58640  -0.58102  -0.57799  -0.57545  -0.57276
 Alpha  occ. eigenvalues --   -0.57074  -0.56341  -0.56329  -0.55724  -0.55580
 Alpha  occ. eigenvalues --   -0.55472  -0.55449  -0.55127  -0.55126  -0.55078
 Alpha  occ. eigenvalues --   -0.54817  -0.54527  -0.54450  -0.54274  -0.54032
 Alpha  occ. eigenvalues --   -0.53976  -0.53649  -0.53547  -0.53446  -0.53189
 Alpha  occ. eigenvalues --   -0.53092  -0.52998  -0.52664  -0.52663  -0.52313
 Alpha  occ. eigenvalues --   -0.52287  -0.52193  -0.51924  -0.51838  -0.51536
 Alpha  occ. eigenvalues --   -0.51517  -0.51271  -0.51175  -0.50874  -0.50670
 Alpha  occ. eigenvalues --   -0.50586  -0.50463  -0.50417  -0.50041  -0.49779
 Alpha  occ. eigenvalues --   -0.49533  -0.49513  -0.49433  -0.49251  -0.49072
 Alpha  occ. eigenvalues --   -0.48971  -0.48796  -0.48619  -0.48515  -0.48431
 Alpha  occ. eigenvalues --   -0.48285  -0.48131  -0.47979  -0.47797  -0.47405
 Alpha  occ. eigenvalues --   -0.47183  -0.46907  -0.46905  -0.46755  -0.46597
 Alpha  occ. eigenvalues --   -0.46547  -0.46451  -0.46360  -0.46245  -0.46204
 Alpha  occ. eigenvalues --   -0.45942  -0.45710  -0.45639  -0.45572  -0.45560
 Alpha  occ. eigenvalues --   -0.44956  -0.44887  -0.44875  -0.44831  -0.44628
 Alpha  occ. eigenvalues --   -0.44512  -0.44245  -0.44167  -0.44031  -0.43865
 Alpha  occ. eigenvalues --   -0.43831  -0.43517  -0.43439  -0.43142  -0.42993
 Alpha  occ. eigenvalues --   -0.42741  -0.42672  -0.42377  -0.42276  -0.42066
 Alpha  occ. eigenvalues --   -0.41952  -0.41704  -0.41596  -0.41426  -0.40697
 Alpha  occ. eigenvalues --   -0.40614  -0.40166  -0.39633  -0.39587  -0.39339
 Alpha  occ. eigenvalues --   -0.39270  -0.38861  -0.38515  -0.38421  -0.38408
 Alpha  occ. eigenvalues --   -0.38293  -0.37777  -0.36585  -0.36198  -0.35855
 Alpha  occ. eigenvalues --   -0.35846  -0.35253  -0.34935  -0.34286  -0.33628
 Alpha  occ. eigenvalues --   -0.33551  -0.33305  -0.33092  -0.32672  -0.32375
 Alpha  occ. eigenvalues --   -0.31648  -0.31362  -0.31275  -0.26024  -0.25831
 Alpha  occ. eigenvalues --   -0.22849  -0.22716
 Alpha virt. eigenvalues --   -0.06899  -0.06563  -0.00086   0.00258   0.01985
 Alpha virt. eigenvalues --    0.02563   0.04344   0.04992   0.05076   0.06480
 Alpha virt. eigenvalues --    0.07912   0.08106   0.08143   0.08366   0.08463

 Mulliken charges:
               1
     1  Mg   0.942046
     2  C   -0.052018
     3  C   -0.101076
     4  C   -0.067705
     5  C   -0.090848
     6  N   -0.320340
     7  C    0.052384
     8  C   -0.094569
     9  C   -0.080761
    10  C   -0.005956
    11  C    0.041911
    12  C   -0.020850
    13  C   -0.113940
    14  H    0.029662
    15  N   -0.428096
    16  C    0.194848
    17  C   -0.167223
    18  C   -0.071103
    19  C    0.113817
    20  C    0.058689
    21  C    0.066986
    22  O   -0.250809
    23  C   -0.004220
    24  N   -0.356266
    25  C    0.033267
    26  C   -0.062082
    27  C   -0.056435
    28  C    0.068600
    29  C    0.048381
    30  C   -0.039107
    31  C   -0.040800
    32  N   -0.439293
    33  C    0.135408
    34  C   -0.196810
    35  C   -0.015711
    36  C    0.167521
    37  C    0.061205
    38  C    0.109510
    39  O   -0.199669
    40  C   -0.077096
    41  C    0.279488
    42  O   -0.226326
    43  O   -0.373886
    44  C    0.131597
    45  H   -0.012480
    46  H    0.026132
    47  H   -0.012873
    48  H    0.024559
    49  H    0.020037
    50  H    0.029414
    51  H    0.045989
    52  H    0.057517
    53  H    0.021533
    54  H    0.024473
    55  H    0.065139
    56  H    0.071816
    57  H    0.043630
    58  H    0.041058
    59  H    0.041560
    60  H    0.037666
    61  H    0.075246
    62  H    0.054530
    63  H    0.039136
    64  H    0.033398
    65  H    0.016028
    66  H    0.046638
    67  H    0.047964
    68  H    0.025276
    69  H    0.022916
    70  H    0.043202
    71  H    0.039779
    72  H    0.045463
    73  H    0.060034
    74  H    0.054101
    75  H    0.037989
    76  H    0.081323
    77  H    0.047469
    78  H    0.063838
    79  H    0.058176
    80  Mg   0.983726
    81  C    0.006723
    82  C   -0.113351
    83  C   -0.075864
    84  C   -0.074223
    85  N   -0.350839
    86  C   -0.049400
    87  C   -0.050112
    88  C   -0.097979
    89  C    0.098294
    90  C    0.023330
    91  C    0.001717
    92  C   -0.114920
    93  H    0.031943
    94  N   -0.466221
    95  C    0.153935
    96  C   -0.174275
    97  C   -0.070311
    98  C    0.137814
    99  C    0.077867
   100  C    0.062764
   101  O   -0.243560
   102  C   -0.045472
   103  N   -0.390062
   104  C    0.116284
   105  C   -0.106956
   106  C   -0.048717
   107  C    0.073201
   108  C    0.009959
   109  C    0.001438
   110  C   -0.071394
   111  N   -0.414349
   112  C    0.082099
   113  C   -0.193320
   114  C   -0.037919
   115  C    0.139309
   116  C    0.088164
   117  C    0.083178
   118  O   -0.205290
   119  C   -0.074221
   120  C    0.226149
   121  O   -0.256783
   122  O   -0.333945
   123  C    0.142502
   124  H   -0.000119
   125  H    0.028384
   126  H   -0.008023
   127  H    0.049787
   128  H    0.040000
   129  H    0.052014
   130  H    0.043585
   131  H    0.040148
   132  H    0.030954
   133  H    0.043337
   134  H    0.042725
   135  H    0.062650
   136  H    0.053145
   137  H    0.041059
   138  H    0.058446
   139  H    0.058563
   140  H    0.065415
   141  H    0.052899
   142  H    0.043199
   143  H    0.032404
   144  H    0.027624
   145  H    0.060864
   146  H    0.025951
   147  H    0.049326
   148  H    0.028130
   149  H    0.020901
   150  H    0.037426
   151  H    0.045736
   152  H    0.054209
   153  H    0.052920
   154  H    0.061547
   155  H    0.067054
   156  H    0.054727
   157  H    0.045134
   158  H    0.056967
 Sum of Mulliken charges =  -0.00000

 Dipole moment (field-independent basis, Debye):
    X=              3.5674    Y=             -0.0518    Z=              5.9612  Tot=              6.9473
 Quadrupole moment (field-independent basis, Debye-Ang):
   XX=           -273.6060   YY=           -483.7017   ZZ=           -497.0507
   XY=             43.5578   XZ=            -33.1679   YZ=             43.8163

 Normal termination of Gaussian 16 at Sun Sep 19 13:51:36 2021.
