 Gaussian 16, Revision A.03,
 Gaussian 16:  ES64L-G16RevA.03 25-Dec-2016

 --------------------------------
 #p wB97XD/Def2SVP td=(nstates=5)
 --------------------------------

 --------------------------------
 TDDFT excited states in gaussian
 --------------------------------
 Symbolic Z-matrix:
 Charge =  0 Multiplicity = 1

                         Standard orientation:
 ---------------------------------------------------------------------
 Center     Atomic      Atomic             Coordinates (Angstroms)
 Number     Number       Type             X           Y           Z
 ---------------------------------------------------------------------
      1         12           0       25.807049   -0.413590    0.268925
      2          6           0       24.343226    2.689333    0.923205
      3          6           0       25.940559    0.559959   -3.096904
      4          6           0       26.694178   -3.518259   -0.610287
      5          6           0       24.656700   -1.529442    3.314392
      6          7           0       25.299722    1.499336   -0.985171
      7          6           0       24.660721    2.561095   -0.425909
      8          6           0       24.354917    3.661719   -1.517661
      9          6           0       24.657096    2.828393   -2.863534
     10          6           0       25.292827    1.537496   -2.320718
     11          6           0       23.272144    2.453176   -3.500810
     12          6           0       25.402379    4.818791   -1.322593
     13          6           0       25.398029    5.970232   -2.364696
     14          1           0       26.560259    6.633361   -3.042070
     15          7           0       26.432136   -1.253115   -1.542118
     16          6           0       26.467906   -0.708994   -2.836855
     17          6           0       26.936204   -1.703625   -3.707675
     18          6           0       27.336501   -2.821301   -2.987671
     19          6           0       26.830893   -2.559289   -1.650254
     20          6           0       27.130230   -1.401305   -5.157485
     21          6           0       27.991774   -4.161920   -3.457293
     22          8           0       28.316689   -5.081503   -2.713831
     23          6           0       28.490600   -4.364275   -4.890668
     24          7           0       25.572513   -2.257716    1.189320
     25          6           0       26.158218   -3.362243    0.675308
     26          6           0       26.200356   -4.551910    1.654230
     27          6           0       25.421986   -3.958527    2.861210
     28          6           0       25.295315   -2.483677    2.524210
     29          6           0       25.725210   -5.912664    1.044965
     30          6           0       25.996940   -4.226814    4.279039
     31          6           0       27.183130   -3.448965    4.664123
     32          7           0       24.807361    0.389046    1.871229
     33          6           0       24.418098   -0.147728    3.004340
     34          6           0       23.834833    0.846608    3.910833
     35          6           0       23.809962    2.004886    3.069964
     36          6           0       24.365473    1.676790    1.848735
     37          6           0       23.730840    0.817106    5.363896
     38          6           0       23.440388    3.409521    3.063874
     39          8           0       23.035250    4.123036    3.953379
     40          6           0       23.719009    3.861079    1.625094
     41          6           0       22.466782    4.440746    0.958888
     42          8           0       21.569899    3.777872    0.506401
     43          8           0       22.505746    5.812569    1.033884
     44          6           0       21.327844    6.448809    0.400380
     45          1           0       26.096682    0.921583   -4.114548
     46          1           0       27.170653   -4.484322   -0.791027
     47          1           0       24.527647   -2.086663    4.243889
     48          1           0       23.310378    3.974263   -1.515309
     49          1           0       25.278885    3.350737   -3.591676
     50          1           0       22.954556    1.415841   -3.400068
     51          1           0       23.321564    2.451463   -4.589965
     52          1           0       22.444514    3.073471   -3.157366
     53          1           0       26.388109    4.356355   -1.279481
     54          1           0       25.252818    5.213881   -0.317422
     55          1           0       24.761519    6.728598   -1.907861
     56          1           0       24.883773    5.481960   -3.191561
     57          1           0       26.823755   -0.405191   -5.477872
     58          1           0       26.711734   -2.230631   -5.729374
     59          1           0       28.213344   -1.427541   -5.280089
     60          1           0       27.692959   -4.399235   -5.632805
     61          1           0       29.177509   -5.200881   -5.019521
     62          1           0       29.144362   -3.518979   -5.106361
     63          1           0       27.279247   -4.565167    1.806349
     64          1           0       24.424112   -4.386575    2.765671
     65          1           0       25.925792   -5.952345   -0.025174
     66          1           0       24.650076   -6.015963    1.193988
     67          1           0       26.243327   -6.770933    1.473286
     68          1           0       26.245365   -5.285440    4.210417
     69          1           0       25.198931   -4.155258    5.018319
     70          1           0       26.871567   -2.473359    5.036913
     71          1           0       27.890549   -3.376978    3.838230
     72          1           0       27.703488   -3.893909    5.512790
     73          1           0       24.515488    0.130601    5.682798
     74          1           0       22.843582    0.395053    5.836119
     75          1           0       23.871405    1.842573    5.703956
     76          1           0       24.504357    4.616730    1.662580
     77          1           0       21.076428    7.345124    0.967086
     78          1           0       20.385485    5.907330    0.485872
     79          1           0       21.555818    6.767334   -0.616289
     80         12           0      -24.837663   -0.880626   -0.221607
     81          6           0      -26.353076    2.266245    0.118680
     82          6           0      -23.673548   -0.071364   -3.240123
     83          6           0      -23.581136   -3.858488   -0.386229
     84          6           0      -26.981352   -1.920941    2.500712
     85          7           0      -25.115094    0.883060   -1.427727
     86          6           0      -25.592904    2.083868   -1.077629
     87          6           0      -25.527173    3.070353   -2.214890
     88          6           0      -25.037169    2.168594   -3.418007
     89          6           0      -24.565545    0.933949   -2.674491
     90          6           0      -26.049550    1.838811   -4.562507
     91          6           0      -24.432630    4.215406   -1.907881
     92          6           0      -24.957375    5.664652   -2.172608
     93          1           0      -23.951727    6.784334   -1.563204
     94          7           0      -23.602230   -1.718427   -1.466991
     95          6           0      -23.170715   -1.220412   -2.684586
     96          6           0      -22.098639   -2.049981   -3.161584
     97          6           0      -21.977216   -3.229026   -2.317941
     98          6           0      -23.001428   -2.944236   -1.241263
     99          6           0      -21.408105   -1.685732   -4.507253
    100          6           0      -21.107943   -4.481295   -2.307934
    101          8           0      -21.090041   -5.360786   -1.427912
    102          6           0      -20.145764   -4.517125   -3.442063
    103          7           0      -25.391396   -2.618989    0.828943
    104          6           0      -24.654234   -3.731933    0.507710
    105          6           0      -25.157189   -4.959451    1.268241
    106          6           0      -25.997558   -4.297943    2.391890
    107          6           0      -26.202992   -2.874496    1.870066
    108          6           0      -25.872343   -5.956607    0.272560
    109          6           0      -25.358195   -4.317355    3.844959
    110          6           0      -26.331048   -4.214305    5.030512
    111          7           0      -26.341234   -0.033882    1.102230
    112          6           0      -27.073013   -0.585094    2.110032
    113          6           0      -27.854687    0.418034    2.797795
    114          6           0      -27.523421    1.571069    2.062816
    115          6           0      -26.657541    1.244131    1.009453
    116          6           0      -28.811297    0.336570    4.009591
    117          6           0      -27.757457    2.987015    2.005418
    118          8           0      -28.280850    3.770046    2.754091
    119          6           0      -27.113254    3.460099    0.600838
    120          6           0      -26.442261    4.696154    1.011948
    121          8           0      -25.316171    4.844315    1.550483
    122          8           0      -27.306280    5.678416    0.702940
    123          6           0      -26.936471    7.055615    1.032514
    124          1           0      -23.212883    0.217318   -4.187328
    125          1           0      -23.104588   -4.841202   -0.391390
    126          1           0      -27.533492   -2.268285    3.376467
    127          1           0      -26.458084    3.596774   -2.427394
    128          1           0      -24.146469    2.513743   -3.943350
    129          1           0      -26.294779    0.779125   -4.491811
    130          1           0      -25.504733    2.035349   -5.485731
    131          1           0      -27.005455    2.361072   -4.581527
    132          1           0      -23.469625    4.099502   -2.406564
    133          1           0      -24.117656    4.062093   -0.875645
    134          1           0      -25.938164    5.805093   -1.718732
    135          1           0      -25.019299    5.951448   -3.222100
    136          1           0      -20.567291   -1.030272   -4.284523
    137          1           0      -21.984889   -0.993902   -5.122316
    138          1           0      -21.243031   -2.497056   -5.215814
    139          1           0      -19.431441   -3.694728   -3.458032
    140          1           0      -20.814583   -4.539164   -4.303333
    141          1           0      -19.570511   -5.441602   -3.499729
    142          1           0      -24.259559   -5.443936    1.652701
    143          1           0      -26.940470   -4.834547    2.496720
    144          1           0      -26.951138   -5.933350    0.426187
    145          1           0      -25.620528   -7.015666    0.321688
    146          1           0      -25.815491   -5.714510   -0.788899
    147          1           0      -24.808145   -3.376390    3.874401
    148          1           0      -24.685675   -5.139700    4.089970
    149          1           0      -26.203771   -3.284711    5.586788
    150          1           0      -26.326818   -4.995173    5.791266
    151          1           0      -27.318317   -4.112989    4.581993
    152          1           0      -29.169231   -0.692720    4.033045
    153          1           0      -29.640952    1.036673    3.902912
    154          1           0      -28.203263    0.536642    4.891779
    155          1           0      -27.909413    3.722565   -0.096053
    156          1           0      -26.744785    7.592671    0.103740
    157          1           0      -26.141428    7.102931    1.775909
    158          1           0      -27.813601    7.551851    1.447653
 ---------------------------------------------------------------------

 SCF Done:  E(RwB97XD) =  -4070.61681072     A.U. after   19 cycles

 Excitation energies and oscillator strengths:

 Excited State   1:      Singlet-A      1.6707 eV  742.09 nm  f=0.3750  <S**2>=0.000
     309 -> 315       -0.20303
     311 -> 313        0.67878
     309 <- 315       -0.12002
 This state for optimization and/or second-order correction.
 Total Energy, E(TD-HF/TD-DFT) =  -4070.55541233
 Copying the excited state density for this state as the 1-particle RhoCI density.

 Excited State   2:      Singlet-A      1.6939 eV  731.93 nm  f=0.3913  <S**2>=0.000
     310 -> 316       -0.19055
     312 -> 314        0.68142
     310 <- 316       -0.11528

 Excited State   3:      Singlet-A      2.1931 eV  565.34 nm  f=0.0606  <S**2>=0.000
     309 -> 313        0.61587
     311 -> 315        0.33612

 Excited State   4:      Singlet-A      2.2137 eV  560.08 nm  f=0.1130  <S**2>=0.000
     310 -> 314        0.64264
     312 -> 316        0.27811

 Excited State   5:      Singlet-A      3.4186 eV  362.67 nm  f=0.4036  <S**2>=0.000
     305 -> 313       -0.13450
     307 -> 313       -0.34055
     309 -> 313       -0.25481
     311 -> 315        0.52574

 The electronic state is 1-A.
 Alpha  occ. eigenvalues --  -46.95051 -46.93913 -19.31019 -19.30075 -19.25341
 Alpha  occ. eigenvalues --  -19.24726 -19.24497 -19.24061 -19.23851 -19.23395
 Alpha  occ. eigenvalues --  -14.47176 -14.46857 -14.46305 -14.45618 -14.44089
 Alpha  occ. eigenvalues --  -14.43786 -14.43694 -14.42990 -10.43635 -10.42415
 Alpha  occ. eigenvalues --  -10.40199 -10.39983 -10.38654 -10.38489 -10.35752
 Alpha  occ. eigenvalues --  -10.35561 -10.35192 -10.35128 -10.34817 -10.34733
 Alpha  occ. eigenvalues --  -10.34683 -10.34664 -10.34569 -10.34461 -10.34248
 Alpha  occ. eigenvalues --  -10.34244 -10.34145 -10.33941 -10.33741 -10.33572
 Alpha  occ. eigenvalues --  -10.33453 -10.33217 -10.32786 -10.32756 -10.32685
 Alpha  occ. eigenvalues --  -10.32674 -10.32648 -10.32573 -10.32409 -10.32002
 Alpha  occ. eigenvalues --  -10.31985 -10.31877 -10.31788 -10.31768 -10.31749
 Alpha  occ. eigenvalues --  -10.31729 -10.31689 -10.31675 -10.31652 -10.31646
 Alpha  occ. eigenvalues --  -10.31569 -10.31526 -10.31375 -10.31327 -10.31153
 Alpha  occ. eigenvalues --  -10.31010 -10.30909 -10.30757 -10.30513 -10.30349
 Alpha  occ. eigenvalues --  -10.30347 -10.30256 -10.30256 -10.30097 -10.29977
 Alpha  occ. eigenvalues --  -10.29927 -10.29874 -10.29861 -10.29722 -10.29711
 Alpha  occ. eigenvalues --  -10.29325 -10.29180 -10.29105 -10.28931 -10.28473
 Alpha  occ. eigenvalues --  -10.28306  -3.21057  -3.20156  -1.94632  -1.94194
 Alpha  occ. eigenvalues --   -1.94013  -1.93739  -1.93300  -1.93145  -1.18994
 Alpha  occ. eigenvalues --   -1.18109  -1.12996  -1.12653  -1.12509  -1.11623
 Alpha  occ. eigenvalues --   -1.10968  -1.07711  -1.07193  -1.06964  -1.06305
 Alpha  occ. eigenvalues --   -1.05802  -1.05606  -1.05359  -1.04505  -1.04463
 Alpha  occ. eigenvalues --   -0.95799  -0.94685  -0.91284  -0.91051  -0.90515
 Alpha  occ. eigenvalues --   -0.90117  -0.90096  -0.89889  -0.89462  -0.89368
 Alpha  occ. eigenvalues --   -0.89137  -0.88925  -0.88207  -0.88113  -0.86446
 Alpha  occ. eigenvalues --   -0.85982  -0.85725  -0.85516  -0.84383  -0.84303
 Alpha  occ. eigenvalues --   -0.84161  -0.83470  -0.83225  -0.82860  -0.82370
 Alpha  occ. eigenvalues --   -0.82237  -0.80505  -0.80179  -0.79521  -0.79229
 Alpha  occ. eigenvalues --   -0.78820  -0.78514  -0.78051  -0.77843  -0.77313
 Alpha  occ. eigenvalues --   -0.76809  -0.74767  -0.74453  -0.74108  -0.73762
 Alpha  occ. eigenvalues --   -0.71956  -0.71216  -0.71132  -0.70709  -0.70318
 Alpha  occ. eigenvalues --   -0.69842  -0.69192  -0.69029  -0.67982  -0.67456
 Alpha  occ. eigenvalues --   -0.67339  -0.66873  -0.66782  -0.66431  -0.66412
 Alpha  occ. eigenvalues --   -0.65973  -0.64482  -0.63748  -0.62256  -0.62104
 Alpha  occ. eigenvalues --   -0.61786  -0.61451  -0.61332  -0.61138  -0.60612
 Alpha  occ. eigenvalues --   -0.60564  -0.60245  -0.59981  -0.59345  -0.59101
 Alpha  occ. eigenvalues --   -0.58477  -0.58316  -0.57840  -0.57601  -0.57468
 Alpha  occ. eigenvalues --   -0.57435  -0.57228  -0.56559  -0.56278  -0.55938
 Alpha  occ. eigenvalues --   -0.55835  -0.55373  -0.55227  -0.55169  -0.55071
 Alpha  occ. eigenvalues --   -0.54749  -0.54596  -0.54510  -0.54484  -0.54142
 Alpha  occ. eigenvalues --   -0.54031  -0.53516  -0.53331  -0.53064  -0.52971
 Alpha  occ. eigenvalues --   -0.52918  -0.52673  -0.52504  -0.52304  -0.52273
 Alpha  occ. eigenvalues --   -0.52116  -0.51941  -0.51868  -0.51609  -0.51370
 Alpha  occ. eigenvalues --   -0.51351  -0.51166  -0.51009  -0.50902  -0.50833
 Alpha  occ. eigenvalues --   -0.50740  -0.50458  -0.50393  -0.50077  -0.49923
 Alpha  occ. eigenvalues --   -0.49846  -0.49435  -0.49308  -0.49181  -0.49051
 Alpha  occ. eigenvalues --   -0.48805  -0.48613  -0.48404  -0.48251  -0.48068
 Alpha  occ. eigenvalues --   -0.47903  -0.47835  -0.47642  -0.47639  -0.47449
 Alpha  occ. eigenvalues --   -0.47274  -0.47059  -0.46991  -0.46910  -0.46844
 Alpha  occ. eigenvalues --   -0.46638  -0.46350  -0.46123  -0.45985  -0.45954
 Alpha  occ. eigenvalues --   -0.45763  -0.45680  -0.45617  -0.45495  -0.45408
 Alpha  occ. eigenvalues --   -0.45264  -0.45177  -0.45005  -0.44833  -0.44804
 Alpha  occ. eigenvalues --   -0.44773  -0.44585  -0.44522  -0.44425  -0.44310
 Alpha  occ. eigenvalues --   -0.44154  -0.44018  -0.43867  -0.43808  -0.43621
 Alpha  occ. eigenvalues --   -0.43249  -0.43144  -0.42700  -0.42629  -0.42455
 Alpha  occ. eigenvalues --   -0.42194  -0.42155  -0.41505  -0.41495  -0.40728
 Alpha  occ. eigenvalues --   -0.40718  -0.40396  -0.39818  -0.39763  -0.39673
 Alpha  occ. eigenvalues --   -0.39455  -0.39321  -0.38940  -0.38817  -0.38271
 Alpha  occ. eigenvalues --   -0.37506  -0.37212  -0.36904  -0.36256  -0.36147
 Alpha  occ. eigenvalues --   -0.35966  -0.35407  -0.34950  -0.33714  -0.33619
 Alpha  occ. eigenvalues --   -0.33496  -0.33102  -0.32775  -0.32612  -0.32456
 Alpha  occ. eigenvalues --   -0.32259  -0.31766  -0.31330  -0.26111  -0.25729
 Alpha  occ. eigenvalues --   -0.22924  -0.22890
 Alpha virt. eigenvalues --   -0.06780  -0.06726  -0.00389   0.00597   0.01758
 Alpha virt. eigenvalues --    0.02486   0.04352   0.04569   0.05391   0.06227
 Alpha virt. eigenvalues --    0.07353   0.07379   0.07607   0.08068   0.08251

 Mulliken charges:
               1
     1  Mg   0.973327
     2  C   -0.006812
     3  C   -0.074224
     4  C   -0.111364
     5  C   -0.060493
     6  N   -0.281959
     7  C   -0.051576
     8  C   -0.080968
     9  C   -0.121273
    10  C    0.037960
    11  C    0.009306
    12  C   -0.013343
    13  C   -0.096425
    14  H    0.058566
    15  N   -0.474687
    16  C    0.176499
    17  C   -0.164570
    18  C   -0.081376
    19  C    0.151392
    20  C    0.071313
    21  C    0.085590
    22  O   -0.233792
    23  C   -0.021712
    24  N   -0.406369
    25  C    0.075795
    26  C   -0.112135
    27  C   -0.035571
    28  C   -0.010230
    29  C    0.035574
    30  C   -0.020918
    31  C   -0.015375
    32  N   -0.411554
    33  C    0.152302
    34  C   -0.157201
    35  C   -0.070556
    36  C    0.151452
    37  C    0.070542
    38  C    0.116339
    39  O   -0.187629
    40  C   -0.074717
    41  C    0.263717
    42  O   -0.227611
    43  O   -0.360627
    44  C    0.124799
    45  H   -0.012623
    46  H    0.022352
    47  H   -0.019462
    48  H    0.047390
    49  H    0.048726
    50  H    0.042535
    51  H    0.025839
    52  H    0.050545
    53  H    0.035471
    54  H    0.032175
    55  H    0.051123
    56  H    0.036216
    57  H    0.044455
    58  H    0.048663
    59  H    0.050177
    60  H    0.058395
    61  H    0.054786
    62  H    0.041319
    63  H    0.041041
    64  H    0.042842
    65  H    0.049058
    66  H    0.031781
    67  H    0.040093
    68  H    0.022780
    69  H    0.034932
    70  H    0.032042
    71  H    0.032789
    72  H    0.035431
    73  H    0.029557
    74  H    0.041867
    75  H    0.063995
    76  H    0.079194
    77  H    0.049956
    78  H    0.069094
    79  H    0.056057
    80  Mg   0.994460
    81  C    0.048693
    82  C   -0.082967
    83  C   -0.068804
    84  C   -0.108784
    85  N   -0.341614
    86  C    0.045972
    87  C   -0.121685
    88  C   -0.075767
    89  C    0.029390
    90  C    0.026869
    91  C    0.023987
    92  C   -0.140453
    93  H    0.018726
    94  N   -0.559374
    95  C    0.189839
    96  C   -0.126489
    97  C   -0.130512
    98  C    0.181276
    99  C    0.043861
   100  C    0.089213
   101  O   -0.240691
   102  C   -0.020803
   103  N   -0.363995
   104  C    0.073141
   105  C   -0.083702
   106  C   -0.059584
   107  C    0.063231
   108  C    0.017232
   109  C   -0.011448
   110  C   -0.064773
   111  N   -0.360494
   112  C    0.130750
   113  C   -0.202731
   114  C   -0.017962
   115  C    0.092111
   116  C    0.097860
   117  C    0.101772
   118  O   -0.185092
   119  C   -0.133363
   120  C    0.263553
   121  O   -0.285051
   122  O   -0.350102
   123  C    0.138302
   124  H   -0.014460
   125  H    0.026610
   126  H   -0.019361
   127  H    0.037165
   128  H    0.028909
   129  H    0.042197
   130  H    0.037575
   131  H    0.042987
   132  H    0.031552
   133  H    0.058169
   134  H    0.053281
   135  H    0.056598
   136  H    0.054088
   137  H    0.028101
   138  H    0.054122
   139  H    0.074582
   140  H    0.050194
   141  H    0.047492
   142  H    0.043293
   143  H    0.027323
   144  H    0.021174
   145  H    0.043985
   146  H    0.041014
   147  H    0.036417
   148  H    0.043309
   149  H    0.035209
   150  H    0.044643
   151  H    0.027518
   152  H    0.034190
   153  H    0.066256
   154  H    0.064453
   155  H    0.073463
   156  H    0.048548
   157  H    0.075979
   158  H    0.049425
 Sum of Mulliken charges =  -0.00000

 Dipole moment (field-independent basis, Debye):
    X=              1.7318    Y=             -1.6476    Z=             -8.4792  Tot=              8.8097
 Quadrupole moment (field-independent basis, Debye-Ang):
   XX=           -413.6211   YY=           -509.6876   ZZ=           -469.4804
   XY=             35.8451   XZ=             22.3254   YZ=            -48.5147

 Normal termination of Gaussian 16 at Sat Sep 18 18:01:11 2021.
