 Gaussian 16, Revision A.03,
 Gaussian 16:  ES64L-G16RevA.03 25-Dec-2016

 --------------------------------
 #p wB97XD/Def2SVP td=(nstates=5)
 --------------------------------

 --------------------------------
 TDDFT excited states in gaussian
 --------------------------------
 Symbolic Z-matrix:
 Charge =  0 Multiplicity = 1

                         Standard orientation:
 ---------------------------------------------------------------------
 Center     Atomic      Atomic             Coordinates (Angstroms)
 Number     Number       Type             X           Y           Z
 ---------------------------------------------------------------------
      1         12           0      -29.887274    0.341587    0.281408
      2          6           0      -27.825379   -1.752413   -1.676647
      3          6           0      -29.864755    2.679489   -2.210954
      4          6           0      -31.219758    2.468763    2.419093
      5          6           0      -29.431617   -1.934513    2.964242
      6          7           0      -29.027319    0.369179   -1.767162
      7          6           0      -28.272714   -0.567221   -2.307437
      8          6           0      -28.191184   -0.309384   -3.801181
      9          6           0      -28.424986    1.246592   -3.910953
     10          6           0      -29.154156    1.485223   -2.536346
     11          6           0      -27.072026    2.015187   -4.160974
     12          6           0      -29.300471   -1.048128   -4.593143
     13          6           0      -29.014769   -1.262956   -6.144313
     14          1           0      -27.741284   -0.739126   -6.813638
     15          7           0      -30.634887    2.193516    0.071364
     16          6           0      -30.616602    3.029075   -1.074777
     17          6           0      -31.368471    4.265806   -0.758073
     18          6           0      -31.695192    4.231045    0.645092
     19          6           0      -31.198700    2.934135    1.154125
     20          6           0      -31.691743    5.318218   -1.759091
     21          6           0      -32.451057    5.238656    1.596044
     22          8           0      -32.728611    5.001220    2.779519
     23          6           0      -32.732867    6.622069    1.085664
     24          7           0      -30.176980    0.325904    2.450392
     25          6           0      -30.792523    1.294630    3.074756
     26          6           0      -31.026536    1.066031    4.541758
     27          6           0      -30.438152   -0.374214    4.746218
     28          6           0      -30.062053   -0.748836    3.277422
     29          6           0      -30.477059    2.215264    5.391963
     30          6           0      -31.413488   -1.383167    5.339410
     31          6           0      -30.832696   -2.386304    6.399413
     32          7           0      -28.903357   -1.557834    0.645783
     33          6           0      -28.852992   -2.375697    1.791609
     34          6           0      -28.239861   -3.611111    1.443218
     35          6           0      -27.653901   -3.379098    0.158065
     36          6           0      -28.118268   -2.168843   -0.291069
     37          6           0      -28.272269   -4.868000    2.264572
     38          6           0      -26.906643   -3.910148   -1.007282
     39          8           0      -26.338785   -4.972790   -1.151464
     40          6           0      -26.805083   -2.740004   -2.097343
     41          6           0      -26.753407   -3.307424   -3.478089
     42          8           0      -27.593998   -3.970828   -4.010037
     43          8           0      -25.512040   -3.051902   -4.090109
     44          6           0      -25.034338   -4.058256   -5.061964
     45          1           0      -29.743108    3.541475   -2.870872
     46          1           0      -31.773780    3.035163    3.169755
     47          1           0      -29.376067   -2.646929    3.790063
     48          1           0      -27.237963   -0.762916   -4.072599
     49          1           0      -29.104689    1.493466   -4.727219
     50          1           0      -26.239344    1.313247   -4.191012
     51          1           0      -26.922767    2.569536   -3.234385
     52          1           0      -27.034760    2.584105   -5.090060
     53          1           0      -30.175883   -0.406223   -4.486438
     54          1           0      -29.477058   -1.996490   -4.085798
     55          1           0      -29.885547   -0.832944   -6.641560
     56          1           0      -29.086343   -2.341072   -6.290036
     57          1           0      -31.521007    5.116797   -2.816013
     58          1           0      -31.112946    6.228349   -1.604256
     59          1           0      -32.763848    5.471258   -1.633031
     60          1           0      -33.671448    6.711556    0.538917
     61          1           0      -31.842064    6.765406    0.472852
     62          1           0      -32.694801    7.274968    1.957226
     63          1           0      -32.115170    1.046803    4.591140
     64          1           0      -29.546384   -0.403274    5.371114
     65          1           0      -29.661444    2.763656    4.919643
     66          1           0      -30.062052    1.738256    6.278966
     67          1           0      -31.244251    2.938950    5.668156
     68          1           0      -31.864060   -1.998392    4.560759
     69          1           0      -32.258568   -0.772608    5.657109
     70          1           0      -29.747670   -2.310337    6.468389
     71          1           0      -31.088497   -3.370209    6.006778
     72          1           0      -31.212348   -2.350633    7.421065
     73          1           0      -27.983906   -4.552149    3.267278
     74          1           0      -27.580181   -5.643492    1.935848
     75          1           0      -29.294199   -5.243046    2.328726
     76          1           0      -25.815146   -2.290178   -2.028344
     77          1           0      -24.991860   -3.580750   -6.040996
     78          1           0      -25.667323   -4.946025   -5.084550
     79          1           0      -24.032899   -4.325655   -4.724840
     80         12           0       29.721435    0.598834   -0.268068
     81          6           0       27.734484   -2.067764    0.776364
     82          6           0       27.238408    2.779763    0.713109
     83          6           0       31.795329    2.957800   -1.218090
     84          6           0       32.575304   -1.667720   -0.241540
     85          7           0       27.617849    0.306721    0.618625
     86          6           0       27.023491   -0.865540    0.993012
     87          6           0       25.646127   -0.625177    1.500784
     88          6           0       25.509358    0.949544    1.517893
     89          6           0       26.879902    1.434562    0.902924
     90          6           0       24.209487    1.494260    0.874104
     91          6           0       25.400485   -1.238372    2.900815
     92          6           0       24.141441   -2.103624    2.899751
     93          1           0       23.064162   -1.807208    3.986312
     94          7           0       29.523559    2.606093   -0.281967
     95          6           0       28.413558    3.349294    0.116877
     96          6           0       28.742112    4.734383   -0.194596
     97          6           0       30.079071    4.816779   -0.804412
     98          6           0       30.528939    3.390214   -0.866109
     99          6           0       27.918373    5.846531    0.225433
    100          6           0       30.746554    6.102321   -1.069161
    101          8           0       30.238675    7.187464   -0.878233
    102          6           0       32.163175    6.226790   -1.510249
    103          7           0       31.806506    0.619435   -0.608679
    104          6           0       32.357276    1.685495   -1.273680
    105          6           0       33.826931    1.433016   -1.536336
    106          6           0       34.123557    0.190799   -0.782592
    107          6           0       32.803723   -0.306324   -0.456273
    108          6           0       34.249027    1.446341   -3.062599
    109          6           0       34.852813    0.454229    0.579464
    110          6           0       35.745640   -0.595325    1.058102
    111          7           0       30.128608   -1.470205    0.141625
    112          6           0       31.287237   -2.252487    0.049349
    113          6           0       30.925038   -3.632703    0.131139
    114          6           0       29.573207   -3.626129    0.453998
    115          6           0       29.123402   -2.258114    0.490960
    116          6           0       31.883350   -4.752734   -0.041963
    117          6           0       28.479593   -4.445634    0.796073
    118          8           0       28.410182   -5.649980    0.899820
    119          6           0       27.262080   -3.508638    0.959491
    120          6           0       26.197964   -3.938991    0.038669
    121          8           0       26.086048   -3.594735   -1.150013
    122          8           0       25.430654   -4.908120    0.643233
    123          6           0       24.247798   -5.428670   -0.022836
    124          1           0       26.387021    3.405363    0.987185
    125          1           0       32.601751    3.639044   -1.500849
    126          1           0       33.454554   -2.314623   -0.272125
    127          1           0       25.003027   -0.894672    0.662518
    128          1           0       25.451182    1.370669    2.521101
    129          1           0       23.564425    0.614797    0.876621
    130          1           0       24.312037    1.987306   -0.092643
    131          1           0       23.759176    2.242130    1.526344
    132          1           0       25.179687   -0.503808    3.675041
    133          1           0       26.297663   -1.807313    3.144019
    134          1           0       24.584917   -3.054949    3.193335
    135          1           0       23.767492   -2.127824    1.877253
    136          1           0       27.033535    5.442431    0.717694
    137          1           0       27.504071    6.463038   -0.572860
    138          1           0       28.465137    6.444529    0.955354
    139          1           0       32.158056    5.488958   -2.312566
    140          1           0       32.811500    5.915613   -0.690712
    141          1           0       32.374702    7.228449   -1.885089
    142          1           0       34.305964    2.307125   -1.096783
    143          1           0       34.581871   -0.637105   -1.323636
    144          1           0       33.433462    1.821565   -3.681072
    145          1           0       34.691508    0.518079   -3.425725
    146          1           0       34.985068    2.214945   -3.296740
    147          1           0       34.109808    0.678819    1.344809
    148          1           0       35.469921    1.350429    0.517370
    149          1           0       36.732082   -0.439126    0.620136
    150          1           0       35.360918   -1.593918    0.848354
    151          1           0       35.983441   -0.422895    2.108274
    152          1           0       32.605010   -4.535678   -0.829372
    153          1           0       31.408942   -5.717985   -0.219685
    154          1           0       32.466435   -4.732672    0.878797
    155          1           0       26.758731   -3.630912    1.918640
    156          1           0       24.370062   -6.090446   -0.880338
    157          1           0       23.588715   -4.602993   -0.290337
    158          1           0       23.788750   -6.072897    0.726144
 ---------------------------------------------------------------------

 SCF Done:  E(RwB97XD) =  -4070.56871487     A.U. after   19 cycles

 Excitation energies and oscillator strengths:

 Excited State   1:      Singlet-A      1.6144 eV  768.00 nm  f=0.3656  <S**2>=0.000
     309 -> 315       -0.19431
     311 -> 313        0.68134
     309 <- 315       -0.12117
 This state for optimization and/or second-order correction.
 Total Energy, E(TD-HF/TD-DFT) =  -4070.50938752
 Copying the excited state density for this state as the 1-particle RhoCI density.

 Excited State   2:      Singlet-A      1.7665 eV  701.85 nm  f=0.3732  <S**2>=0.000
     310 -> 316       -0.19122
     312 -> 314        0.67833
     310 <- 316       -0.11016

 Excited State   3:      Singlet-A      2.1197 eV  584.91 nm  f=0.0967  <S**2>=0.000
     310 -> 314        0.63987
     312 -> 316        0.27486

 Excited State   4:      Singlet-A      2.1299 eV  582.12 nm  f=0.0992  <S**2>=0.000
     309 -> 313        0.63364
     311 -> 315        0.29997

 Excited State   5:      Singlet-A      3.2683 eV  379.35 nm  f=0.0032  <S**2>=0.000
     303 -> 314       -0.16840
     305 -> 314        0.15610
     308 -> 314        0.64092
     308 -> 317        0.10634

 The electronic state is 1-A.
 Alpha  occ. eigenvalues --  -46.95284 -46.94866 -19.30096 -19.28465 -19.25420
 Alpha  occ. eigenvalues --  -19.24446 -19.24316 -19.23397 -19.23320 -19.22405
 Alpha  occ. eigenvalues --  -14.46925 -14.46548 -14.46520 -14.46314 -14.44909
 Alpha  occ. eigenvalues --  -14.44434 -14.43762 -14.42564 -10.42940 -10.42360
 Alpha  occ. eigenvalues --  -10.40857 -10.38757 -10.38199 -10.37650 -10.36336
 Alpha  occ. eigenvalues --  -10.35724 -10.35679 -10.35650 -10.35587 -10.35404
 Alpha  occ. eigenvalues --  -10.35147 -10.35083 -10.34952 -10.34897 -10.34647
 Alpha  occ. eigenvalues --  -10.34579 -10.34457 -10.34058 -10.33889 -10.33660
 Alpha  occ. eigenvalues --  -10.33430 -10.33095 -10.32964 -10.32708 -10.32702
 Alpha  occ. eigenvalues --  -10.32428 -10.32375 -10.32270 -10.32254 -10.32203
 Alpha  occ. eigenvalues --  -10.32172 -10.32068 -10.31983 -10.31977 -10.31948
 Alpha  occ. eigenvalues --  -10.31856 -10.31807 -10.31734 -10.31654 -10.31650
 Alpha  occ. eigenvalues --  -10.31611 -10.31409 -10.31388 -10.31342 -10.31321
 Alpha  occ. eigenvalues --  -10.31204 -10.31125 -10.30819 -10.30743 -10.30671
 Alpha  occ. eigenvalues --  -10.30357 -10.30332 -10.30136 -10.30122 -10.30092
 Alpha  occ. eigenvalues --  -10.29952 -10.29914 -10.29715 -10.29690 -10.29536
 Alpha  occ. eigenvalues --  -10.29404 -10.29360 -10.29061 -10.28785 -10.28751
 Alpha  occ. eigenvalues --  -10.28368  -3.21221  -3.20778  -1.94813  -1.94380
 Alpha  occ. eigenvalues --   -1.94353  -1.94177  -1.93899  -1.93739  -1.17627
 Alpha  occ. eigenvalues --   -1.17304  -1.12777  -1.12286  -1.12060  -1.11697
 Alpha  occ. eigenvalues --   -1.09165  -1.08897  -1.07102  -1.06986  -1.06509
 Alpha  occ. eigenvalues --   -1.05816  -1.05007  -1.03654  -1.03628  -1.03074
 Alpha  occ. eigenvalues --   -0.94634  -0.93728  -0.92649  -0.91457  -0.91153
 Alpha  occ. eigenvalues --   -0.90991  -0.90847  -0.89666  -0.89645  -0.89536
 Alpha  occ. eigenvalues --   -0.89188  -0.89177  -0.88271  -0.87312  -0.87166
 Alpha  occ. eigenvalues --   -0.86451  -0.85905  -0.85576  -0.85375  -0.84840
 Alpha  occ. eigenvalues --   -0.84499  -0.83596  -0.83377  -0.82789  -0.82570
 Alpha  occ. eigenvalues --   -0.81797  -0.80616  -0.80589  -0.79914  -0.79079
 Alpha  occ. eigenvalues --   -0.79066  -0.78279  -0.78242  -0.77341  -0.77287
 Alpha  occ. eigenvalues --   -0.77084  -0.75400  -0.74452  -0.74025  -0.73682
 Alpha  occ. eigenvalues --   -0.71742  -0.71317  -0.71029  -0.70601  -0.69944
 Alpha  occ. eigenvalues --   -0.69473  -0.69227  -0.68633  -0.68408  -0.67944
 Alpha  occ. eigenvalues --   -0.67892  -0.67290  -0.67104  -0.66693  -0.66545
 Alpha  occ. eigenvalues --   -0.65436  -0.64018  -0.63012  -0.62716  -0.62263
 Alpha  occ. eigenvalues --   -0.61474  -0.61453  -0.61082  -0.60974  -0.60569
 Alpha  occ. eigenvalues --   -0.60011  -0.59931  -0.59530  -0.59381  -0.58768
 Alpha  occ. eigenvalues --   -0.58461  -0.58399  -0.57821  -0.57415  -0.57397
 Alpha  occ. eigenvalues --   -0.57136  -0.57011  -0.56367  -0.56171  -0.56146
 Alpha  occ. eigenvalues --   -0.55671  -0.55143  -0.55129  -0.55053  -0.54750
 Alpha  occ. eigenvalues --   -0.54746  -0.54492  -0.54233  -0.54132  -0.54030
 Alpha  occ. eigenvalues --   -0.53919  -0.53680  -0.53665  -0.53587  -0.53269
 Alpha  occ. eigenvalues --   -0.53214  -0.53188  -0.53158  -0.52855  -0.52443
 Alpha  occ. eigenvalues --   -0.52359  -0.52064  -0.51963  -0.51933  -0.51618
 Alpha  occ. eigenvalues --   -0.51349  -0.51174  -0.51059  -0.50831  -0.50775
 Alpha  occ. eigenvalues --   -0.50634  -0.50482  -0.50411  -0.50239  -0.49936
 Alpha  occ. eigenvalues --   -0.49747  -0.49513  -0.49469  -0.49222  -0.49079
 Alpha  occ. eigenvalues --   -0.48943  -0.48926  -0.48721  -0.48568  -0.48547
 Alpha  occ. eigenvalues --   -0.48433  -0.48245  -0.48168  -0.48078  -0.47671
 Alpha  occ. eigenvalues --   -0.47490  -0.47339  -0.47241  -0.46948  -0.46885
 Alpha  occ. eigenvalues --   -0.46755  -0.46520  -0.46462  -0.46156  -0.45974
 Alpha  occ. eigenvalues --   -0.45881  -0.45638  -0.45590  -0.45416  -0.45317
 Alpha  occ. eigenvalues --   -0.45165  -0.45008  -0.44984  -0.44860  -0.44706
 Alpha  occ. eigenvalues --   -0.44527  -0.44466  -0.44205  -0.43987  -0.43931
 Alpha  occ. eigenvalues --   -0.43649  -0.43607  -0.43538  -0.43453  -0.43368
 Alpha  occ. eigenvalues --   -0.43259  -0.43085  -0.43055  -0.42895  -0.42588
 Alpha  occ. eigenvalues --   -0.42167  -0.42016  -0.41885  -0.41110  -0.40964
 Alpha  occ. eigenvalues --   -0.40685  -0.40450  -0.39708  -0.39651  -0.39593
 Alpha  occ. eigenvalues --   -0.39301  -0.39069  -0.38371  -0.38371  -0.38299
 Alpha  occ. eigenvalues --   -0.37667  -0.37342  -0.36348  -0.36211  -0.35777
 Alpha  occ. eigenvalues --   -0.35736  -0.35205  -0.35200  -0.33916  -0.33600
 Alpha  occ. eigenvalues --   -0.33404  -0.32662  -0.32505  -0.32042  -0.32023
 Alpha  occ. eigenvalues --   -0.31691  -0.31539  -0.30384  -0.26229  -0.25660
 Alpha  occ. eigenvalues --   -0.23377  -0.23149
 Alpha virt. eigenvalues --   -0.07520  -0.06810  -0.00597  -0.00090   0.01893
 Alpha virt. eigenvalues --    0.02314   0.04462   0.04889   0.05836   0.06042
 Alpha virt. eigenvalues --    0.06492   0.06994   0.07453   0.07936   0.08116

 Mulliken charges:
               1
     1  Mg   0.949657
     2  C    0.045625
     3  C   -0.095108
     4  C   -0.065657
     5  C   -0.086127
     6  N   -0.314122
     7  C    0.001058
     8  C   -0.120526
     9  C   -0.103288
    10  C    0.089430
    11  C    0.035025
    12  C   -0.006397
    13  C   -0.094843
    14  H    0.041431
    15  N   -0.554482
    16  C    0.176003
    17  C   -0.150974
    18  C   -0.082857
    19  C    0.208164
    20  C    0.035127
    21  C    0.082080
    22  O   -0.237306
    23  C   -0.013322
    24  N   -0.304633
    25  C   -0.029597
    26  C   -0.047690
    27  C   -0.103703
    28  C    0.058278
    29  C    0.030146
    30  C   -0.003896
    31  C   -0.057105
    32  N   -0.438369
    33  C    0.134329
    34  C   -0.193303
    35  C   -0.035286
    36  C    0.077294
    37  C    0.080557
    38  C    0.135330
    39  O   -0.202634
    40  C   -0.093244
    41  C    0.221043
    42  O   -0.208193
    43  O   -0.410350
    44  C    0.136759
    45  H    0.001490
    46  H    0.012942
    47  H   -0.022039
    48  H    0.032019
    49  H    0.036197
    50  H    0.038425
    51  H    0.032951
    52  H    0.048368
    53  H    0.023409
    54  H    0.054552
    55  H    0.041795
    56  H    0.065400
    57  H    0.043001
    58  H    0.065256
    59  H    0.060747
    60  H    0.080028
    61  H    0.041671
    62  H    0.065177
    63  H    0.042239
    64  H    0.040182
    65  H    0.046668
    66  H    0.033118
    67  H    0.056295
    68  H    0.030816
    69  H    0.022366
    70  H    0.035966
    71  H    0.038519
    72  H    0.045675
    73  H    0.035933
    74  H    0.058414
    75  H    0.050933
    76  H    0.080251
    77  H    0.051956
    78  H    0.069243
    79  H    0.055706
    80  Mg   0.953376
    81  C    0.048284
    82  C   -0.057495
    83  C   -0.121985
    84  C   -0.096265
    85  N   -0.342828
    86  C   -0.024016
    87  C   -0.029623
    88  C   -0.145872
    89  C    0.045710
    90  C    0.012172
    91  C    0.023811
    92  C   -0.137340
    93  H    0.039232
    94  N   -0.537453
    95  C    0.202090
    96  C   -0.171493
    97  C   -0.064000
    98  C    0.269855
    99  C    0.097495
   100  C   -0.011508
   101  O   -0.239024
   102  C    0.006758
   103  N   -0.368879
   104  C    0.069631
   105  C   -0.083363
   106  C   -0.081664
   107  C    0.063089
   108  C    0.032039
   109  C    0.003083
   110  C   -0.018636
   111  N   -0.407099
   112  C    0.111847
   113  C   -0.185354
   114  C   -0.015225
   115  C    0.112834
   116  C    0.089641
   117  C    0.108512
   118  O   -0.187591
   119  C   -0.127703
   120  C    0.253662
   121  O   -0.269052
   122  O   -0.361185
   123  C    0.148982
   124  H    0.001505
   125  H   -0.005740
   126  H   -0.002767
   127  H    0.049541
   128  H    0.042579
   129  H    0.038440
   130  H    0.051704
   131  H    0.032383
   132  H    0.051880
   133  H    0.051952
   134  H    0.064258
   135  H    0.053274
   136  H    0.001032
   137  H    0.057460
   138  H    0.064842
   139  H    0.039578
   140  H    0.062488
   141  H    0.058201
   142  H    0.032783
   143  H    0.027077
   144  H    0.034028
   145  H    0.045462
   146  H    0.027818
   147  H    0.039410
   148  H    0.019984
   149  H    0.027117
   150  H    0.029232
   151  H    0.034559
   152  H    0.036182
   153  H    0.067949
   154  H    0.051127
   155  H    0.050911
   156  H    0.058156
   157  H    0.047294
   158  H    0.050852
 Sum of Mulliken charges =  -0.00000

 Dipole moment (field-independent basis, Debye):
    X=             -0.2718    Y=              6.1445    Z=              0.8431  Tot=              6.2080
 Quadrupole moment (field-independent basis, Debye-Ang):
   XX=           -231.1924   YY=           -562.1014   ZZ=           -487.1959
   XY=           -147.8336   XZ=              0.1849   YZ=            -19.3740

 Normal termination of Gaussian 16 at Sun Sep 19 00:27:46 2021.
