 Gaussian 16, Revision A.03,
 Gaussian 16:  ES64L-G16RevA.03 25-Dec-2016

 --------------------------------
 #p wB97XD/Def2SVP td=(nstates=5)
 --------------------------------

 --------------------------------
 TDDFT excited states in gaussian
 --------------------------------
 Symbolic Z-matrix:
 Charge =  0 Multiplicity = 1

                         Standard orientation:
 ---------------------------------------------------------------------
 Center     Atomic      Atomic             Coordinates (Angstroms)
 Number     Number       Type             X           Y           Z
 ---------------------------------------------------------------------
      1         12           0      -24.082632    0.538339    0.226358
      2          6           0      -23.067141   -2.537211   -1.214648
      3          6           0      -20.975182    1.735584   -0.435443
      4          6           0      -25.310670    3.650451    0.831388
      5          6           0      -27.318415   -0.699009    0.333217
      6          7           0      -22.334960   -0.369567   -0.881755
      7          6           0      -22.066080   -1.646167   -1.298980
      8          6           0      -20.663574   -1.798367   -1.758068
      9          6           0      -19.946152   -0.492710   -1.172193
     10          6           0      -21.125861    0.348806   -0.822982
     11          6           0      -19.045576   -0.821773    0.007496
     12          6           0      -20.698458   -1.960262   -3.285875
     13          6           0      -19.976259   -3.229500   -3.906663
     14          1           0      -18.883147   -3.081834   -5.007573
     15          7           0      -23.305318    2.447549    0.261734
     16          6           0      -21.946214    2.707495    0.037501
     17          6           0      -21.704846    4.078430    0.373997
     18          6           0      -22.951522    4.699575    0.722705
     19          6           0      -23.914284    3.566312    0.686027
     20          6           0      -20.294852    4.653849    0.339302
     21          6           0      -23.226502    6.141338    1.087346
     22          8           0      -22.178905    6.842786    1.192174
     23          6           0      -24.595583    6.863440    1.235670
     24          7           0      -26.061381    1.395265    0.555381
     25          6           0      -26.293373    2.700985    0.814583
     26          6           0      -27.798849    3.029881    0.996477
     27          6           0      -28.429745    1.595666    0.944790
     28          6           0      -27.172598    0.697013    0.526582
     29          6           0      -28.007420    3.756279    2.313210
     30          6           0      -29.554190    1.422988   -0.030184
     31          6           0      -30.891679    1.189876    0.618434
     32          7           0      -25.020669   -1.224323   -0.127195
     33          6           0      -26.346360   -1.659594   -0.005344
     34          6           0      -26.457516   -3.020736   -0.150283
     35          6           0      -25.180938   -3.423856   -0.592397
     36          6           0      -24.375225   -2.288327   -0.635171
     37          6           0      -27.686122   -3.810440    0.248771
     38          6           0      -24.364342   -4.617427   -0.938950
     39          8           0      -24.676348   -5.767633   -0.951533
     40          6           0      -23.004107   -3.987072   -1.423400
     41          6           0      -21.895180   -4.864860   -0.885433
     42          8           0      -21.253649   -5.672594   -1.557333
     43          8           0      -21.667574   -4.586137    0.484151
     44          6           0      -20.520729   -5.319313    1.019345
     45          1           0      -19.933774    2.064872   -0.435304
     46          1           0      -25.732710    4.613640    1.127694
     47          1           0      -28.318342   -1.086736    0.130757
     48          1           0      -20.234938   -2.700114   -1.320593
     49          1           0      -19.327264   -0.064205   -1.960069
     50          1           0      -19.450840   -1.598824    0.654157
     51          1           0      -18.984496    0.059783    0.646512
     52          1           0      -18.019815   -1.058707   -0.274862
     53          1           0      -20.248721   -1.063246   -3.711304
     54          1           0      -21.700413   -1.907866   -3.711839
     55          1           0      -20.836711   -3.736419   -4.344189
     56          1           0      -19.681229   -3.926494   -3.123164
     57          1           0      -19.804868    4.434178   -0.609269
     58          1           0      -19.742407    4.144251    1.128650
     59          1           0      -20.191595    5.738469    0.393397
     60          1           0      -25.009535    6.423609    2.142464
     61          1           0      -25.209227    6.624416    0.367024
     62          1           0      -24.493524    7.947492    1.292456
     63          1           0      -28.210000    3.675228    0.220626
     64          1           0      -28.669435    1.259501    1.953246
     65          1           0      -27.304169    4.588599    2.345901
     66          1           0      -27.793313    3.057825    3.122809
     67          1           0      -29.007526    4.089186    2.588221
     68          1           0      -29.432200    0.564716   -0.690937
     69          1           0      -29.714664    2.232135   -0.742394
     70          1           0      -31.586164    1.932455    0.227475
     71          1           0      -30.876576    1.367517    1.693757
     72          1           0      -31.274407    0.175304    0.502669
     73          1           0      -27.360257   -4.847468    0.335511
     74          1           0      -28.482277   -3.739730   -0.491952
     75          1           0      -27.999436   -3.372276    1.196109
     76          1           0      -23.015731   -4.225187   -2.487639
     77          1           0      -20.078640   -4.778668    1.856329
     78          1           0      -19.696705   -5.342872    0.307642
     79          1           0      -20.760195   -6.347133    1.293388
     80         12           0       24.519662    0.404180   -0.179737
     81          6           0       23.041560   -2.039013    1.837232
     82          6           0       23.055450    2.793961    1.833163
     83          6           0       25.332484    2.790040   -2.481488
     84          6           0       25.353631   -2.078193   -2.445856
     85          7           0       23.304447    0.323352    1.637829
     86          6           0       23.020312   -0.756517    2.377061
     87          6           0       22.482646   -0.448758    3.782261
     88          6           0       22.308964    1.116908    3.712046
     89          6           0       23.030871    1.506218    2.304063
     90          6           0       20.871398    1.673211    3.799365
     91          6           0       23.375232   -0.930487    4.926181
     92          6           0       22.600166   -1.207940    6.227092
     93          1           0       21.084961   -0.963821    6.265263
     94          7           0       24.346519    2.501434   -0.278003
     95          6           0       23.756688    3.333042    0.701740
     96          6           0       23.907588    4.711026    0.279348
     97          6           0       24.520809    4.730949   -1.028658
     98          6           0       24.796013    3.322265   -1.307074
     99          6           0       23.533815    5.846499    1.191964
    100          6           0       24.993640    5.957008   -1.931743
    101          8           0       25.626755    5.834532   -2.952163
    102          6           0       24.590346    7.335379   -1.454771
    103          7           0       25.143464    0.362792   -2.191558
    104          6           0       25.457995    1.464014   -2.932821
    105          6           0       26.025022    1.086546   -4.350809
    106          6           0       26.072475   -0.437541   -4.255544
    107          6           0       25.483322   -0.726284   -2.887648
    108          6           0       25.380206    1.656913   -5.677875
    109          6           0       27.520667   -0.962787   -4.394005
    110          6           0       28.439311   -0.955621   -3.152052
    111          7           0       24.421823   -1.685303   -0.290729
    112          6           0       24.799144   -2.567450   -1.269818
    113          6           0       24.521907   -3.911793   -0.888754
    114          6           0       23.794151   -3.768848    0.377003
    115          6           0       23.757553   -2.455397    0.642311
    116          6           0       24.806757   -5.188951   -1.546457
    117          6           0       23.016485   -4.463605    1.393630
    118          8           0       22.847030   -5.674144    1.574447
    119          6           0       22.490492   -3.398046    2.399872
    120          6           0       21.035208   -3.431231    2.503182
    121          8           0       20.242958   -2.955115    1.697021
    122          8           0       20.676159   -4.274991    3.524194
    123          6           0       19.302458   -4.811456    3.581032
    124          1           0       22.535713    3.476213    2.509385
    125          1           0       25.761989    3.546269   -3.141819
    126          1           0       25.701492   -2.870037   -3.112455
    127          1           0       21.464928   -0.816306    3.911671
    128          1           0       22.946731    1.654787    4.412591
    129          1           0       20.991158    2.391133    4.610556
    130          1           0       20.169641    0.886222    4.074534
    131          1           0       20.572791    2.111877    2.847180
    132          1           0       24.186139   -0.233519    5.134289
    133          1           0       23.875695   -1.857973    4.646673
    134          1           0       23.123276   -0.542926    6.914581
    135          1           0       22.814625   -2.200957    6.624673
    136          1           0       22.998389    5.386515    2.022607
    137          1           0       22.907933    6.551235    0.644082
    138          1           0       24.397998    6.404811    1.555046
    139          1           0       23.548692    7.625329   -1.596353
    140          1           0       25.263629    8.055708   -1.919428
    141          1           0       24.824198    7.278756   -0.391716
    142          1           0       27.015461    1.537949   -4.297427
    143          1           0       25.444742   -0.813895   -5.062456
    144          1           0       25.180814    0.909498   -6.444897
    145          1           0       26.093366    2.346007   -6.129144
    146          1           0       24.494911    2.227336   -5.395285
    147          1           0       27.963651   -0.371726   -5.194660
    148          1           0       27.408567   -1.979372   -4.772097
    149          1           0       29.404986   -0.622539   -3.531498
    150          1           0       28.593142   -1.945397   -2.722806
    151          1           0       28.065769   -0.360053   -2.319812
    152          1           0       25.138818   -5.887368   -0.779104
    153          1           0       25.547946   -5.153143   -2.344925
    154          1           0       23.876568   -5.651178   -1.877398
    155          1           0       22.984302   -3.656074    3.336595
    156          1           0       18.669878   -4.408789    2.789192
    157          1           0       18.867987   -4.506354    4.533320
    158          1           0       19.495780   -5.878273    3.474303
 ---------------------------------------------------------------------

 SCF Done:  E(RwB97XD) =  -4070.62176066     A.U. after   20 cycles

 Excitation energies and oscillator strengths:

 Excited State   1:      Singlet-A      1.6248 eV  763.05 nm  f=0.3552  <S**2>=0.000
     309 -> 315       -0.17973
     311 -> 313        0.68477
     309 <- 315       -0.11749
 This state for optimization and/or second-order correction.
 Total Energy, E(TD-HF/TD-DFT) =  -4070.56204871
 Copying the excited state density for this state as the 1-particle RhoCI density.

 Excited State   2:      Singlet-A      1.6570 eV  748.26 nm  f=0.4153  <S**2>=0.000
     310 -> 316        0.18732
     312 -> 314        0.68176
     310 <- 316        0.11633

 Excited State   3:      Singlet-A      2.0777 eV  596.74 nm  f=0.1518  <S**2>=0.000
     310 -> 314        0.65642
     312 -> 316       -0.23987

 Excited State   4:      Singlet-A      2.1634 eV  573.09 nm  f=0.1555  <S**2>=0.000
     309 -> 313        0.64648
     311 -> 315        0.27021

 Excited State   5:      Singlet-A      3.1037 eV  399.47 nm  f=0.0053  <S**2>=0.000
     307 -> 314       -0.12858
     308 -> 314        0.67537

 The electronic state is 1-A.
 Alpha  occ. eigenvalues --  -46.95373 -46.94588 -19.30866 -19.29112 -19.25974
 Alpha  occ. eigenvalues --  -19.24957 -19.24889 -19.23922 -19.23763 -19.23376
 Alpha  occ. eigenvalues --  -14.46997 -14.46873 -14.46830 -14.46464 -14.44709
 Alpha  occ. eigenvalues --  -14.44059 -14.43623 -14.42774 -10.44257 -10.42506
 Alpha  occ. eigenvalues --  -10.40160 -10.39687 -10.39499 -10.39106 -10.36069
 Alpha  occ. eigenvalues --  -10.35410 -10.35131 -10.34919 -10.34908 -10.34895
 Alpha  occ. eigenvalues --  -10.34886 -10.34746 -10.34721 -10.34711 -10.34656
 Alpha  occ. eigenvalues --  -10.34561 -10.34379 -10.33896 -10.33072 -10.32876
 Alpha  occ. eigenvalues --  -10.32842 -10.32826 -10.32718 -10.32713 -10.32596
 Alpha  occ. eigenvalues --  -10.32584 -10.32452 -10.32437 -10.32374 -10.32293
 Alpha  occ. eigenvalues --  -10.32277 -10.32266 -10.32147 -10.32044 -10.31869
 Alpha  occ. eigenvalues --  -10.31807 -10.31707 -10.31694 -10.31690 -10.31574
 Alpha  occ. eigenvalues --  -10.31455 -10.31403 -10.31267 -10.31155 -10.31096
 Alpha  occ. eigenvalues --  -10.30935 -10.30929 -10.30922 -10.30877 -10.30821
 Alpha  occ. eigenvalues --  -10.30640 -10.30467 -10.30384 -10.30275 -10.30187
 Alpha  occ. eigenvalues --  -10.30187 -10.29969 -10.29882 -10.29832 -10.29695
 Alpha  occ. eigenvalues --  -10.29659 -10.29325 -10.29292 -10.29141 -10.29014
 Alpha  occ. eigenvalues --  -10.28796  -3.21379  -3.20551  -1.94948  -1.94507
 Alpha  occ. eigenvalues --   -1.94352  -1.94141  -1.93671  -1.93528  -1.17762
 Alpha  occ. eigenvalues --   -1.17252  -1.14289  -1.13800  -1.11100  -1.10178
 Alpha  occ. eigenvalues --   -1.09866  -1.08830  -1.07268  -1.06441  -1.06306
 Alpha  occ. eigenvalues --   -1.05406  -1.05324  -1.04817  -1.04473  -1.03056
 Alpha  occ. eigenvalues --   -0.95298  -0.94050  -0.91790  -0.91270  -0.91029
 Alpha  occ. eigenvalues --   -0.90960  -0.90643  -0.90071  -0.89807  -0.89016
 Alpha  occ. eigenvalues --   -0.88978  -0.88389  -0.88025  -0.87921  -0.86786
 Alpha  occ. eigenvalues --   -0.86215  -0.86121  -0.85323  -0.84576  -0.84219
 Alpha  occ. eigenvalues --   -0.83878  -0.83870  -0.82948  -0.82674  -0.82463
 Alpha  occ. eigenvalues --   -0.82129  -0.80090  -0.79784  -0.79388  -0.79041
 Alpha  occ. eigenvalues --   -0.78836  -0.78747  -0.78434  -0.77822  -0.77475
 Alpha  occ. eigenvalues --   -0.76959  -0.75534  -0.74418  -0.74224  -0.73067
 Alpha  occ. eigenvalues --   -0.71726  -0.71388  -0.70932  -0.70411  -0.69674
 Alpha  occ. eigenvalues --   -0.69649  -0.69266  -0.68255  -0.68063  -0.67685
 Alpha  occ. eigenvalues --   -0.67391  -0.66957  -0.66708  -0.66622  -0.66439
 Alpha  occ. eigenvalues --   -0.65728  -0.65123  -0.63391  -0.62540  -0.62078
 Alpha  occ. eigenvalues --   -0.61775  -0.61619  -0.61073  -0.61031  -0.60980
 Alpha  occ. eigenvalues --   -0.60275  -0.60098  -0.59654  -0.59396  -0.58835
 Alpha  occ. eigenvalues --   -0.58243  -0.57814  -0.57799  -0.57642  -0.57377
 Alpha  occ. eigenvalues --   -0.57112  -0.56867  -0.56606  -0.56329  -0.55846
 Alpha  occ. eigenvalues --   -0.55616  -0.55535  -0.55270  -0.55180  -0.54785
 Alpha  occ. eigenvalues --   -0.54645  -0.54612  -0.54254  -0.54244  -0.54052
 Alpha  occ. eigenvalues --   -0.54020  -0.53889  -0.53687  -0.53543  -0.53059
 Alpha  occ. eigenvalues --   -0.52830  -0.52730  -0.52576  -0.52484  -0.52260
 Alpha  occ. eigenvalues --   -0.52171  -0.52009  -0.51841  -0.51617  -0.51615
 Alpha  occ. eigenvalues --   -0.51513  -0.51307  -0.50965  -0.50906  -0.50867
 Alpha  occ. eigenvalues --   -0.50576  -0.50443  -0.50280  -0.50142  -0.50025
 Alpha  occ. eigenvalues --   -0.49945  -0.49685  -0.49546  -0.49174  -0.49045
 Alpha  occ. eigenvalues --   -0.48857  -0.48671  -0.48565  -0.48438  -0.48186
 Alpha  occ. eigenvalues --   -0.48033  -0.47967  -0.47846  -0.47779  -0.47701
 Alpha  occ. eigenvalues --   -0.47556  -0.47449  -0.47265  -0.47189  -0.47142
 Alpha  occ. eigenvalues --   -0.46934  -0.46828  -0.46561  -0.46235  -0.46000
 Alpha  occ. eigenvalues --   -0.45902  -0.45877  -0.45665  -0.45588  -0.45318
 Alpha  occ. eigenvalues --   -0.45215  -0.45147  -0.44978  -0.44736  -0.44655
 Alpha  occ. eigenvalues --   -0.44641  -0.44433  -0.44386  -0.44334  -0.44267
 Alpha  occ. eigenvalues --   -0.43995  -0.43917  -0.43667  -0.43487  -0.43425
 Alpha  occ. eigenvalues --   -0.43404  -0.43047  -0.43009  -0.42792  -0.42511
 Alpha  occ. eigenvalues --   -0.42150  -0.42051  -0.41814  -0.40976  -0.40692
 Alpha  occ. eigenvalues --   -0.40429  -0.40300  -0.40167  -0.39759  -0.39744
 Alpha  occ. eigenvalues --   -0.39595  -0.39510  -0.39281  -0.38771  -0.38385
 Alpha  occ. eigenvalues --   -0.38044  -0.37686  -0.37390  -0.36695  -0.36308
 Alpha  occ. eigenvalues --   -0.35738  -0.35502  -0.35490  -0.33994  -0.33559
 Alpha  occ. eigenvalues --   -0.33129  -0.33097  -0.32792  -0.32565  -0.32178
 Alpha  occ. eigenvalues --   -0.31968  -0.31788  -0.30834  -0.26336  -0.25418
 Alpha  occ. eigenvalues --   -0.23474  -0.23104
 Alpha virt. eigenvalues --   -0.07705  -0.07270   0.00067   0.00623   0.02305
 Alpha virt. eigenvalues --    0.02652   0.04424   0.04598   0.04989   0.05687
 Alpha virt. eigenvalues --    0.06266   0.07432   0.07450   0.07779   0.08148

 Mulliken charges:
               1
     1  Mg   0.972504
     2  C    0.037541
     3  C   -0.077579
     4  C   -0.047496
     5  C   -0.092972
     6  N   -0.359443
     7  C   -0.051740
     8  C   -0.053798
     9  C   -0.081827
    10  C    0.068472
    11  C    0.030572
    12  C    0.005034
    13  C   -0.116284
    14  H    0.047985
    15  N   -0.473611
    16  C    0.150696
    17  C   -0.148717
    18  C   -0.063171
    19  C    0.180190
    20  C    0.070532
    21  C    0.021631
    22  O   -0.276302
    23  C    0.023516
    24  N   -0.303604
    25  C    0.005320
    26  C   -0.045727
    27  C   -0.064933
    28  C    0.055344
    29  C    0.009271
    30  C   -0.002893
    31  C   -0.061516
    32  N   -0.466729
    33  C    0.108672
    34  C   -0.190710
    35  C   -0.079796
    36  C    0.147943
    37  C    0.086687
    38  C    0.122441
    39  O   -0.159456
    40  C   -0.057536
    41  C    0.245480
    42  O   -0.241398
    43  O   -0.390694
    44  C    0.140042
    45  H    0.005745
    46  H   -0.060380
    47  H    0.006943
    48  H    0.035240
    49  H    0.038510
    50  H    0.038022
    51  H    0.024508
    52  H    0.047560
    53  H    0.031362
    54  H    0.047663
    55  H    0.050623
    56  H    0.054838
    57  H    0.034271
    58  H    0.046785
    59  H    0.065079
    60  H    0.062905
    61  H    0.064282
    62  H    0.063544
    63  H    0.043474
    64  H    0.043085
    65  H    0.033502
    66  H    0.024400
    67  H    0.040190
    68  H    0.030973
    69  H    0.026656
    70  H    0.031337
    71  H    0.020864
    72  H    0.039957
    73  H    0.062308
    74  H    0.052057
    75  H    0.046476
    76  H    0.069853
    77  H    0.047278
    78  H    0.043995
    79  H    0.064148
    80  Mg   0.960032
    81  C   -0.000769
    82  C   -0.090074
    83  C   -0.073911
    84  C   -0.086984
    85  N   -0.357091
    86  C   -0.011427
    87  C   -0.047804
    88  C   -0.148987
    89  C    0.067734
    90  C    0.032219
    91  C    0.017147
    92  C   -0.110770
    93  H    0.046845
    94  N   -0.477819
    95  C    0.165353
    96  C   -0.178446
    97  C   -0.089920
    98  C    0.129347
    99  C    0.057000
   100  C    0.082209
   101  O   -0.208408
   102  C   -0.022403
   103  N   -0.337861
   104  C    0.039765
   105  C   -0.081612
   106  C   -0.049191
   107  C    0.051043
   108  C    0.022589
   109  C   -0.042533
   110  C   -0.033363
   111  N   -0.449854
   112  C    0.142078
   113  C   -0.165011
   114  C   -0.034700
   115  C    0.132257
   116  C    0.085490
   117  C    0.094046
   118  O   -0.220679
   119  C   -0.058958
   120  C    0.274341
   121  O   -0.254773
   122  O   -0.379427
   123  C    0.128350
   124  H    0.001353
   125  H    0.020121
   126  H   -0.015895
   127  H    0.038846
   128  H    0.031193
   129  H    0.040087
   130  H    0.043103
   131  H    0.055431
   132  H    0.031063
   133  H    0.031049
   134  H    0.040495
   135  H    0.054367
   136  H    0.029127
   137  H    0.047946
   138  H    0.067816
   139  H    0.082028
   140  H    0.053781
   141  H    0.031768
   142  H    0.039753
   143  H    0.036116
   144  H    0.039825
   145  H    0.035658
   146  H    0.050974
   147  H    0.030136
   148  H    0.031105
   149  H    0.040358
   150  H    0.037216
   151  H    0.046608
   152  H    0.052934
   153  H    0.034610
   154  H    0.057853
   155  H    0.073247
   156  H    0.066908
   157  H    0.054422
   158  H    0.073527
 Sum of Mulliken charges =  -0.00000

 Dipole moment (field-independent basis, Debye):
    X=             -0.2791    Y=              5.5641    Z=              4.1271  Tot=              6.9332
 Quadrupole moment (field-independent basis, Debye-Ang):
   XX=           -307.8758   YY=           -566.4039   ZZ=           -486.3950
   XY=            -26.8405   XZ=            -21.5630   YZ=              2.7146

 Normal termination of Gaussian 16 at Sun Sep 19 19:46:17 2021.
