 Gaussian 16, Revision A.03,
 Gaussian 16:  ES64L-G16RevA.03 25-Dec-2016

 --------------------------------
 #p wB97XD/Def2SVP td=(nstates=5)
 --------------------------------

 --------------------------------
 TDDFT excited states in gaussian
 --------------------------------
 Symbolic Z-matrix:
 Charge =  0 Multiplicity = 1

                         Standard orientation:
 ---------------------------------------------------------------------
 Center     Atomic      Atomic             Coordinates (Angstroms)
 Number     Number       Type             X           Y           Z
 ---------------------------------------------------------------------
      1         12           0       18.352247   -0.730093   -0.007502
      2          6           0       15.691654    1.657689    0.262139
      3          6           0       20.169116    1.228809    2.172687
      4          6           0       20.947947   -2.566540   -0.759175
      5          6           0       16.401631   -2.395140   -2.338413
      6          7           0       18.059477    1.430135    0.905179
      7          6           0       16.850456    2.070971    0.931922
      8          6           0       16.883632    3.194180    2.002762
      9          6           0       18.354719    3.105481    2.588719
     10          6           0       18.961606    1.855924    1.852335
     11          6           0       19.303600    4.363631    2.404663
     12          6           0       15.816362    3.070620    3.122796
     13          6           0       15.076352    4.299809    3.514633
     14          1           0       15.581899    5.758702    3.196442
     15          7           0       20.360083   -0.696463    0.611342
     16          6           0       20.913470    0.092024    1.619830
     17          6           0       22.347677   -0.231707    1.743703
     18          6           0       22.541835   -1.431352    0.956829
     19          6           0       21.270009   -1.610276    0.218643
     20          6           0       23.347340    0.498791    2.588251
     21          6           0       23.768523   -2.362243    0.810129
     22          8           0       23.735198   -3.523748    0.351774
     23          6           0       25.039807   -1.911053    1.408744
     24          7           0       18.614802   -2.171638   -1.364032
     25          6           0       19.858397   -2.744327   -1.516515
     26          6           0       19.789987   -3.999134   -2.430414
     27          6           0       18.215774   -4.135394   -2.630869
     28          6           0       17.689141   -2.827855   -2.065248
     29          6           0       20.601935   -3.980299   -3.789331
     30          6           0       17.535636   -5.326780   -1.975234
     31          6           0       16.920891   -6.360050   -2.942452
     32          7           0       16.376311   -0.574567   -0.742582
     33          6           0       15.739192   -1.312292   -1.712107
     34          6           0       14.411219   -0.745875   -1.982168
     35          6           0       14.356933    0.378158   -1.177199
     36          6           0       15.563677    0.447688   -0.445877
     37          6           0       13.372166   -1.200839   -2.953089
     38          6           0       13.484875    1.437040   -0.815276
     39          8           0       12.278948    1.679571   -1.105864
     40          6           0       14.272500    2.285685    0.090383
     41          6           0       14.258383    3.711318   -0.391046
     42          8           0       14.816222    4.115512   -1.353374
     43          8           0       13.579855    4.473257    0.466578
     44          6           0       13.172737    5.778945    0.071687
     45          1           0       20.817130    1.794444    2.845675
     46          1           0       21.709169   -3.283741   -1.076002
     47          1           0       15.827926   -2.881022   -3.129367
     48          1           0       16.722194    4.126138    1.459748
     49          1           0       18.316325    2.880542    3.654143
     50          1           0       18.819882    5.260559    2.018847
     51          1           0       20.036032    4.093351    1.642615
     52          1           0       19.833846    4.579764    3.332644
     53          1           0       16.232814    2.720165    4.067897
     54          1           0       15.016669    2.375738    2.868035
     55          1           0       15.002272    4.352948    4.601236
     56          1           0       14.071083    4.215229    3.102788
     57          1           0       24.189864    0.804168    1.968149
     58          1           0       23.699792   -0.217098    3.330807
     59          1           0       22.872877    1.271931    3.193486
     60          1           0       25.341871   -1.001960    0.888643
     61          1           0       25.766965   -2.681238    1.152674
     62          1           0       24.991011   -1.874999    2.496715
     63          1           0       20.129254   -4.827604   -1.807794
     64          1           0       18.042494   -4.203682   -3.704793
     65          1           0       21.135399   -3.036219   -3.893975
     66          1           0       19.991400   -4.233509   -4.656915
     67          1           0       21.314705   -4.804018   -3.746895
     68          1           0       16.827126   -5.106669   -1.176569
     69          1           0       18.314388   -5.877866   -1.449077
     70          1           0       15.929384   -6.739271   -2.695860
     71          1           0       17.492223   -7.280084   -2.816189
     72          1           0       16.860113   -6.048976   -3.984477
     73          1           0       13.528494   -2.227933   -3.284088
     74          1           0       13.472262   -0.653410   -3.890208
     75          1           0       12.407835   -0.947770   -2.512668
     76          1           0       13.781508    2.218606    1.060867
     77          1           0       12.344610    5.640486   -0.624824
     78          1           0       13.948234    6.267681   -0.518282
     79          1           0       12.795525    6.348186    0.921676
     80         12           0      -18.544195   -0.233829    0.499850
     81          6           0      -15.799992    1.714393   -0.533214
     82          6           0      -19.854656    0.266191   -2.682363
     83          6           0      -20.966577   -2.410965    1.195339
     84          6           0      -16.627156   -1.310005    3.185032
     85          7           0      -17.757422    0.757739   -1.428136
     86          6           0      -16.682959    1.605427   -1.614806
     87          6           0      -16.744862    2.468606   -2.857434
     88          6           0      -18.060932    2.018926   -3.535653
     89          6           0      -18.610021    0.947776   -2.537221
     90          6           0      -19.090143    3.190657   -3.804588
     91          6           0      -15.516672    2.352550   -3.866504
     92          6           0      -14.795013    0.999083   -3.971094
     93          1           0      -15.070420    0.109471   -5.219421
     94          7           0      -20.150153   -0.943581   -0.570126
     95          6           0      -20.553548   -0.580333   -1.823543
     96          6           0      -21.836109   -1.223003   -2.142904
     97          6           0      -22.185034   -2.016820   -1.007643
     98          6           0      -21.051475   -1.810750   -0.054678
     99          6           0      -22.587029   -1.004893   -3.451077
    100          6           0      -23.471628   -2.921673   -1.071194
    101          8           0      -24.110060   -2.936911   -2.114374
    102          6           0      -23.858444   -3.848912    0.156668
    103          7           0      -18.692574   -1.714293    1.884261
    104          6           0      -19.883538   -2.405219    2.095607
    105          6           0      -19.790112   -3.312724    3.448432
    106          6           0      -18.270553   -2.983832    3.916403
    107          6           0      -17.854468   -1.936537    2.934272
    108          6           0      -20.874045   -2.935066    4.500582
    109          6           0      -17.275096   -4.222077    3.908976
    110          6           0      -16.452150   -4.523117    5.171172
    111          7           0      -16.637987    0.195052    1.300809
    112          6           0      -15.961331   -0.306819    2.382898
    113          6           0      -14.624157    0.321226    2.432652
    114          6           0      -14.595637    1.223023    1.335212
    115          6           0      -15.840388    1.050267    0.667835
    116          6           0      -13.518291    0.053996    3.415748
    117          6           0      -13.705907    2.159551    0.623079
    118          8           0      -12.590692    2.630304    0.890561
    119          6           0      -14.571049    2.658105   -0.524866
    120          6           0      -14.865810    4.048470   -0.434286
    121          8           0      -15.757494    4.492633    0.334430
    122          8           0      -14.072029    4.803809   -1.320133
    123          6           0      -14.363468    6.226159   -1.467635
    124          1           0      -20.395982    0.524440   -3.594546
    125          1           0      -21.818250   -3.008847    1.525195
    126          1           0      -16.114604   -1.654416    4.085163
    127          1           0      -16.791208    3.474725   -2.442411
    128          1           0      -17.755811    1.439505   -4.406266
    129          1           0      -19.167539    3.365786   -4.877604
    130          1           0      -18.688657    4.064334   -3.290470
    131          1           0      -20.084908    2.939804   -3.434828
    132          1           0      -14.815762    3.061595   -3.424135
    133          1           0      -15.824229    2.721217   -4.845340
    134          1           0      -14.997241    0.387348   -3.091270
    135          1           0      -13.723360    1.182602   -3.905984
    136          1           0      -22.507855   -1.824315   -4.165520
    137          1           0      -22.395007   -0.009605   -3.852057
    138          1           0      -23.654552   -0.884594   -3.267461
    139          1           0      -23.795921   -3.228417    1.050958
    140          1           0      -23.140097   -4.667840    0.183646
    141          1           0      -24.776495   -4.418062    0.010552
    142          1           0      -20.043719   -4.327352    3.142773
    143          1           0      -18.336995   -2.519266    4.900465
    144          1           0      -20.422411   -2.224030    5.192044
    145          1           0      -21.312678   -3.805926    4.987858
    146          1           0      -21.768411   -2.480112    4.075193
    147          1           0      -16.625841   -4.091911    3.042572
    148          1           0      -17.966596   -5.049385    3.749366
    149          1           0      -15.581407   -5.142565    4.954497
    150          1           0      -17.171079   -5.057625    5.791685
    151          1           0      -16.166250   -3.538646    5.542145
    152          1           0      -13.705130   -0.965954    3.750660
    153          1           0      -13.764471    0.735784    4.229767
    154          1           0      -12.512852    0.280418    3.059669
    155          1           0      -13.935077    2.437477   -1.381882
    156          1           0      -14.209131    6.862747   -0.596368
    157          1           0      -15.393866    6.362185   -1.797392
    158          1           0      -13.820328    6.559214   -2.352193
 ---------------------------------------------------------------------

 SCF Done:  E(RwB97XD) =  -4070.59787836     A.U. after   19 cycles

 Excitation energies and oscillator strengths:

 Excited State   1:      Singlet-A      1.6635 eV  745.32 nm  f=0.4918  <S**2>=0.000
     309 -> 315       -0.18463
     311 -> 313       -0.10533
     312 -> 314        0.67477
     309 <- 315       -0.11567
 This state for optimization and/or second-order correction.
 Total Energy, E(TD-HF/TD-DFT) =  -4070.53674581
 Copying the excited state density for this state as the 1-particle RhoCI density.

 Excited State   2:      Singlet-A      1.6712 eV  741.87 nm  f=0.3057  <S**2>=0.000
     310 -> 316        0.17902
     311 -> 313        0.67642
     312 -> 314        0.10492
     310 <- 316        0.11276

 Excited State   3:      Singlet-A      2.1577 eV  574.61 nm  f=0.1255  <S**2>=0.000
     310 -> 313        0.64762
     311 -> 316       -0.26960

 Excited State   4:      Singlet-A      2.2613 eV  548.30 nm  f=0.0696  <S**2>=0.000
     309 -> 314        0.61503
     312 -> 315        0.33677

 Excited State   5:      Singlet-A      3.7771 eV  328.25 nm  f=0.0000  <S**2>=0.000
     312 -> 313        0.70707

 The electronic state is 1-A.
 Alpha  occ. eigenvalues --  -46.95278 -46.95224 -19.31014 -19.30211 -19.25192
 Alpha  occ. eigenvalues --  -19.24642 -19.24580 -19.24250 -19.24159 -19.23492
 Alpha  occ. eigenvalues --  -14.47286 -14.46652 -14.46628 -14.46194 -14.44554
 Alpha  occ. eigenvalues --  -14.44308 -14.44076 -14.43890 -10.43882 -10.42880
 Alpha  occ. eigenvalues --  -10.40504 -10.39377 -10.38843 -10.38764 -10.35968
 Alpha  occ. eigenvalues --  -10.35834 -10.35751 -10.35415 -10.35217 -10.35052
 Alpha  occ. eigenvalues --  -10.35001 -10.34909 -10.34651 -10.34614 -10.34577
 Alpha  occ. eigenvalues --  -10.34099 -10.34092 -10.33891 -10.33633 -10.33446
 Alpha  occ. eigenvalues --  -10.33360 -10.33356 -10.32967 -10.32959 -10.32780
 Alpha  occ. eigenvalues --  -10.32555 -10.32522 -10.32511 -10.32350 -10.32345
 Alpha  occ. eigenvalues --  -10.32329 -10.32280 -10.32269 -10.32257 -10.32141
 Alpha  occ. eigenvalues --  -10.32124 -10.31879 -10.31796 -10.31609 -10.31580
 Alpha  occ. eigenvalues --  -10.31539 -10.31349 -10.31247 -10.31227 -10.31051
 Alpha  occ. eigenvalues --  -10.31021 -10.30839 -10.30764 -10.30750 -10.30690
 Alpha  occ. eigenvalues --  -10.30673 -10.30660 -10.30482 -10.30439 -10.30390
 Alpha  occ. eigenvalues --  -10.30127 -10.29857 -10.29730 -10.29714 -10.29693
 Alpha  occ. eigenvalues --  -10.29412 -10.29372 -10.29288 -10.29255 -10.29220
 Alpha  occ. eigenvalues --  -10.29133  -3.21345  -3.21244  -1.94889  -1.94815
 Alpha  occ. eigenvalues --   -1.94484  -1.94379  -1.94319  -1.94212  -1.20800
 Alpha  occ. eigenvalues --   -1.17132  -1.12640  -1.11901  -1.11284  -1.10430
 Alpha  occ. eigenvalues --   -1.10349  -1.09209  -1.06887  -1.06146  -1.05781
 Alpha  occ. eigenvalues --   -1.05590  -1.04601  -1.04485  -1.03896  -1.03746
 Alpha  occ. eigenvalues --   -0.95614  -0.95123  -0.91053  -0.91010  -0.90706
 Alpha  occ. eigenvalues --   -0.90381  -0.90221  -0.89949  -0.89713  -0.88744
 Alpha  occ. eigenvalues --   -0.88719  -0.88183  -0.88007  -0.87531  -0.86496
 Alpha  occ. eigenvalues --   -0.86452  -0.85778  -0.85375  -0.84680  -0.84493
 Alpha  occ. eigenvalues --   -0.83938  -0.83629  -0.83566  -0.82947  -0.82451
 Alpha  occ. eigenvalues --   -0.82039  -0.80223  -0.80088  -0.79640  -0.79150
 Alpha  occ. eigenvalues --   -0.79066  -0.78689  -0.78439  -0.78251  -0.77095
 Alpha  occ. eigenvalues --   -0.76854  -0.75167  -0.74315  -0.73722  -0.73448
 Alpha  occ. eigenvalues --   -0.71359  -0.71227  -0.70912  -0.70864  -0.70362
 Alpha  occ. eigenvalues --   -0.69409  -0.68819  -0.68184  -0.67826  -0.67686
 Alpha  occ. eigenvalues --   -0.67182  -0.66843  -0.66799  -0.66575  -0.66441
 Alpha  occ. eigenvalues --   -0.66178  -0.65004  -0.64425  -0.62286  -0.62233
 Alpha  occ. eigenvalues --   -0.61859  -0.61591  -0.61281  -0.61112  -0.61021
 Alpha  occ. eigenvalues --   -0.60638  -0.60168  -0.59713  -0.59711  -0.59194
 Alpha  occ. eigenvalues --   -0.58403  -0.58104  -0.58062  -0.57524  -0.57102
 Alpha  occ. eigenvalues --   -0.56873  -0.56873  -0.56356  -0.56143  -0.55706
 Alpha  occ. eigenvalues --   -0.55679  -0.55306  -0.55201  -0.54981  -0.54896
 Alpha  occ. eigenvalues --   -0.54648  -0.54493  -0.54328  -0.54294  -0.54048
 Alpha  occ. eigenvalues --   -0.53617  -0.53475  -0.53474  -0.53392  -0.53147
 Alpha  occ. eigenvalues --   -0.53012  -0.52876  -0.52648  -0.52230  -0.52001
 Alpha  occ. eigenvalues --   -0.51937  -0.51924  -0.51768  -0.51311  -0.51244
 Alpha  occ. eigenvalues --   -0.51235  -0.51176  -0.50982  -0.50897  -0.50669
 Alpha  occ. eigenvalues --   -0.50514  -0.50469  -0.50255  -0.50188  -0.50121
 Alpha  occ. eigenvalues --   -0.50067  -0.49593  -0.49313  -0.49263  -0.49184
 Alpha  occ. eigenvalues --   -0.48834  -0.48680  -0.48541  -0.48371  -0.48160
 Alpha  occ. eigenvalues --   -0.48139  -0.48073  -0.48045  -0.47959  -0.47724
 Alpha  occ. eigenvalues --   -0.47672  -0.47287  -0.47160  -0.46888  -0.46723
 Alpha  occ. eigenvalues --   -0.46714  -0.46564  -0.46476  -0.46458  -0.46394
 Alpha  occ. eigenvalues --   -0.46112  -0.45862  -0.45598  -0.45338  -0.45146
 Alpha  occ. eigenvalues --   -0.45005  -0.44876  -0.44874  -0.44640  -0.44561
 Alpha  occ. eigenvalues --   -0.44495  -0.44344  -0.44167  -0.44105  -0.44039
 Alpha  occ. eigenvalues --   -0.43803  -0.43540  -0.43527  -0.43379  -0.43109
 Alpha  occ. eigenvalues --   -0.42950  -0.42865  -0.42480  -0.42156  -0.42138
 Alpha  occ. eigenvalues --   -0.41969  -0.41756  -0.41591  -0.41546  -0.40999
 Alpha  occ. eigenvalues --   -0.40831  -0.40057  -0.39818  -0.39589  -0.39452
 Alpha  occ. eigenvalues --   -0.39147  -0.39069  -0.38977  -0.38629  -0.38538
 Alpha  occ. eigenvalues --   -0.38223  -0.37737  -0.36733  -0.36636  -0.36301
 Alpha  occ. eigenvalues --   -0.36092  -0.35466  -0.35133  -0.33691  -0.33538
 Alpha  occ. eigenvalues --   -0.33529  -0.33229  -0.33007  -0.32837  -0.32580
 Alpha  occ. eigenvalues --   -0.32436  -0.31756  -0.31566  -0.26061  -0.26019
 Alpha  occ. eigenvalues --   -0.23087  -0.22628
 Alpha virt. eigenvalues --   -0.07257  -0.06498   0.00121   0.00476   0.01877
 Alpha virt. eigenvalues --    0.02352   0.04113   0.04147   0.04931   0.05429
 Alpha virt. eigenvalues --    0.05591   0.07501   0.07819   0.07846   0.08382

 Mulliken charges:
               1
     1  Mg   0.968422
     2  C   -0.020859
     3  C   -0.037366
     4  C   -0.068933
     5  C   -0.100335
     6  N   -0.318770
     7  C   -0.004798
     8  C   -0.025592
     9  C   -0.108454
    10  C    0.038756
    11  C    0.011089
    12  C    0.007054
    13  C   -0.131914
    14  H    0.014325
    15  N   -0.444948
    16  C    0.109619
    17  C   -0.188531
    18  C   -0.082239
    19  C    0.150458
    20  C    0.091035
    21  C    0.056816
    22  O   -0.260132
    23  C   -0.010215
    24  N   -0.428855
    25  C    0.096446
    26  C   -0.123088
    27  C   -0.081863
    28  C    0.106332
    29  C    0.028008
    30  C    0.012422
    31  C   -0.064933
    32  N   -0.411524
    33  C    0.113980
    34  C   -0.170891
    35  C   -0.051451
    36  C    0.143834
    37  C    0.088535
    38  C    0.114951
    39  O   -0.251194
    40  C   -0.028953
    41  C    0.225721
    42  O   -0.205823
    43  O   -0.332391
    44  C    0.138686
    45  H   -0.013850
    46  H    0.020078
    47  H   -0.001520
    48  H    0.046129
    49  H    0.041913
    50  H    0.041071
    51  H    0.040340
    52  H    0.039962
    53  H    0.033328
    54  H    0.031285
    55  H    0.045777
    56  H    0.057709
    57  H    0.058186
    58  H    0.041296
    59  H    0.035353
    60  H    0.054126
    61  H    0.046885
    62  H    0.066229
    63  H    0.046322
    64  H    0.023289
    65  H    0.051608
    66  H    0.034818
    67  H    0.038227
    68  H    0.040967
    69  H    0.022531
    70  H    0.029674
    71  H    0.032261
    72  H    0.037090
    73  H    0.030945
    74  H    0.058242
    75  H    0.072673
    76  H    0.069353
    77  H    0.047742
    78  H    0.056316
    79  H    0.061210
    80  Mg   0.987063
    81  C   -0.108842
    82  C   -0.085489
    83  C   -0.110654
    84  C   -0.095943
    85  N   -0.341922
    86  C   -0.038059
    87  C   -0.062568
    88  C   -0.058474
    89  C    0.026499
    90  C    0.027355
    91  C   -0.015195
    92  C   -0.118709
    93  H    0.036893
    94  N   -0.448563
    95  C    0.153414
    96  C   -0.157825
    97  C   -0.113713
    98  C    0.206786
    99  C    0.095745
   100  C    0.069730
   101  O   -0.226593
   102  C   -0.026174
   103  N   -0.421956
   104  C    0.079518
   105  C   -0.103185
   106  C   -0.075570
   107  C    0.085575
   108  C    0.009860
   109  C   -0.024304
   110  C   -0.038150
   111  N   -0.406441
   112  C    0.119590
   113  C   -0.211608
   114  C   -0.096345
   115  C    0.263338
   116  C    0.092512
   117  C    0.145548
   118  O   -0.217793
   119  C   -0.059520
   120  C    0.315864
   121  O   -0.277658
   122  O   -0.382196
   123  C    0.152227
   124  H   -0.009095
   125  H   -0.035091
   126  H   -0.015928
   127  H    0.049458
   128  H    0.045659
   129  H    0.043702
   130  H    0.040423
   131  H    0.046370
   132  H    0.038369
   133  H    0.048345
   134  H    0.063075
   135  H    0.056470
   136  H    0.065328
   137  H    0.022960
   138  H    0.043979
   139  H    0.073639
   140  H    0.060929
   141  H    0.052761
   142  H    0.044418
   143  H    0.036102
   144  H    0.037574
   145  H    0.038487
   146  H    0.031771
   147  H    0.048536
   148  H    0.025102
   149  H    0.051618
   150  H    0.041596
   151  H    0.037723
   152  H    0.034743
   153  H    0.054925
   154  H    0.066729
   155  H    0.059862
   156  H    0.069372
   157  H    0.033767
   158  H    0.052256
 Sum of Mulliken charges =  -0.00000

 Dipole moment (field-independent basis, Debye):
    X=             -1.4230    Y=             -0.9191    Z=              3.2915  Tot=              3.7018
 Quadrupole moment (field-independent basis, Debye-Ang):
   XX=           -442.2268   YY=           -481.5098   ZZ=           -476.3355
   XY=             21.3177   XZ=             16.8873   YZ=            -13.3002

 Normal termination of Gaussian 16 at Mon Sep 20 10:45:30 2021.
