 Gaussian 16, Revision A.03,
 Gaussian 16:  ES64L-G16RevA.03 25-Dec-2016

 --------------------------------
 #p wB97XD/Def2SVP td=(nstates=5)
 --------------------------------

 --------------------------------
 TDDFT excited states in gaussian
 --------------------------------
 Symbolic Z-matrix:
 Charge =  0 Multiplicity = 1

                         Standard orientation:
 ---------------------------------------------------------------------
 Center     Atomic      Atomic             Coordinates (Angstroms)
 Number     Number       Type             X           Y           Z
 ---------------------------------------------------------------------
      1         12           0       26.828738   -0.812760    0.160008
      2          6           0       27.457672    2.224801   -1.256790
      3          6           0       25.309241    0.864216    2.878978
      4          6           0       26.398719   -3.757658    1.694897
      5          6           0       28.267863   -2.333282   -2.563172
      6          7           0       26.703906    1.278273    0.902690
      7          6           0       26.941213    2.370721    0.058709
      8          6           0       26.574257    3.720596    0.737778
      9          6           0       25.969575    3.171092    2.057097
     10          6           0       26.046142    1.656367    1.993261
     11          6           0       26.462200    3.687013    3.475957
     12          6           0       25.567480    4.669199   -0.050322
     13          6           0       25.250299    5.965457    0.742518
     14          1           0       25.898230    7.214138    0.142661
     15          7           0       25.905453   -1.374528    2.053983
     16          6           0       25.156960   -0.548022    2.864153
     17          6           0       24.724895   -1.377603    3.982866
     18          6           0       25.056900   -2.724540    3.627512
     19          6           0       25.797668   -2.688352    2.405950
     20          6           0       24.007921   -0.787649    5.135480
     21          6           0       24.771532   -3.951672    4.562017
     22          8           0       25.238895   -5.092145    4.367537
     23          6           0       23.953658   -3.769248    5.813932
     24          7           0       27.270099   -2.657274   -0.315975
     25          6           0       27.005716   -3.793269    0.499746
     26          6           0       27.728424   -5.014278   -0.022481
     27          6           0       27.856170   -4.632594   -1.495976
     28          6           0       27.747173   -3.114465   -1.506952
     29          6           0       29.113337   -5.248002    0.669356
     30          6           0       26.708638   -5.198337   -2.362226
     31          6           0       26.842088   -6.595698   -2.905419
     32          7           0       27.756769   -0.269356   -1.598967
     33          6           0       28.154705   -0.961956   -2.678341
     34          6           0       28.665987   -0.054917   -3.663081
     35          6           0       28.404990    1.209362   -3.179032
     36          6           0       27.803932    1.032239   -1.923125
     37          6           0       29.236469   -0.516579   -4.958595
     38          6           0       28.519665    2.570303   -3.489254
     39          8           0       28.939765    3.142706   -4.476295
     40          6           0       27.890468    3.316773   -2.221013
     41          6           0       28.921088    4.242373   -1.678505
     42          8           0       29.960778    3.943549   -1.143221
     43          8           0       28.499499    5.510008   -1.713772
     44          6           0       29.440337    6.547107   -1.138873
     45          1           0       24.722663    1.439548    3.598065
     46          1           0       26.259486   -4.725819    2.180087
     47          1           0       28.621145   -2.741241   -3.512123
     48          1           0       27.496585    4.261884    0.948779
     49          1           0       24.896626    3.364891    2.071906
     50          1           0       25.697633    3.782522    4.247400
     51          1           0       27.109069    4.555199    3.348559
     52          1           0       27.076812    2.869822    3.853281
     53          1           0       24.713157    4.021631   -0.243668
     54          1           0       26.018390    4.920706   -1.010195
     55          1           0       25.468191    5.816961    1.800146
     56          1           0       24.175989    6.124616    0.654405
     57          1           0       24.665975   -0.844262    6.002790
     58          1           0       23.046187   -1.298852    5.178645
     59          1           0       23.750840    0.253446    4.939671
     60          1           0       23.806449   -4.731753    6.303854
     61          1           0       22.967146   -3.490432    5.441048
     62          1           0       24.303082   -3.026406    6.530523
     63          1           0       27.135599   -5.917112    0.126910
     64          1           0       28.808883   -4.923759   -1.937838
     65          1           0       29.853643   -4.530241    0.318137
     66          1           0       29.456605   -6.267861    0.493684
     67          1           0       28.925706   -5.124865    1.735432
     68          1           0       26.450357   -4.550962   -3.199296
     69          1           0       25.774481   -5.150084   -1.802476
     70          1           0       26.000249   -7.163672   -2.510454
     71          1           0       27.713716   -6.980915   -2.376066
     72          1           0       26.967378   -6.652298   -3.986837
     73          1           0       28.483332   -0.464995   -5.743905
     74          1           0       29.787134   -1.457569   -4.977357
     75          1           0       29.980034    0.235814   -5.222069
     76          1           0       27.021015    3.883150   -2.555526
     77          1           0       29.729483    6.198095   -0.147324
     78          1           0       28.972618    7.522176   -1.000074
     79          1           0       30.303452    6.614993   -1.801451
     80         12           0      -27.535914   -0.469167   -0.303762
     81          6           0      -25.438762    2.354051   -0.423619
     82          6           0      -28.907450    0.841198    2.610414
     83          6           0      -29.257608   -3.297935   -0.055945
     84          6           0      -25.452547   -2.049812   -2.763769
     85          7           0      -27.198065    1.346287    0.944767
     86          6           0      -26.359345    2.416898    0.604450
     87          6           0      -26.783799    3.648143    1.383329
     88          6           0      -27.682566    3.108010    2.531886
     89          6           0      -27.954497    1.670584    1.994578
     90          6           0      -27.099094    3.209511    3.976184
     91          6           0      -27.450447    4.772712    0.517466
     92          6           0      -27.193464    6.248654    1.056243
     93          1           0      -26.394977    6.407428    2.352861
     94          7           0      -28.937912   -1.053511    0.973245
     95          6           0      -29.425914   -0.352122    2.062308
     96          6           0      -30.526935   -1.048188    2.663116
     97          6           0      -30.575592   -2.313799    1.995694
     98          6           0      -29.604884   -2.235450    0.918662
     99          6           0      -31.309367   -0.520800    3.904431
    100          6           0      -31.432127   -3.499405    2.299068
    101          8           0      -31.254724   -4.600303    1.725021
    102          6           0      -32.565871   -3.648178    3.355963
    103          7           0      -27.227898   -2.496683   -1.062919
    104          6           0      -28.155998   -3.456328   -0.888001
    105          6           0      -27.929131   -4.618666   -1.887083
    106          6           0      -26.709386   -4.242555   -2.735922
    107          6           0      -26.467029   -2.774757   -2.168532
    108          6           0      -27.923624   -5.951155   -1.201952
    109          6           0      -26.876047   -4.293296   -4.269867
    110          6           0      -27.986622   -3.380552   -4.845804
    111          7           0      -25.739650   -0.027425   -1.376063
    112          6           0      -25.157001   -0.684819   -2.405692
    113          6           0      -24.190787    0.238299   -2.998976
    114          6           0      -24.245541    1.477595   -2.301772
    115          6           0      -25.185979    1.256590   -1.266329
    116          6           0      -23.362042   -0.025152   -4.253438
    117          6           0      -23.716251    2.801319   -2.217838
    118          8           0      -22.959706    3.463338   -2.923342
    119          6           0      -24.465427    3.446270   -0.878359
    120          6           0      -23.410636    3.962271    0.082266
    121          8           0      -22.790124    3.248976    0.846062
    122          8           0      -23.335755    5.335859    0.036251
    123          6           0      -22.153086    5.997060    0.578156
    124          1           0      -29.349741    1.402496    3.435888
    125          1           0      -29.919939   -4.163082    0.012795
    126          1           0      -24.952624   -2.547636   -3.596901
    127          1           0      -25.903543    4.116408    1.823519
    128          1           0      -28.614648    3.671174    2.495300
    129          1           0      -27.142156    2.175506    4.316703
    130          1           0      -27.773071    3.770329    4.624866
    131          1           0      -26.081790    3.571583    4.124651
    132          1           0      -28.536998    4.692652    0.529159
    133          1           0      -27.123086    4.655129   -0.514745
    134          1           0      -28.162122    6.664216    1.334366
    135          1           0      -26.716617    6.806989    0.251018
    136          1           0      -31.532765   -1.378906    4.539521
    137          1           0      -32.263800   -0.068556    3.637040
    138          1           0      -30.890354    0.246876    4.554798
    139          1           0      -33.326823   -2.880268    3.213954
    140          1           0      -32.186843   -3.646863    4.377905
    141          1           0      -33.246407   -4.478191    3.169821
    142          1           0      -28.857884   -4.699761   -2.450372
    143          1           0      -25.887916   -4.817496   -2.307000
    144          1           0      -28.859992   -6.495251   -1.326953
    145          1           0      -27.676308   -5.825426   -0.147729
    146          1           0      -27.137260   -6.625628   -1.542627
    147          1           0      -27.162678   -5.329189   -4.452312
    148          1           0      -25.924206   -4.083209   -4.758584
    149          1           0      -27.472867   -2.703036   -5.527507
    150          1           0      -28.428753   -2.853103   -4.000525
    151          1           0      -28.820033   -3.917670   -5.298874
    152          1           0      -23.333848    0.832478   -4.924980
    153          1           0      -23.817398   -0.792760   -4.878503
    154          1           0      -22.383690   -0.391141   -3.940814
    155          1           0      -25.002721    4.312000   -1.266406
    156          1           0      -21.890824    5.461519    1.490959
    157          1           0      -22.295163    7.044866    0.842992
    158          1           0      -21.410488    5.961563   -0.218995
 ---------------------------------------------------------------------

 SCF Done:  E(RwB97XD) =  -4070.64002943     A.U. after   18 cycles

 Excitation energies and oscillator strengths:

 Excited State   1:      Singlet-A      1.5970 eV  776.36 nm  f=0.3899  <S**2>=0.000
     309 -> 315        0.16564
     312 -> 314        0.68829
     309 <- 315        0.11238
 This state for optimization and/or second-order correction.
 Total Energy, E(TD-HF/TD-DFT) =  -4070.58134101
 Copying the excited state density for this state as the 1-particle RhoCI density.

 Excited State   2:      Singlet-A      1.6020 eV  773.96 nm  f=0.4025  <S**2>=0.000
     310 -> 316        0.17289
     311 -> 313        0.68566
     310 <- 316        0.11419

 Excited State   3:      Singlet-A      2.1364 eV  580.33 nm  f=0.1496  <S**2>=0.000
     310 -> 313        0.65486
     311 -> 316       -0.24835

 Excited State   4:      Singlet-A      2.1950 eV  564.85 nm  f=0.1057  <S**2>=0.000
     309 -> 314        0.63718
     312 -> 315       -0.28949

 Excited State   5:      Singlet-A      3.2156 eV  385.57 nm  f=0.0019  <S**2>=0.000
     308 -> 314        0.67732

 The electronic state is 1-A.
 Alpha  occ. eigenvalues --  -46.95267 -46.93849 -19.30149 -19.29498 -19.24487
 Alpha  occ. eigenvalues --  -19.24415 -19.24197 -19.23696 -19.23545 -19.23435
 Alpha  occ. eigenvalues --  -14.47333 -14.47195 -14.46364 -14.45999 -14.44910
 Alpha  occ. eigenvalues --  -14.43969 -14.43471 -14.43433 -10.42972 -10.42376
 Alpha  occ. eigenvalues --  -10.39620 -10.39502 -10.39162 -10.38999 -10.36135
 Alpha  occ. eigenvalues --  -10.36065 -10.35656 -10.35400 -10.35142 -10.34972
 Alpha  occ. eigenvalues --  -10.34812 -10.34780 -10.34563 -10.34521 -10.34355
 Alpha  occ. eigenvalues --  -10.34024 -10.33846 -10.33746 -10.33537 -10.33460
 Alpha  occ. eigenvalues --  -10.33261 -10.33251 -10.33031 -10.33029 -10.33018
 Alpha  occ. eigenvalues --  -10.32670 -10.32648 -10.32338 -10.32318 -10.32267
 Alpha  occ. eigenvalues --  -10.32214 -10.32145 -10.32120 -10.32051 -10.31865
 Alpha  occ. eigenvalues --  -10.31832 -10.31789 -10.31638 -10.31584 -10.31513
 Alpha  occ. eigenvalues --  -10.31486 -10.31435 -10.31390 -10.31347 -10.31154
 Alpha  occ. eigenvalues --  -10.30906 -10.30722 -10.30662 -10.30658 -10.30593
 Alpha  occ. eigenvalues --  -10.30406 -10.30375 -10.30219 -10.30139 -10.30133
 Alpha  occ. eigenvalues --  -10.30085 -10.29672 -10.29585 -10.29508 -10.29488
 Alpha  occ. eigenvalues --  -10.29449 -10.29431 -10.29329 -10.29096 -10.28889
 Alpha  occ. eigenvalues --  -10.28754  -3.21280  -3.20035  -1.94839  -1.94402
 Alpha  occ. eigenvalues --   -1.94259  -1.93635  -1.93179  -1.93009  -1.19098
 Alpha  occ. eigenvalues --   -1.17625  -1.12730  -1.11691  -1.10651  -1.10451
 Alpha  occ. eigenvalues --   -1.09656  -1.09353  -1.07513  -1.06370  -1.05928
 Alpha  occ. eigenvalues --   -1.05493  -1.05245  -1.05091  -1.04140  -1.03972
 Alpha  occ. eigenvalues --   -0.95354  -0.94159  -0.91054  -0.90939  -0.90666
 Alpha  occ. eigenvalues --   -0.90545  -0.90424  -0.90123  -0.89869  -0.89291
 Alpha  occ. eigenvalues --   -0.89112  -0.88794  -0.88479  -0.87260  -0.86280
 Alpha  occ. eigenvalues --   -0.85840  -0.85714  -0.85237  -0.84417  -0.84100
 Alpha  occ. eigenvalues --   -0.83495  -0.83164  -0.83005  -0.82588  -0.82574
 Alpha  occ. eigenvalues --   -0.81975  -0.80682  -0.80338  -0.79474  -0.79140
 Alpha  occ. eigenvalues --   -0.78865  -0.78689  -0.78145  -0.77775  -0.77131
 Alpha  occ. eigenvalues --   -0.76948  -0.75226  -0.74521  -0.73780  -0.73052
 Alpha  occ. eigenvalues --   -0.71835  -0.71425  -0.71130  -0.70925  -0.70337
 Alpha  occ. eigenvalues --   -0.70216  -0.69532  -0.68047  -0.67766  -0.67221
 Alpha  occ. eigenvalues --   -0.66874  -0.66869  -0.66636  -0.66156  -0.66150
 Alpha  occ. eigenvalues --   -0.66070  -0.64102  -0.63644  -0.62947  -0.62207
 Alpha  occ. eigenvalues --   -0.62018  -0.61462  -0.61124  -0.60868  -0.60806
 Alpha  occ. eigenvalues --   -0.60317  -0.60058  -0.59994  -0.59405  -0.58929
 Alpha  occ. eigenvalues --   -0.58526  -0.57995  -0.57907  -0.57684  -0.57015
 Alpha  occ. eigenvalues --   -0.56798  -0.56748  -0.56684  -0.56207  -0.55865
 Alpha  occ. eigenvalues --   -0.55410  -0.55382  -0.55322  -0.55001  -0.54825
 Alpha  occ. eigenvalues --   -0.54692  -0.54645  -0.54501  -0.54286  -0.54223
 Alpha  occ. eigenvalues --   -0.53926  -0.53725  -0.53586  -0.53283  -0.53267
 Alpha  occ. eigenvalues --   -0.52967  -0.52619  -0.52285  -0.52171  -0.52006
 Alpha  occ. eigenvalues --   -0.51923  -0.51827  -0.51675  -0.51505  -0.51173
 Alpha  occ. eigenvalues --   -0.51171  -0.51124  -0.50943  -0.50876  -0.50680
 Alpha  occ. eigenvalues --   -0.50680  -0.50565  -0.50163  -0.50145  -0.49979
 Alpha  occ. eigenvalues --   -0.49836  -0.49682  -0.49682  -0.49433  -0.49363
 Alpha  occ. eigenvalues --   -0.49080  -0.48833  -0.48622  -0.48445  -0.48403
 Alpha  occ. eigenvalues --   -0.48326  -0.48267  -0.47948  -0.47846  -0.47792
 Alpha  occ. eigenvalues --   -0.47440  -0.47398  -0.47216  -0.47151  -0.46683
 Alpha  occ. eigenvalues --   -0.46648  -0.46424  -0.46171  -0.46158  -0.45996
 Alpha  occ. eigenvalues --   -0.45911  -0.45677  -0.45666  -0.45481  -0.45398
 Alpha  occ. eigenvalues --   -0.45267  -0.45124  -0.44974  -0.44802  -0.44531
 Alpha  occ. eigenvalues --   -0.44309  -0.43903  -0.43876  -0.43802  -0.43717
 Alpha  occ. eigenvalues --   -0.43578  -0.43533  -0.43526  -0.43518  -0.43096
 Alpha  occ. eigenvalues --   -0.42821  -0.42659  -0.42545  -0.42536  -0.42285
 Alpha  occ. eigenvalues --   -0.41998  -0.41957  -0.41730  -0.41524  -0.41163
 Alpha  occ. eigenvalues --   -0.40575  -0.40308  -0.40027  -0.39763  -0.39599
 Alpha  occ. eigenvalues --   -0.39386  -0.39029  -0.38911  -0.38660  -0.38564
 Alpha  occ. eigenvalues --   -0.38276  -0.37987  -0.36250  -0.36044  -0.35991
 Alpha  occ. eigenvalues --   -0.35713  -0.35461  -0.35262  -0.33690  -0.33675
 Alpha  occ. eigenvalues --   -0.33285  -0.32976  -0.32803  -0.32777  -0.32424
 Alpha  occ. eigenvalues --   -0.32256  -0.31656  -0.31240  -0.26534  -0.26048
 Alpha  occ. eigenvalues --   -0.23199  -0.22919
 Alpha virt. eigenvalues --   -0.07616  -0.07418   0.00377   0.00508   0.01996
 Alpha virt. eigenvalues --    0.02453   0.04071   0.04479   0.04665   0.06383
 Alpha virt. eigenvalues --    0.07305   0.07359   0.07758   0.08004   0.08394

 Mulliken charges:
               1
     1  Mg   0.971385
     2  C   -0.006057
     3  C   -0.072417
     4  C   -0.076297
     5  C   -0.099540
     6  N   -0.340916
     7  C   -0.009367
     8  C   -0.022330
     9  C   -0.153797
    10  C    0.065352
    11  C    0.013356
    12  C   -0.006056
    13  C   -0.111425
    14  H    0.047854
    15  N   -0.435285
    16  C    0.162747
    17  C   -0.218333
    18  C   -0.078016
    19  C    0.134406
    20  C    0.083668
    21  C    0.066578
    22  O   -0.256629
    23  C   -0.006741
    24  N   -0.468709
    25  C    0.098566
    26  C   -0.069503
    27  C   -0.080606
    28  C    0.140307
    29  C    0.040747
    30  C   -0.043653
    31  C   -0.003977
    32  N   -0.427994
    33  C    0.106482
    34  C   -0.178835
    35  C    0.017626
    36  C    0.137242
    37  C    0.064672
    38  C    0.098738
    39  O   -0.191657
    40  C   -0.123820
    41  C    0.249381
    42  O   -0.247107
    43  O   -0.362883
    44  C    0.139228
    45  H   -0.004148
    46  H    0.019925
    47  H   -0.001775
    48  H    0.044475
    49  H    0.034747
    50  H    0.042251
    51  H    0.043393
    52  H    0.037639
    53  H    0.035440
    54  H    0.054648
    55  H    0.050947
    56  H    0.053007
    57  H    0.065773
    58  H    0.049354
    59  H    0.025678
    60  H    0.051268
    61  H    0.045806
    62  H    0.060768
    63  H    0.028087
    64  H    0.023069
    65  H    0.041807
    66  H    0.042116
    67  H    0.041573
    68  H    0.022346
    69  H    0.020634
    70  H    0.035350
    71  H    0.017892
    72  H    0.051251
    73  H    0.062392
    74  H    0.045014
    75  H    0.051484
    76  H    0.073883
    77  H    0.057962
    78  H    0.059958
    79  H    0.069603
    80  Mg   0.971875
    81  C    0.006767
    82  C   -0.061536
    83  C   -0.062925
    84  C   -0.063136
    85  N   -0.337828
    86  C   -0.003186
    87  C   -0.035338
    88  C   -0.097913
    89  C    0.010400
    90  C    0.027405
    91  C   -0.006669
    92  C   -0.129117
    93  H    0.034077
    94  N   -0.494886
    95  C    0.189646
    96  C   -0.136865
    97  C   -0.054444
    98  C    0.137792
    99  C    0.059000
   100  C    0.036209
   101  O   -0.271613
   102  C   -0.007045
   103  N   -0.340839
   104  C    0.077670
   105  C   -0.129553
   106  C   -0.020182
   107  C    0.012849
   108  C    0.021343
   109  C   -0.019518
   110  C   -0.045909
   111  N   -0.429024
   112  C    0.150709
   113  C   -0.205210
   114  C    0.004335
   115  C    0.122911
   116  C    0.072273
   117  C    0.116784
   118  O   -0.207640
   119  C   -0.128467
   120  C    0.274744
   121  O   -0.237558
   122  O   -0.379787
   123  C    0.133608
   124  H   -0.002969
   125  H    0.023053
   126  H   -0.004375
   127  H    0.030746
   128  H    0.033144
   129  H    0.030649
   130  H    0.034886
   131  H    0.058459
   132  H    0.029804
   133  H    0.037212
   134  H    0.054524
   135  H    0.069155
   136  H    0.037180
   137  H    0.051158
   138  H    0.045644
   139  H    0.030982
   140  H    0.073527
   141  H    0.048625
   142  H    0.037215
   143  H    0.038769
   144  H    0.043494
   145  H    0.041856
   146  H    0.022293
   147  H    0.033285
   148  H    0.039394
   149  H    0.046933
   150  H    0.038531
   151  H    0.043022
   152  H    0.057611
   153  H    0.018520
   154  H    0.059384
   155  H    0.065571
   156  H    0.060224
   157  H    0.053712
   158  H    0.064571
 Sum of Mulliken charges =  -0.00000

 Dipole moment (field-independent basis, Debye):
    X=             -8.0025    Y=              3.0522    Z=              2.8162  Tot=              9.0159
 Quadrupole moment (field-independent basis, Debye-Ang):
   XX=           -426.9101   YY=           -491.2487   ZZ=           -494.1428
   XY=            -34.3233   XZ=              6.5533   YZ=             59.2191

 Normal termination of Gaussian 16 at Mon Sep 20 02:32:51 2021.
