 Gaussian 16, Revision A.03,
 Gaussian 16:  ES64L-G16RevA.03 25-Dec-2016

 --------------------------------
 #p wB97XD/Def2SVP td=(nstates=5)
 --------------------------------

 --------------------------------
 TDDFT excited states in gaussian
 --------------------------------
 Symbolic Z-matrix:
 Charge =  0 Multiplicity = 1

                         Standard orientation:
 ---------------------------------------------------------------------
 Center     Atomic      Atomic             Coordinates (Angstroms)
 Number     Number       Type             X           Y           Z
 ---------------------------------------------------------------------
      1         12           0      -17.182313   -0.776650    0.124143
      2          6           0      -17.024560    2.246109   -1.526314
      3          6           0      -16.117683    0.999863    3.046207
      4          6           0      -16.959011   -3.610900    1.727367
      5          6           0      -17.877928   -2.414298   -2.842241
      6          7           0      -16.426678    1.404954    0.607978
      7          6           0      -16.689555    2.436204   -0.177081
      8          6           0      -16.674335    3.766785    0.627230
      9          6           0      -15.841934    3.312576    1.876930
     10          6           0      -16.114309    1.799981    1.898903
     11          6           0      -14.313954    3.642985    1.730840
     12          6           0      -18.151617    4.097529    0.935544
     13          6           0      -18.425667    5.452389    1.602385
     14          1           0      -17.279323    6.277200    2.152283
     15          7           0      -16.744435   -1.310961    2.084933
     16          6           0      -16.363576   -0.408623    3.136918
     17          6           0      -16.360428   -1.199696    4.359884
     18          6           0      -16.716802   -2.534729    3.991870
     19          6           0      -16.792792   -2.559416    2.531855
     20          6           0      -16.072010   -0.628676    5.798262
     21          6           0      -17.001030   -3.734416    4.954947
     22          8           0      -17.170942   -4.819226    4.469623
     23          6           0      -17.019164   -3.533192    6.435465
     24          7           0      -17.483141   -2.751400   -0.464668
     25          6           0      -17.337335   -3.791721    0.386641
     26          6           0      -17.516788   -5.151975   -0.286410
     27          6           0      -17.946558   -4.745739   -1.715155
     28          6           0      -17.753980   -3.175293   -1.674624
     29          6           0      -16.256671   -6.093076   -0.266791
     30          6           0      -19.274402   -5.258002   -2.211921
     31          6           0      -20.548795   -5.169319   -1.338062
     32          7           0      -17.405780   -0.284400   -1.820031
     33          6           0      -17.696321   -1.030591   -2.926140
     34          6           0      -17.885009   -0.107630   -4.025408
     35          6           0      -17.667171    1.232089   -3.552519
     36          6           0      -17.360147    1.039693   -2.177664
     37          6           0      -18.237716   -0.525756   -5.418750
     38          6           0      -17.574237    2.612304   -3.891742
     39          8           0      -17.704755    3.235183   -4.967993
     40          6           0      -16.870850    3.266338   -2.581181
     41          6           0      -17.503659    4.646163   -2.393488
     42          8           0      -18.652109    4.865953   -2.322638
     43          8           0      -16.497655    5.569749   -2.369710
     44          6           0      -16.796611    6.887768   -1.848668
     45          1           0      -15.729537    1.535921    3.914268
     46          1           0      -16.849747   -4.588929    2.200663
     47          1           0      -18.078666   -2.871193   -3.812758
     48          1           0      -16.120663    4.553014    0.114223
     49          1           0      -16.329817    3.827617    2.704810
     50          1           0      -14.069634    4.503112    2.352993
     51          1           0      -14.115572    3.839129    0.676970
     52          1           0      -13.660605    2.848338    2.091192
     53          1           0      -18.504570    3.358152    1.653997
     54          1           0      -18.798009    3.927087    0.075144
     55          1           0      -19.299250    5.440579    2.254547
     56          1           0      -18.870890    6.052703    0.808752
     57          1           0      -15.319011   -1.209334    6.331937
     58          1           0      -17.038302   -0.607140    6.301907
     59          1           0      -15.780308    0.419418    5.721026
     60          1           0      -17.706013   -4.316430    6.756980
     61          1           0      -17.500906   -2.600732    6.727420
     62          1           0      -16.090625   -3.384890    6.986690
     63          1           0      -18.330694   -5.628790    0.259306
     64          1           0      -17.211815   -5.016172   -2.473488
     65          1           0      -16.282701   -6.632993   -1.212943
     66          1           0      -16.473203   -6.749281    0.576443
     67          1           0      -15.357136   -5.521162   -0.039294
     68          1           0      -19.085370   -6.330329   -2.175100
     69          1           0      -19.593921   -4.951274   -3.208440
     70          1           0      -21.040338   -6.096788   -1.047319
     71          1           0      -21.369765   -4.699758   -1.879880
     72          1           0      -20.310845   -4.646873   -0.411378
     73          1           0      -18.243763    0.392379   -6.005504
     74          1           0      -19.253371   -0.922943   -5.443077
     75          1           0      -17.633169   -1.333234   -5.830740
     76          1           0      -15.806617    3.282000   -2.817175
     77          1           0      -16.407976    7.359681   -2.751201
     78          1           0      -16.339254    7.092459   -0.880432
     79          1           0      -17.860894    7.112695   -1.774584
     80         12           0       17.611576   -0.599066    0.073327
     81          6           0       15.260325    1.965254    0.448198
     82          6           0       20.136940    1.662720    0.506305
     83          6           0       19.768125   -3.006507   -0.630033
     84          6           0       14.880243   -2.818275   -0.552257
     85          7           0       17.657614    1.593799    0.391142
     86          6           0       16.604462    2.459426    0.586729
     87          6           0       17.103932    3.796613    1.101916
     88          6           0       18.657892    3.725055    0.826299
     89          6           0       18.815731    2.176693    0.646267
     90          6           0       19.095266    4.499588   -0.410440
     91          6           0       16.581991    4.037261    2.565317
     92          6           0       17.216254    5.279183    3.250927
     93          1           0       17.626248    6.421063    2.344307
     94          7           0       19.599288   -0.662157   -0.024236
     95          6           0       20.496281    0.393560    0.079159
     96          6           0       21.884690   -0.046287   -0.144538
     97          6           0       21.753590   -1.438265   -0.439319
     98          6           0       20.327023   -1.745692   -0.379735
     99          6           0       23.055028    0.853245   -0.003556
    100          6           0       22.878823   -2.386762   -0.763619
    101          8           0       22.678384   -3.616166   -0.967813
    102          6           0       24.310506   -1.924062   -0.779978
    103          7           0       17.346279   -2.660513   -0.459268
    104          6           0       18.432486   -3.399920   -0.685017
    105          6           0       18.019177   -4.846111   -1.206390
    106          6           0       16.391433   -4.774304   -1.221794
    107          6           0       16.183505   -3.339877   -0.734036
    108          6           0       18.683624   -5.077787   -2.625098
    109          6           0       15.679166   -5.786076   -0.225729
    110          6           0       15.424006   -7.216702   -0.781110
    111          7           0       15.542816   -0.507092   -0.106406
    112          6           0       14.529398   -1.491768   -0.246520
    113          6           0       13.156234   -0.831206   -0.131021
    114          6           0       13.385471    0.526681    0.066713
    115          6           0       14.862563    0.654648    0.154423
    116          6           0       11.814238   -1.492728   -0.167671
    117          6           0       12.790550    1.820944    0.304691
    118          8           0       11.614774    2.194071    0.365701
    119          6           0       13.989781    2.796710    0.749515
    120          6           0       13.958399    4.126870    0.032219
    121          8           0       14.467491    4.326618   -1.037455
    122          8           0       13.470112    5.149711    0.876360
    123          6           0       13.790140    6.537062    0.508173
    124          1           0       20.821775    2.506732    0.615054
    125          1           0       20.484484   -3.793159   -0.876557
    126          1           0       14.008726   -3.412788   -0.834502
    127          1           0       16.649480    4.572980    0.487740
    128          1           0       19.297947    4.012561    1.661055
    129          1           0       19.848940    5.205715   -0.062256
    130          1           0       18.210034    4.929369   -0.878656
    131          1           0       19.692568    3.898502   -1.095611
    132          1           0       16.656114    3.034209    2.984272
    133          1           0       15.510055    4.202456    2.462178
    134          1           0       18.076129    4.858066    3.771943
    135          1           0       16.494562    5.673074    3.966403
    136          1           0       23.450203    0.880968   -1.018875
    137          1           0       23.772568    0.512608    0.742427
    138          1           0       22.898246    1.901329    0.254672
    139          1           0       24.589599   -1.604692    0.223181
    140          1           0       24.213200   -1.137181   -1.528980
    141          1           0       25.044447   -2.630183   -1.167352
    142          1           0       18.402471   -5.456044   -0.387436
    143          1           0       15.899545   -4.700651   -2.192634
    144          1           0       19.263481   -4.233059   -2.996591
    145          1           0       17.910260   -5.277729   -3.367225
    146          1           0       19.403464   -5.882608   -2.479076
    147          1           0       14.817963   -5.340491    0.271331
    148          1           0       16.379821   -5.927300    0.596577
    149          1           0       15.892741   -7.909788   -0.083422
    150          1           0       15.800139   -7.262432   -1.803217
    151          1           0       14.361630   -7.459479   -0.814012
    152          1           0       11.440400   -1.473875    0.856274
    153          1           0       11.905198   -2.510345   -0.549440
    154          1           0       11.027796   -1.016287   -0.752633
    155          1           0       13.888448    2.922748    1.827062
    156          1           0       13.089274    6.780231   -0.289980
    157          1           0       14.853191    6.644517    0.291641
    158          1           0       13.617824    7.134095    1.403295
 ---------------------------------------------------------------------

 SCF Done:  E(RwB97XD) =  -4070.61952180     A.U. after   19 cycles

 Excitation energies and oscillator strengths:

 Excited State   1:      Singlet-A      1.6549 eV  749.19 nm  f=0.3833  <S**2>=0.000
     309 -> 315       -0.20541
     312 -> 314        0.67798
     309 <- 315       -0.12141
 This state for optimization and/or second-order correction.
 Total Energy, E(TD-HF/TD-DFT) =  -4070.55870511
 Copying the excited state density for this state as the 1-particle RhoCI density.

 Excited State   2:      Singlet-A      1.6762 eV  739.66 nm  f=0.3706  <S**2>=0.000
     310 -> 316       -0.20179
     311 -> 313        0.67868
     310 <- 316       -0.12039

 Excited State   3:      Singlet-A      2.1629 eV  573.24 nm  f=0.0886  <S**2>=0.000
     310 -> 313        0.63318
     311 -> 316        0.30180

 Excited State   4:      Singlet-A      2.2347 eV  554.81 nm  f=0.0335  <S**2>=0.000
     309 -> 314        0.58750
     312 -> 315        0.38607

 Excited State   5:      Singlet-A      3.7936 eV  326.83 nm  f=0.0000  <S**2>=0.000
     312 -> 313        0.70710

 The electronic state is 1-A.
 Alpha  occ. eigenvalues --  -46.94571 -46.94425 -19.29595 -19.29227 -19.25233
 Alpha  occ. eigenvalues --  -19.25156 -19.24277 -19.24093 -19.24032 -19.23463
 Alpha  occ. eigenvalues --  -14.46749 -14.46288 -14.46248 -14.46134 -14.44589
 Alpha  occ. eigenvalues --  -14.44515 -14.43865 -14.43860 -10.43289 -10.42739
 Alpha  occ. eigenvalues --  -10.39592 -10.39244 -10.39163 -10.39105 -10.35499
 Alpha  occ. eigenvalues --  -10.35169 -10.34950 -10.34769 -10.34706 -10.34671
 Alpha  occ. eigenvalues --  -10.34594 -10.34545 -10.34403 -10.34399 -10.34380
 Alpha  occ. eigenvalues --  -10.34376 -10.34271 -10.34183 -10.33643 -10.33604
 Alpha  occ. eigenvalues --  -10.33501 -10.33417 -10.33339 -10.33250 -10.32921
 Alpha  occ. eigenvalues --  -10.32759 -10.32708 -10.32628 -10.32538 -10.32357
 Alpha  occ. eigenvalues --  -10.32303 -10.32253 -10.32115 -10.31814 -10.31806
 Alpha  occ. eigenvalues --  -10.31767 -10.31762 -10.31730 -10.31708 -10.31691
 Alpha  occ. eigenvalues --  -10.31664 -10.31585 -10.31578 -10.31506 -10.31124
 Alpha  occ. eigenvalues --  -10.30996 -10.30667 -10.30646 -10.30547 -10.30482
 Alpha  occ. eigenvalues --  -10.30387 -10.30354 -10.30313 -10.30095 -10.30092
 Alpha  occ. eigenvalues --  -10.30067 -10.30063 -10.30019 -10.29813 -10.29669
 Alpha  occ. eigenvalues --  -10.29627 -10.29435 -10.29206 -10.29206 -10.29040
 Alpha  occ. eigenvalues --  -10.28890  -3.20636  -3.20524  -1.94228  -1.94125
 Alpha  occ. eigenvalues --   -1.93780  -1.93637  -1.93596  -1.93527  -1.19750
 Alpha  occ. eigenvalues --   -1.17631  -1.13663  -1.11981  -1.11388  -1.10253
 Alpha  occ. eigenvalues --   -1.10033  -1.09993  -1.07184  -1.06337  -1.06048
 Alpha  occ. eigenvalues --   -1.05488  -1.05074  -1.04835  -1.04053  -1.03413
 Alpha  occ. eigenvalues --   -0.95004  -0.93590  -0.91175  -0.90862  -0.90556
 Alpha  occ. eigenvalues --   -0.90443  -0.90352  -0.89757  -0.89496  -0.89208
 Alpha  occ. eigenvalues --   -0.88654  -0.88361  -0.88249  -0.87558  -0.86162
 Alpha  occ. eigenvalues --   -0.85947  -0.85575  -0.84856  -0.84281  -0.84125
 Alpha  occ. eigenvalues --   -0.83823  -0.83618  -0.83338  -0.82700  -0.82209
 Alpha  occ. eigenvalues --   -0.81969  -0.80949  -0.79902  -0.79355  -0.79229
 Alpha  occ. eigenvalues --   -0.78905  -0.78695  -0.77786  -0.77709  -0.77401
 Alpha  occ. eigenvalues --   -0.76490  -0.74641  -0.74078  -0.73945  -0.73446
 Alpha  occ. eigenvalues --   -0.72138  -0.71354  -0.70826  -0.70522  -0.70299
 Alpha  occ. eigenvalues --   -0.70045  -0.69094  -0.68146  -0.67417  -0.67123
 Alpha  occ. eigenvalues --   -0.67118  -0.66825  -0.66243  -0.66088  -0.65923
 Alpha  occ. eigenvalues --   -0.65773  -0.64312  -0.63283  -0.62669  -0.62442
 Alpha  occ. eigenvalues --   -0.61590  -0.61477  -0.61106  -0.60785  -0.60712
 Alpha  occ. eigenvalues --   -0.60118  -0.59841  -0.59746  -0.59532  -0.58771
 Alpha  occ. eigenvalues --   -0.58140  -0.58086  -0.58065  -0.57829  -0.57597
 Alpha  occ. eigenvalues --   -0.57245  -0.56536  -0.56157  -0.56141  -0.55892
 Alpha  occ. eigenvalues --   -0.55610  -0.55588  -0.55425  -0.55208  -0.54858
 Alpha  occ. eigenvalues --   -0.54453  -0.54276  -0.54166  -0.54154  -0.53966
 Alpha  occ. eigenvalues --   -0.53841  -0.53674  -0.53656  -0.53362  -0.53104
 Alpha  occ. eigenvalues --   -0.52798  -0.52676  -0.52608  -0.52402  -0.52044
 Alpha  occ. eigenvalues --   -0.52026  -0.51868  -0.51583  -0.51469  -0.51456
 Alpha  occ. eigenvalues --   -0.51385  -0.51244  -0.51213  -0.51175  -0.50927
 Alpha  occ. eigenvalues --   -0.50787  -0.50714  -0.50439  -0.50140  -0.50064
 Alpha  occ. eigenvalues --   -0.50040  -0.50029  -0.49859  -0.49523  -0.49366
 Alpha  occ. eigenvalues --   -0.48791  -0.48784  -0.48508  -0.48426  -0.48112
 Alpha  occ. eigenvalues --   -0.48021  -0.47881  -0.47718  -0.47682  -0.47520
 Alpha  occ. eigenvalues --   -0.47499  -0.47147  -0.47128  -0.47103  -0.46903
 Alpha  occ. eigenvalues --   -0.46777  -0.46633  -0.46581  -0.46113  -0.45922
 Alpha  occ. eigenvalues --   -0.45756  -0.45426  -0.45253  -0.45166  -0.45076
 Alpha  occ. eigenvalues --   -0.45007  -0.44872  -0.44845  -0.44814  -0.44592
 Alpha  occ. eigenvalues --   -0.44485  -0.44233  -0.44229  -0.44109  -0.44014
 Alpha  occ. eigenvalues --   -0.43916  -0.43753  -0.43536  -0.43500  -0.43305
 Alpha  occ. eigenvalues --   -0.43297  -0.42833  -0.42815  -0.42263  -0.42093
 Alpha  occ. eigenvalues --   -0.42076  -0.41457  -0.41288  -0.41126  -0.40965
 Alpha  occ. eigenvalues --   -0.40476  -0.40261  -0.40111  -0.39906  -0.39818
 Alpha  occ. eigenvalues --   -0.39525  -0.39131  -0.38835  -0.38342  -0.38262
 Alpha  occ. eigenvalues --   -0.37815  -0.37719  -0.37141  -0.36494  -0.36148
 Alpha  occ. eigenvalues --   -0.35907  -0.35534  -0.35420  -0.33632  -0.33487
 Alpha  occ. eigenvalues --   -0.33076  -0.32985  -0.32606  -0.32467  -0.32458
 Alpha  occ. eigenvalues --   -0.32242  -0.31984  -0.31472  -0.25922  -0.25693
 Alpha  occ. eigenvalues --   -0.22866  -0.22230
 Alpha virt. eigenvalues --   -0.06752  -0.06248  -0.00250   0.00063   0.01826
 Alpha virt. eigenvalues --    0.02275   0.04247   0.04752   0.06140   0.06302
 Alpha virt. eigenvalues --    0.06694   0.07687   0.08037   0.08259   0.08475

 Mulliken charges:
               1
     1  Mg   0.965890
     2  C   -0.025650
     3  C   -0.077175
     4  C   -0.087919
     5  C   -0.117690
     6  N   -0.288295
     7  C   -0.035872
     8  C   -0.084325
     9  C   -0.089468
    10  C    0.019669
    11  C    0.040452
    12  C    0.000375
    13  C   -0.089340
    14  H    0.044153
    15  N   -0.478687
    16  C    0.175967
    17  C   -0.189363
    18  C   -0.081228
    19  C    0.188615
    20  C    0.062504
    21  C    0.064955
    22  O   -0.213748
    23  C   -0.007325
    24  N   -0.341927
    25  C    0.014492
    26  C   -0.099263
    27  C   -0.054381
    28  C    0.091118
    29  C    0.035525
    30  C   -0.009957
    31  C   -0.072540
    32  N   -0.486824
    33  C    0.144712
    34  C   -0.184409
    35  C   -0.031031
    36  C    0.180478
    37  C    0.067891
    38  C    0.153402
    39  O   -0.233742
    40  C   -0.147596
    41  C    0.242828
    42  O   -0.185884
    43  O   -0.368575
    44  C    0.110501
    45  H    0.003801
    46  H    0.009591
    47  H   -0.005509
    48  H    0.019585
    49  H    0.022900
    50  H    0.039859
    51  H    0.043933
    52  H    0.040429
    53  H    0.025738
    54  H    0.065903
    55  H    0.042668
    56  H    0.038135
    57  H    0.059058
    58  H    0.057702
    59  H    0.030235
    60  H    0.058107
    61  H    0.020579
    62  H    0.069281
    63  H    0.047889
    64  H    0.031259
    65  H    0.046303
    66  H    0.047866
    67  H    0.054280
    68  H    0.029189
    69  H    0.040679
    70  H    0.032730
    71  H    0.032856
    72  H    0.039582
    73  H    0.062266
    74  H    0.042899
    75  H    0.047432
    76  H    0.085805
    77  H    0.070129
    78  H    0.062648
    79  H    0.062884
    80  Mg   0.984679
    81  C   -0.029747
    82  C   -0.097630
    83  C   -0.088027
    84  C   -0.091598
    85  N   -0.320825
    86  C   -0.001401
    87  C   -0.052371
    88  C   -0.133843
    89  C    0.011264
    90  C    0.044511
    91  C   -0.023206
    92  C   -0.099790
    93  H    0.046676
    94  N   -0.499749
    95  C    0.214686
    96  C   -0.158445
    97  C   -0.076629
    98  C    0.175302
    99  C    0.073385
   100  C    0.037527
   101  O   -0.272504
   102  C    0.021069
   103  N   -0.348816
   104  C    0.045703
   105  C   -0.087868
   106  C   -0.049340
   107  C    0.040583
   108  C    0.013489
   109  C   -0.039906
   110  C   -0.032200
   111  N   -0.451829
   112  C    0.124912
   113  C   -0.194118
   114  C   -0.009026
   115  C    0.139229
   116  C    0.070673
   117  C    0.151212
   118  O   -0.215043
   119  C   -0.144749
   120  C    0.289414
   121  O   -0.219294
   122  O   -0.405896
   123  C    0.143374
   124  H   -0.011174
   125  H    0.021230
   126  H    0.001204
   127  H    0.028681
   128  H    0.029444
   129  H    0.028585
   130  H    0.059112
   131  H    0.036188
   132  H    0.041243
   133  H    0.036865
   134  H    0.058412
   135  H    0.059580
   136  H    0.054185
   137  H    0.057911
   138  H    0.036157
   139  H    0.065551
   140  H    0.039107
   141  H    0.055177
   142  H    0.050620
   143  H    0.044490
   144  H    0.052674
   145  H    0.038300
   146  H    0.049596
   147  H    0.034795
   148  H    0.019183
   149  H    0.041745
   150  H    0.039456
   151  H    0.036822
   152  H    0.060545
   153  H    0.027138
   154  H    0.060476
   155  H    0.091860
   156  H    0.068564
   157  H    0.050145
   158  H    0.052292
 Sum of Mulliken charges =  -0.00000

 Dipole moment (field-independent basis, Debye):
    X=              4.9101    Y=              0.4105    Z=              6.4042  Tot=              8.0803
 Quadrupole moment (field-independent basis, Debye-Ang):
   XX=           -415.2000   YY=           -481.3379   ZZ=           -510.0203
   XY=             78.4639   XZ=            -33.5574   YZ=             46.0912

 Normal termination of Gaussian 16 at Sat Sep 18 23:55:14 2021.
