 Gaussian 16, Revision A.03,
 Gaussian 16:  ES64L-G16RevA.03 25-Dec-2016

 --------------------------------
 #p wB97XD/Def2SVP td=(nstates=5)
 --------------------------------

 --------------------------------
 TDDFT excited states in gaussian
 --------------------------------
 Symbolic Z-matrix:
 Charge =  0 Multiplicity = 1

                         Standard orientation:
 ---------------------------------------------------------------------
 Center     Atomic      Atomic             Coordinates (Angstroms)
 Number     Number       Type             X           Y           Z
 ---------------------------------------------------------------------
      1         12           0      -21.302574   -0.520436    0.011784
      2          6           0      -19.735526    2.734490   -0.861905
      3          6           0      -20.640752    0.391194    3.198450
      4          6           0      -22.390387   -3.434830    0.620546
      5          6           0      -21.007422   -1.317012   -3.445421
      6          7           0      -20.262323    1.319455    1.000300
      7          6           0      -19.899364    2.542986    0.463267
      8          6           0      -19.614673    3.635974    1.499776
      9          6           0      -19.468083    2.730450    2.761475
     10          6           0      -20.153687    1.375787    2.332700
     11          6           0      -18.063987    2.512838    3.230587
     12          6           0      -20.651983    4.803092    1.612597
     13          6           0      -20.154588    6.147282    2.027898
     14          1           0      -21.095767    6.941577    2.927949
     15          7           0      -21.548619   -1.429381    1.725542
     16          6           0      -21.273226   -0.877868    2.994325
     17          6           0      -21.789174   -1.780624    3.982604
     18          6           0      -22.442020   -2.825302    3.194501
     19          6           0      -22.138281   -2.569227    1.832885
     20          6           0      -21.784180   -1.522164    5.534706
     21          6           0      -23.260766   -3.947046    3.756340
     22          8           0      -23.743327   -4.848894    3.028871
     23          6           0      -23.610059   -4.058052    5.195530
     24          7           0      -21.515273   -2.217489   -1.156460
     25          6           0      -22.024995   -3.350865   -0.670052
     26          6           0      -22.224943   -4.468062   -1.743810
     27          6           0      -22.194139   -3.566133   -3.033593
     28          6           0      -21.481232   -2.278321   -2.537777
     29          6           0      -21.058793   -5.508194   -1.739206
     30          6           0      -23.649398   -3.214473   -3.558251
     31          6           0      -24.652243   -4.354628   -3.833468
     32          7           0      -20.581406    0.484643   -1.804849
     33          6           0      -20.605158    0.027873   -3.117681
     34          6           0      -20.026434    1.024305   -3.988266
     35          6           0      -19.711025    2.106328   -3.156553
     36          6           0      -19.981161    1.714445   -1.816615
     37          6           0      -19.937800    0.970612   -5.476417
     38          6           0      -19.171565    3.459791   -3.151889
     39          8           0      -18.803308    4.230876   -4.028115
     40          6           0      -19.282197    3.906720   -1.602885
     41          6           0      -17.968381    4.415841   -1.248770
     42          8           0      -16.902466    3.780363   -1.232291
     43          8           0      -18.005868    5.775938   -1.363867
     44          6           0      -16.816606    6.531365   -1.132684
     45          1           0      -20.533103    0.810716    4.201058
     46          1           0      -22.767845   -4.446149    0.784380
     47          1           0      -20.957716   -1.613241   -4.495659
     48          1           0      -18.640822    4.061214    1.256181
     49          1           0      -20.107623    3.090438    3.566846
     50          1           0      -17.794867    1.491161    2.962460
     51          1           0      -18.027687    2.569235    4.318427
     52          1           0      -17.294489    3.171637    2.828628
     53          1           0      -21.368644    4.512577    2.380247
     54          1           0      -21.192974    4.846694    0.667712
     55          1           0      -20.035956    6.676292    1.082503
     56          1           0      -19.117585    6.125424    2.363214
     57          1           0      -22.748078   -1.261778    5.970970
     58          1           0      -21.028152   -0.788365    5.812815
     59          1           0      -21.439414   -2.487416    5.907628
     60          1           0      -22.726062   -4.397802    5.735786
     61          1           0      -24.401608   -4.806106    5.247576
     62          1           0      -24.000972   -3.085873    5.493944
     63          1           0      -23.180585   -4.937647   -1.508279
     64          1           0      -21.617285   -3.958403   -3.870579
     65          1           0      -21.488267   -6.448901   -1.393742
     66          1           0      -20.174912   -5.230544   -1.165870
     67          1           0      -20.828054   -5.578286   -2.803143
     68          1           0      -23.555545   -2.717567   -4.523554
     69          1           0      -24.042438   -2.464528   -2.872037
     70          1           0      -25.501619   -4.134930   -3.186809
     71          1           0      -24.140928   -5.248511   -3.475066
     72          1           0      -24.975896   -4.386970   -4.873698
     73          1           0      -20.592216    0.144055   -5.754216
     74          1           0      -18.898195    0.737690   -5.706615
     75          1           0      -20.177230    1.911893   -5.971121
     76          1           0      -20.040440    4.682928   -1.501208
     77          1           0      -15.981366    5.892954   -0.843907
     78          1           0      -17.052441    7.174912   -0.285048
     79          1           0      -16.606186    7.202607   -1.964087
     80         12           0       20.181652   -0.853904   -0.174980
     81          6           0       22.433839    1.905919   -0.556890
     82          6           0       18.144563    1.356616    1.670946
     83          6           0       18.389046   -3.382046    0.873459
     84          6           0       22.471358   -2.871211   -1.675041
     85          7           0       20.287334    1.380562    0.416132
     86          6           0       21.255334    2.244421    0.026233
     87          6           0       20.837125    3.651540    0.419876
     88          6           0       19.451157    3.562866    1.118726
     89          6           0       19.248065    2.037050    1.049297
     90          6           0       19.432504    4.201052    2.620195
     91          6           0       20.748532    4.637058   -0.822998
     92          6           0       21.429275    5.997331   -0.667460
     93          1           0       21.486982    6.724142    0.735842
     94          7           0       18.512694   -0.998718    1.152926
     95          6           0       17.858799   -0.017882    1.738372
     96          6           0       16.797999   -0.607713    2.505347
     97          6           0       16.701111   -1.991567    2.211781
     98          6           0       17.894033   -2.179009    1.428241
     99          6           0       15.751112    0.225130    3.243291
    100          6           0       15.659474   -3.065664    2.483246
    101          8           0       15.821275   -4.235451    2.187552
    102          6           0       14.367280   -2.594604    3.091752
    103          7           0       20.607099   -2.855735   -0.082510
    104          6           0       19.573104   -3.740707    0.228579
    105          6           0       19.836755   -5.186180   -0.274011
    106          6           0       21.069230   -4.903485   -1.213396
    107          6           0       21.421039   -3.433000   -0.988383
    108          6           0       20.093584   -6.136921    0.904161
    109          6           0       20.741550   -5.081900   -2.770981
    110          6           0       21.265610   -6.288716   -3.474517
    111          7           0       21.978512   -0.566177   -1.047812
    112          6           0       22.818851   -1.510431   -1.596953
    113          6           0       24.108900   -0.955633   -1.998485
    114          6           0       24.009264    0.427177   -1.607219
    115          6           0       22.771871    0.572458   -0.936672
    116          6           0       25.113305   -1.683046   -2.817007
    117          6           0       24.650915    1.731337   -1.670380
    118          8           0       25.741101    2.006706   -2.203758
    119          6           0       23.640386    2.786276   -0.940081
    120          6           0       24.391951    3.294857    0.196423
    121          8           0       24.871258    2.589152    1.056767
    122          8           0       24.472849    4.630479    0.173218
    123          6           0       25.242510    5.402309    1.198720
    124          1           0       17.440508    2.012214    2.187452
    125          1           0       17.664913   -4.197568    0.807742
    126          1           0       23.136712   -3.540109   -2.224400
    127          1           0       21.566956    4.008960    1.146321
    128          1           0       18.698442    4.165436    0.610081
    129          1           0       20.238630    4.924167    2.744531
    130          1           0       19.533125    3.344049    3.286675
    131          1           0       18.468761    4.675199    2.805179
    132          1           0       19.742797    4.814750   -1.201349
    133          1           0       21.260119    4.186044   -1.673186
    134          1           0       21.020883    6.732450   -1.361263
    135          1           0       22.435922    5.802529   -1.037360
    136          1           0       14.826534    0.376055    2.685837
    137          1           0       16.173150    1.155395    3.624738
    138          1           0       15.513899   -0.328652    4.151390
    139          1           0       13.979284   -1.657493    2.691386
    140          1           0       14.394289   -2.455598    4.171612
    141          1           0       13.564277   -3.256800    2.767944
    142          1           0       18.946486   -5.507630   -0.813869
    143          1           0       21.867530   -5.589940   -0.930962
    144          1           0       19.874072   -5.712349    1.883683
    145          1           0       21.139472   -6.437090    0.957878
    146          1           0       19.498545   -7.040990    0.770886
    147          1           0       21.087456   -4.267530   -3.407549
    148          1           0       19.673373   -5.042900   -2.981268
    149          1           0       20.440878   -6.909807   -3.821696
    150          1           0       21.842352   -6.791671   -2.698082
    151          1           0       21.864553   -5.997650   -4.337394
    152          1           0       25.633978   -1.009786   -3.497132
    153          1           0       24.583677   -2.516629   -3.277870
    154          1           0       25.843536   -2.094104   -2.118605
    155          1           0       23.380068    3.616232   -1.595594
    156          1           0       26.241665    4.977189    1.295707
    157          1           0       24.773173    5.376785    2.182476
    158          1           0       25.257557    6.476811    1.018282
 ---------------------------------------------------------------------

 SCF Done:  E(RwB97XD) =  -4070.60023061     A.U. after   19 cycles

 Excitation energies and oscillator strengths:

 Excited State   1:      Singlet-A      1.6007 eV  774.54 nm  f=0.3845  <S**2>=0.000
     309 -> 316       -0.16169
     311 -> 313        0.68931
     309 <- 316       -0.11299
 This state for optimization and/or second-order correction.
 Total Energy, E(TD-HF/TD-DFT) =  -4070.54140416
 Copying the excited state density for this state as the 1-particle RhoCI density.

 Excited State   2:      Singlet-A      1.6235 eV  763.67 nm  f=0.4067  <S**2>=0.000
     310 -> 315       -0.17886
     312 -> 314        0.68452
     310 <- 315       -0.11641

 Excited State   3:      Singlet-A      2.1246 eV  583.56 nm  f=0.2080  <S**2>=0.000
     309 -> 313        0.66536
     311 -> 316        0.22066

 Excited State   4:      Singlet-A      2.1424 eV  578.72 nm  f=0.1311  <S**2>=0.000
     310 -> 314        0.64795
     312 -> 315        0.26646

 Excited State   5:      Singlet-A      3.1837 eV  389.44 nm  f=0.0051  <S**2>=0.000
     304 -> 313        0.18368
     306 -> 313        0.66039

 The electronic state is 1-A.
 Alpha  occ. eigenvalues --  -46.95272 -46.94961 -19.30456 -19.30091 -19.25030
 Alpha  occ. eigenvalues --  -19.24541 -19.24439 -19.24102 -19.23442 -19.22475
 Alpha  occ. eigenvalues --  -14.46965 -14.46486 -14.46298 -14.46034 -14.44310
 Alpha  occ. eigenvalues --  -14.44233 -14.43990 -14.43646 -10.43055 -10.42303
 Alpha  occ. eigenvalues --  -10.40089 -10.39740 -10.39527 -10.37956 -10.36274
 Alpha  occ. eigenvalues --  -10.35489 -10.35366 -10.34892 -10.34827 -10.34807
 Alpha  occ. eigenvalues --  -10.34782 -10.34725 -10.34515 -10.34496 -10.34479
 Alpha  occ. eigenvalues --  -10.34264 -10.33875 -10.33666 -10.33600 -10.33240
 Alpha  occ. eigenvalues --  -10.33199 -10.33151 -10.33013 -10.32948 -10.32736
 Alpha  occ. eigenvalues --  -10.32622 -10.32427 -10.32324 -10.32302 -10.32256
 Alpha  occ. eigenvalues --  -10.32213 -10.32195 -10.32155 -10.32095 -10.32076
 Alpha  occ. eigenvalues --  -10.32033 -10.31984 -10.31846 -10.31829 -10.31736
 Alpha  occ. eigenvalues --  -10.31670 -10.31574 -10.31447 -10.31143 -10.31027
 Alpha  occ. eigenvalues --  -10.30960 -10.30803 -10.30648 -10.30598 -10.30354
 Alpha  occ. eigenvalues --  -10.30300 -10.30248 -10.30122 -10.29941 -10.29915
 Alpha  occ. eigenvalues --  -10.29814 -10.29732 -10.29675 -10.29652 -10.29638
 Alpha  occ. eigenvalues --  -10.29612 -10.29594 -10.29464 -10.29407 -10.29299
 Alpha  occ. eigenvalues --  -10.28802  -3.21374  -3.21026  -1.94933  -1.94581
 Alpha  occ. eigenvalues --   -1.94497  -1.94361  -1.94157  -1.94005  -1.18776
 Alpha  occ. eigenvalues --   -1.18718  -1.13048  -1.12549  -1.10688  -1.09667
 Alpha  occ. eigenvalues --   -1.09550  -1.09267  -1.06961  -1.06675  -1.06089
 Alpha  occ. eigenvalues --   -1.05698  -1.05513  -1.05136  -1.04629  -1.03921
 Alpha  occ. eigenvalues --   -0.95746  -0.94133  -0.91451  -0.90712  -0.90500
 Alpha  occ. eigenvalues --   -0.90147  -0.89989  -0.89961  -0.89425  -0.89048
 Alpha  occ. eigenvalues --   -0.88944  -0.88822  -0.88355  -0.88213  -0.86667
 Alpha  occ. eigenvalues --   -0.86143  -0.86013  -0.86003  -0.85057  -0.84553
 Alpha  occ. eigenvalues --   -0.84052  -0.83739  -0.83220  -0.83067  -0.82813
 Alpha  occ. eigenvalues --   -0.82652  -0.80542  -0.80217  -0.79597  -0.79454
 Alpha  occ. eigenvalues --   -0.79250  -0.78793  -0.78206  -0.78175  -0.77417
 Alpha  occ. eigenvalues --   -0.76780  -0.75396  -0.74474  -0.73391  -0.72933
 Alpha  occ. eigenvalues --   -0.71247  -0.70739  -0.70627  -0.70212  -0.69744
 Alpha  occ. eigenvalues --   -0.69601  -0.68947  -0.68917  -0.67689  -0.67466
 Alpha  occ. eigenvalues --   -0.67118  -0.67091  -0.66933  -0.66621  -0.66493
 Alpha  occ. eigenvalues --   -0.66483  -0.64404  -0.64089  -0.62768  -0.62485
 Alpha  occ. eigenvalues --   -0.61818  -0.61533  -0.61168  -0.60876  -0.60815
 Alpha  occ. eigenvalues --   -0.60459  -0.60423  -0.60025  -0.59732  -0.59455
 Alpha  occ. eigenvalues --   -0.58081  -0.57893  -0.57660  -0.57640  -0.57139
 Alpha  occ. eigenvalues --   -0.56896  -0.56649  -0.56281  -0.56129  -0.55699
 Alpha  occ. eigenvalues --   -0.55438  -0.55248  -0.55219  -0.54932  -0.54843
 Alpha  occ. eigenvalues --   -0.54806  -0.54536  -0.54502  -0.54387  -0.54245
 Alpha  occ. eigenvalues --   -0.53996  -0.53731  -0.53382  -0.53219  -0.53203
 Alpha  occ. eigenvalues --   -0.53103  -0.52968  -0.52531  -0.52459  -0.52252
 Alpha  occ. eigenvalues --   -0.51990  -0.51919  -0.51879  -0.51853  -0.51670
 Alpha  occ. eigenvalues --   -0.51485  -0.51190  -0.51164  -0.50998  -0.50695
 Alpha  occ. eigenvalues --   -0.50685  -0.50481  -0.50318  -0.50288  -0.50106
 Alpha  occ. eigenvalues --   -0.50023  -0.49817  -0.49665  -0.49548  -0.49348
 Alpha  occ. eigenvalues --   -0.49201  -0.48649  -0.48523  -0.48487  -0.48388
 Alpha  occ. eigenvalues --   -0.48177  -0.48154  -0.48041  -0.47929  -0.47816
 Alpha  occ. eigenvalues --   -0.47413  -0.47218  -0.47068  -0.47029  -0.46956
 Alpha  occ. eigenvalues --   -0.46776  -0.46451  -0.46326  -0.46182  -0.45952
 Alpha  occ. eigenvalues --   -0.45746  -0.45703  -0.45532  -0.45256  -0.45214
 Alpha  occ. eigenvalues --   -0.45092  -0.44964  -0.44796  -0.44681  -0.44629
 Alpha  occ. eigenvalues --   -0.44592  -0.44433  -0.44068  -0.43947  -0.43762
 Alpha  occ. eigenvalues --   -0.43639  -0.43474  -0.43332  -0.43272  -0.43189
 Alpha  occ. eigenvalues --   -0.42902  -0.42687  -0.42619  -0.42425  -0.42177
 Alpha  occ. eigenvalues --   -0.41775  -0.41603  -0.41406  -0.41266  -0.41254
 Alpha  occ. eigenvalues --   -0.40507  -0.40275  -0.40198  -0.39844  -0.39722
 Alpha  occ. eigenvalues --   -0.39264  -0.39047  -0.38528  -0.38437  -0.38219
 Alpha  occ. eigenvalues --   -0.38113  -0.37898  -0.36658  -0.36441  -0.36310
 Alpha  occ. eigenvalues --   -0.35695  -0.35431  -0.35226  -0.33815  -0.33684
 Alpha  occ. eigenvalues --   -0.33478  -0.33393  -0.32776  -0.32279  -0.32259
 Alpha  occ. eigenvalues --   -0.32107  -0.31800  -0.31574  -0.26209  -0.25743
 Alpha  occ. eigenvalues --   -0.23582  -0.22756
 Alpha virt. eigenvalues --   -0.08058  -0.07071   0.00809   0.01106   0.02221
 Alpha virt. eigenvalues --    0.02323   0.04163   0.04246   0.04909   0.04944
 Alpha virt. eigenvalues --    0.06064   0.07374   0.07611   0.07874   0.08165

 Mulliken charges:
               1
     1  Mg   0.983441
     2  C   -0.013693
     3  C   -0.065954
     4  C   -0.042891
     5  C   -0.083010
     6  N   -0.296622
     7  C   -0.036666
     8  C   -0.084099
     9  C   -0.102265
    10  C   -0.016764
    11  C    0.047887
    12  C    0.043078
    13  C   -0.116543
    14  H    0.053908
    15  N   -0.496834
    16  C    0.190416
    17  C   -0.170703
    18  C   -0.082093
    19  C    0.148001
    20  C    0.071689
    21  C    0.008686
    22  O   -0.274908
    23  C    0.009849
    24  N   -0.391759
    25  C    0.045255
    26  C   -0.110612
    27  C   -0.102291
    28  C    0.088837
    29  C    0.051772
    30  C   -0.033932
    31  C   -0.032717
    32  N   -0.400002
    33  C    0.123050
    34  C   -0.202580
    35  C   -0.040083
    36  C    0.129423
    37  C    0.087823
    38  C    0.156480
    39  O   -0.192291
    40  C   -0.059996
    41  C    0.245604
    42  O   -0.268814
    43  O   -0.350398
    44  C    0.133711
    45  H   -0.007694
    46  H    0.013687
    47  H    0.005001
    48  H    0.033289
    49  H    0.025434
    50  H    0.044473
    51  H    0.034247
    52  H    0.048361
    53  H    0.032055
    54  H    0.031308
    55  H    0.047998
    56  H    0.042890
    57  H    0.068056
    58  H    0.040286
    59  H    0.043081
    60  H    0.063981
    61  H    0.055128
    62  H    0.045519
    63  H    0.047139
    64  H    0.025423
    65  H    0.046401
    66  H    0.060227
    67  H    0.027965
    68  H    0.024663
    69  H    0.033423
    70  H    0.042579
    71  H    0.036223
    72  H    0.048619
    73  H    0.031216
    74  H    0.059985
    75  H    0.065029
    76  H    0.071922
    77  H    0.066031
    78  H    0.033738
    79  H    0.061924
    80  Mg   0.966410
    81  C   -0.049256
    82  C   -0.089682
    83  C   -0.059669
    84  C   -0.106197
    85  N   -0.317589
    86  C    0.011351
    87  C   -0.040440
    88  C   -0.105328
    89  C    0.050263
    90  C   -0.005200
    91  C   -0.008620
    92  C   -0.109767
    93  H    0.017116
    94  N   -0.388051
    95  C    0.163897
    96  C   -0.188223
    97  C   -0.059137
    98  C    0.115217
    99  C    0.051824
   100  C    0.080767
   101  O   -0.219420
   102  C   -0.036948
   103  N   -0.403486
   104  C    0.019140
   105  C   -0.074852
   106  C   -0.053987
   107  C    0.103327
   108  C    0.032743
   109  C   -0.056529
   110  C   -0.031323
   111  N   -0.481598
   112  C    0.161878
   113  C   -0.187152
   114  C   -0.019244
   115  C    0.159909
   116  C    0.089879
   117  C    0.119831
   118  O   -0.226495
   119  C   -0.061698
   120  C    0.257985
   121  O   -0.245691
   122  O   -0.357568
   123  C    0.146443
   124  H   -0.009361
   125  H    0.024536
   126  H    0.001010
   127  H    0.044137
   128  H    0.046821
   129  H    0.047913
   130  H    0.045180
   131  H    0.037815
   132  H    0.030206
   133  H    0.028317
   134  H    0.044373
   135  H    0.052402
   136  H    0.066483
   137  H    0.038086
   138  H    0.031160
   139  H    0.036090
   140  H    0.074662
   141  H    0.049311
   142  H    0.043710
   143  H    0.035652
   144  H    0.053033
   145  H    0.026321
   146  H    0.041782
   147  H    0.029357
   148  H    0.020507
   149  H    0.036589
   150  H    0.025274
   151  H    0.038911
   152  H    0.066619
   153  H    0.037270
   154  H    0.055588
   155  H    0.057936
   156  H    0.070408
   157  H    0.046833
   158  H    0.060243
 Sum of Mulliken charges =  -0.00000

 Dipole moment (field-independent basis, Debye):
    X=             -6.4149    Y=              2.8104    Z=              2.1348  Tot=              7.3217
 Quadrupole moment (field-independent basis, Debye-Ang):
   XX=           -647.2689   YY=           -488.4324   ZZ=           -485.7039
   XY=             -6.0499   XZ=            -49.0903   YZ=             50.0256

 Normal termination of Gaussian 16 at Sat Sep 18 17:27:49 2021.
