 Gaussian 16, Revision A.03,
 Gaussian 16:  ES64L-G16RevA.03 25-Dec-2016

 --------------------------------
 #p wB97XD/Def2SVP td=(nstates=5)
 --------------------------------

 --------------------------------
 TDDFT excited states in gaussian
 --------------------------------
 Symbolic Z-matrix:
 Charge =  0 Multiplicity = 1

                         Standard orientation:
 ---------------------------------------------------------------------
 Center     Atomic      Atomic             Coordinates (Angstroms)
 Number     Number       Type             X           Y           Z
 ---------------------------------------------------------------------
      1         12           0       33.263624    0.466159   -0.402449
      2          6           0       31.520146   -2.420855    0.362397
      3          6           0       30.935099    2.293425    1.555074
      4          6           0       35.234973    3.260156   -0.625003
      5          6           0       35.775199   -1.374611   -1.896626
      6          7           0       31.380180   -0.036450    0.691329
      7          6           0       30.929751   -1.314928    0.945050
      8          6           0       29.763533   -1.383324    2.000938
      9          6           0       29.328439    0.156476    2.063140
     10          6           0       30.585135    0.918551    1.361256
     11          6           0       27.951113    0.594499    1.434244
     12          6           0       30.145809   -1.917829    3.336258
     13          6           0       29.497259   -3.174612    3.884039
     14          1           0       29.406521   -3.274335    5.415241
     15          7           0       33.055057    2.537339    0.288791
     16          6           0       31.970828    3.040161    1.032429
     17          6           0       32.125078    4.448793    1.211888
     18          6           0       33.491336    4.738800    0.703012
     19          6           0       34.023946    3.484122    0.087151
     20          6           0       31.168885    5.320765    2.032307
     21          6           0       34.109868    6.142106    0.828038
     22          8           0       33.607742    7.131877    1.352774
     23          6           0       35.572399    6.259252    0.581897
     24          7           0       35.392478    0.878788   -1.024978
     25          6           0       35.837156    2.134490   -1.170287
     26          6           0       37.328941    2.032914   -1.484937
     27          6           0       37.556393    0.536701   -2.003615
     28          6           0       36.124277   -0.067635   -1.651878
     29          6           0       37.691600    3.025799   -2.645552
     30          6           0       38.733321   -0.335706   -1.401716
     31          6           0       39.899832   -0.769706   -2.276652
     32          7           0       33.577944   -1.534580   -0.797351
     33          6           0       34.643495   -2.156164   -1.455919
     34          6           0       34.459090   -3.575207   -1.450117
     35          6           0       33.234815   -3.766348   -0.737949
     36          6           0       32.739636   -2.442575   -0.416889
     37          6           0       35.346962   -4.633502   -2.024941
     38          6           0       32.277204   -4.689634   -0.286586
     39          8           0       32.289248   -5.898419   -0.406144
     40          6           0       31.177354   -3.885093    0.508744
     41          6           0       29.851193   -4.369216    0.094518
     42          8           0       29.156116   -5.103386    0.787690
     43          8           0       29.544090   -3.896610   -1.172696
     44          6           0       28.238170   -4.383410   -1.671309
     45          1           0       30.263538    2.964472    2.093862
     46          1           0       35.757004    4.214405   -0.725759
     47          1           0       36.598981   -1.941844   -2.334615
     48          1           0       28.943943   -1.976046    1.596157
     49          1           0       29.378816    0.447786    3.112898
     50          1           0       27.383881   -0.316406    1.243190
     51          1           0       28.035425    1.182995    0.520548
     52          1           0       27.463952    1.243032    2.161422
     53          1           0       29.875249   -1.149322    4.061906
     54          1           0       31.212264   -2.139713    3.356033
     55          1           0       30.122560   -4.019906    3.598159
     56          1           0       28.467128   -3.307917    3.554431
     57          1           0       30.329509    4.886870    2.575248
     58          1           0       30.862782    6.067441    1.300005
     59          1           0       31.844251    5.911662    2.650209
     60          1           0       35.935219    6.466987   -0.423821
     61          1           0       36.131002    5.428630    1.013590
     62          1           0       35.894576    7.149021    1.124114
     63          1           0       37.959494    2.241029   -0.620234
     64          1           0       37.588339    0.517958   -3.092424
     65          1           0       38.559071    3.594728   -2.311045
     66          1           0       36.894613    3.705911   -2.948790
     67          1           0       37.944977    2.522186   -3.578721
     68          1           0       38.227154   -1.214920   -1.003731
     69          1           0       39.182618    0.292068   -0.630964
     70          1           0       40.299843   -1.660127   -1.790981
     71          1           0       40.671652   -0.000505   -2.241898
     72          1           0       39.728131   -1.051412   -3.314991
     73          1           0       34.852015   -5.582400   -1.816599
     74          1           0       36.324168   -4.523692   -1.555694
     75          1           0       35.486943   -4.586658   -3.105051
     76          1           0       31.329672   -4.200063    1.541620
     77          1           0       28.369644   -5.320286   -2.212574
     78          1           0       27.814258   -3.559997   -2.246063
     79          1           0       27.526676   -4.537861   -0.860622
     80         12           0      -33.494717   -0.406852   -0.640654
     81          6           0      -30.616783    1.597403   -0.281446
     82          6           0      -31.766462   -2.933434    0.854899
     83          6           0      -36.460799   -2.069546   -0.295317
     84          6           0      -35.167398    2.562153   -1.683324
     85          7           0      -31.431433   -0.591702    0.334285
     86          6           0      -30.366902    0.258799    0.245549
     87          6           0      -29.139907   -0.260640    1.014671
     88          6           0      -29.524922   -1.820333    0.974139
     89          6           0      -31.007974   -1.787905    0.700095
     90          6           0      -28.773313   -2.672582   -0.083352
     91          6           0      -29.024324    0.267698    2.514963
     92          6           0      -27.657945    0.293891    3.182368
     93          1           0      -27.290296   -0.657890    4.340587
     94          7           0      -34.124564   -2.307798    0.142473
     95          6           0      -33.207644   -3.220982    0.575571
     96          6           0      -33.798972   -4.468827    0.779855
     97          6           0      -35.189187   -4.283517    0.428936
     98          6           0      -35.353903   -2.840698    0.094137
     99          6           0      -33.064871   -5.721170    1.243688
    100          6           0      -36.194771   -5.411996    0.466460
    101          8           0      -35.821852   -6.564706    0.805436
    102          6           0      -37.684752   -5.266541   -0.004201
    103          7           0      -35.457756    0.205179   -0.959183
    104          6           0      -36.536250   -0.701916   -0.775220
    105          6           0      -37.783407   -0.150613   -1.408437
    106          6           0      -37.512966    1.364585   -1.532124
    107          6           0      -35.958199    1.407079   -1.470945
    108          6           0      -38.223963   -0.650684   -2.802793
    109          6           0      -38.139257    2.204281   -0.298124
    110          6           0      -39.602287    2.615326   -0.367603
    111          7           0      -32.928211    1.619705   -1.095298
    112          6           0      -33.705104    2.690388   -1.511586
    113          6           0      -32.966137    3.855311   -1.596736
    114          6           0      -31.684110    3.474001   -1.165201
    115          6           0      -31.727107    2.105544   -0.849366
    116          6           0      -33.491954    5.179890   -2.052257
    117          6           0      -30.393587    3.903365   -1.028740
    118          8           0      -29.879258    4.955416   -1.353473
    119          6           0      -29.718931    2.781450   -0.211693
    120          6           0      -29.532102    3.361874    1.158337
    121          8           0      -30.420547    3.780808    1.833048
    122          8           0      -28.174893    3.407307    1.482003
    123          6           0      -27.933332    4.102140    2.698485
    124          1           0      -31.200245   -3.824549    1.134626
    125          1           0      -37.402107   -2.614057   -0.399301
    126          1           0      -35.713595    3.389521   -2.140639
    127          1           0      -28.219783   -0.176607    0.437353
    128          1           0      -29.246526   -2.229017    1.945119
    129          1           0      -27.982015   -3.134309    0.507872
    130          1           0      -28.310819   -2.059043   -0.856414
    131          1           0      -29.411457   -3.453766   -0.496746
    132          1           0      -29.616799   -0.356690    3.183770
    133          1           0      -29.508943    1.244092    2.534267
    134          1           0      -27.558559    1.322571    3.531862
    135          1           0      -26.914878    0.160072    2.396374
    136          1           0      -33.355945   -6.695411    0.849536
    137          1           0      -33.214178   -5.594181    2.315667
    138          1           0      -32.023689   -5.680779    0.923603
    139          1           0      -37.706725   -5.014935   -1.064192
    140          1           0      -38.057448   -4.481278    0.653201
    141          1           0      -38.344943   -6.103230    0.223883
    142          1           0      -38.581732   -0.290382   -0.680296
    143          1           0      -37.896035    1.778692   -2.464866
    144          1           0      -38.164474    0.089326   -3.600690
    145          1           0      -39.062585   -1.343378   -2.729153
    146          1           0      -37.432870   -1.343670   -3.088779
    147          1           0      -37.482819    3.074033   -0.315849
    148          1           0      -38.006182    1.668683    0.642027
    149          1           0      -40.106737    2.293934    0.543226
    150          1           0      -40.069644    2.134646   -1.227484
    151          1           0      -39.708992    3.699640   -0.408233
    152          1           0      -33.176613    5.900791   -1.298518
    153          1           0      -34.581909    5.218593   -2.063622
    154          1           0      -33.083426    5.490636   -3.013995
    155          1           0      -28.753548    2.566992   -0.668813
    156          1           0      -27.732847    5.151913    2.486029
    157          1           0      -27.003126    3.811023    3.187890
    158          1           0      -28.773565    4.038203    3.387766
 ---------------------------------------------------------------------

 SCF Done:  E(RwB97XD) =  -4070.56942456     A.U. after   20 cycles

 Excitation energies and oscillator strengths:

 Excited State   1:      Singlet-A      1.6461 eV  753.19 nm  f=0.3972  <S**2>=0.000
     310 -> 315       -0.19124
     312 -> 314        0.68053
     310 <- 315       -0.11799
 This state for optimization and/or second-order correction.
 Total Energy, E(TD-HF/TD-DFT) =  -4070.50893099
 Copying the excited state density for this state as the 1-particle RhoCI density.

 Excited State   2:      Singlet-A      1.6653 eV  744.51 nm  f=0.3833  <S**2>=0.000
     309 -> 316        0.17863
     311 -> 313        0.68429
     309 <- 316        0.11349

 Excited State   3:      Singlet-A      2.0912 eV  592.88 nm  f=0.1265  <S**2>=0.000
     310 -> 314        0.64853
     312 -> 315        0.26307

 Excited State   4:      Singlet-A      2.1184 eV  585.28 nm  f=0.1553  <S**2>=0.000
     309 -> 313        0.64909
     311 -> 316       -0.25654

 Excited State   5:      Singlet-A      3.0630 eV  404.78 nm  f=0.0076  <S**2>=0.000
     307 -> 313        0.68071

 The electronic state is 1-A.
 Alpha  occ. eigenvalues --  -46.96838 -46.96661 -19.30640 -19.30352 -19.25853
 Alpha  occ. eigenvalues --  -19.24781 -19.24210 -19.23306 -19.23175 -19.22934
 Alpha  occ. eigenvalues --  -14.48172 -14.47792 -14.47281 -14.46569 -14.44719
 Alpha  occ. eigenvalues --  -14.44432 -14.44413 -14.43826 -10.43568 -10.42986
 Alpha  occ. eigenvalues --  -10.39319 -10.39030 -10.38162 -10.37363 -10.37290
 Alpha  occ. eigenvalues --  -10.36480 -10.36376 -10.36241 -10.35769 -10.35699
 Alpha  occ. eigenvalues --  -10.35698 -10.35246 -10.35000 -10.34801 -10.34751
 Alpha  occ. eigenvalues --  -10.34736 -10.34568 -10.34294 -10.34113 -10.34100
 Alpha  occ. eigenvalues --  -10.33987 -10.33543 -10.33330 -10.33090 -10.33041
 Alpha  occ. eigenvalues --  -10.32789 -10.32760 -10.32747 -10.32590 -10.32483
 Alpha  occ. eigenvalues --  -10.32383 -10.32376 -10.32355 -10.32339 -10.32320
 Alpha  occ. eigenvalues --  -10.32235 -10.32117 -10.32101 -10.32044 -10.31930
 Alpha  occ. eigenvalues --  -10.31910 -10.31874 -10.31719 -10.31657 -10.31554
 Alpha  occ. eigenvalues --  -10.31538 -10.31505 -10.31339 -10.31312 -10.30973
 Alpha  occ. eigenvalues --  -10.30882 -10.30858 -10.30480 -10.30439 -10.30356
 Alpha  occ. eigenvalues --  -10.30239 -10.30180 -10.30080 -10.29971 -10.29896
 Alpha  occ. eigenvalues --  -10.29800 -10.29719 -10.29472 -10.29349 -10.28910
 Alpha  occ. eigenvalues --  -10.28203  -3.22533  -3.22431  -1.96142  -1.96012
 Alpha  occ. eigenvalues --   -1.95624  -1.95541  -1.95494  -1.95390  -1.19808
 Alpha  occ. eigenvalues --   -1.17702  -1.12349  -1.12271  -1.11967  -1.11751
 Alpha  occ. eigenvalues --   -1.09690  -1.09538  -1.07789  -1.06813  -1.06723
 Alpha  occ. eigenvalues --   -1.06074  -1.05987  -1.04654  -1.03914  -1.03826
 Alpha  occ. eigenvalues --   -0.96383  -0.94556  -0.91487  -0.91270  -0.90876
 Alpha  occ. eigenvalues --   -0.90642  -0.90569  -0.90060  -0.89667  -0.89534
 Alpha  occ. eigenvalues --   -0.89097  -0.89038  -0.87875  -0.87853  -0.86459
 Alpha  occ. eigenvalues --   -0.86310  -0.85739  -0.85541  -0.84844  -0.84839
 Alpha  occ. eigenvalues --   -0.84194  -0.83826  -0.82845  -0.82743  -0.82661
 Alpha  occ. eigenvalues --   -0.82311  -0.80029  -0.79801  -0.79317  -0.79154
 Alpha  occ. eigenvalues --   -0.78956  -0.78905  -0.78163  -0.77916  -0.77657
 Alpha  occ. eigenvalues --   -0.77476  -0.75618  -0.75513  -0.74303  -0.74251
 Alpha  occ. eigenvalues --   -0.71487  -0.71355  -0.70986  -0.70427  -0.70401
 Alpha  occ. eigenvalues --   -0.70006  -0.69174  -0.69113  -0.68263  -0.67557
 Alpha  occ. eigenvalues --   -0.67471  -0.67334  -0.67301  -0.66798  -0.66722
 Alpha  occ. eigenvalues --   -0.66247  -0.64996  -0.64816  -0.62515  -0.62318
 Alpha  occ. eigenvalues --   -0.62170  -0.61745  -0.61595  -0.61470  -0.61200
 Alpha  occ. eigenvalues --   -0.61086  -0.61042  -0.60097  -0.59812  -0.58919
 Alpha  occ. eigenvalues --   -0.58569  -0.58505  -0.57944  -0.57702  -0.57421
 Alpha  occ. eigenvalues --   -0.57292  -0.57087  -0.56707  -0.55819  -0.55785
 Alpha  occ. eigenvalues --   -0.55519  -0.55510  -0.55191  -0.55132  -0.54817
 Alpha  occ. eigenvalues --   -0.54745  -0.54708  -0.54536  -0.54413  -0.54227
 Alpha  occ. eigenvalues --   -0.54059  -0.53858  -0.53794  -0.53365  -0.53278
 Alpha  occ. eigenvalues --   -0.53161  -0.52852  -0.52800  -0.52557  -0.52366
 Alpha  occ. eigenvalues --   -0.52169  -0.52077  -0.51791  -0.51725  -0.51674
 Alpha  occ. eigenvalues --   -0.51461  -0.51345  -0.51192  -0.50943  -0.50856
 Alpha  occ. eigenvalues --   -0.50750  -0.50569  -0.50426  -0.50235  -0.49880
 Alpha  occ. eigenvalues --   -0.49847  -0.49802  -0.49287  -0.49165  -0.49158
 Alpha  occ. eigenvalues --   -0.48976  -0.48973  -0.48625  -0.48553  -0.48530
 Alpha  occ. eigenvalues --   -0.48354  -0.48266  -0.48102  -0.47981  -0.47938
 Alpha  occ. eigenvalues --   -0.47809  -0.47732  -0.47664  -0.47245  -0.47222
 Alpha  occ. eigenvalues --   -0.47109  -0.47014  -0.46675  -0.46665  -0.46523
 Alpha  occ. eigenvalues --   -0.46511  -0.46082  -0.45827  -0.45726  -0.45673
 Alpha  occ. eigenvalues --   -0.45581  -0.45296  -0.45181  -0.44987  -0.44905
 Alpha  occ. eigenvalues --   -0.44758  -0.44563  -0.44448  -0.44353  -0.44170
 Alpha  occ. eigenvalues --   -0.44165  -0.43602  -0.43459  -0.43445  -0.43302
 Alpha  occ. eigenvalues --   -0.43254  -0.43183  -0.42925  -0.42403  -0.42351
 Alpha  occ. eigenvalues --   -0.42212  -0.41902  -0.41640  -0.41387  -0.41368
 Alpha  occ. eigenvalues --   -0.40450  -0.40273  -0.39952  -0.39833  -0.39588
 Alpha  occ. eigenvalues --   -0.39423  -0.39214  -0.39142  -0.38907  -0.38803
 Alpha  occ. eigenvalues --   -0.38641  -0.37851  -0.37501  -0.37070  -0.36533
 Alpha  occ. eigenvalues --   -0.36342  -0.35681  -0.35487  -0.34014  -0.33665
 Alpha  occ. eigenvalues --   -0.33222  -0.32487  -0.32471  -0.32310  -0.32167
 Alpha  occ. eigenvalues --   -0.31990  -0.31855  -0.31647  -0.26558  -0.26246
 Alpha  occ. eigenvalues --   -0.23989  -0.23847
 Alpha virt. eigenvalues --   -0.08104  -0.07964  -0.00591  -0.00433   0.01996
 Alpha virt. eigenvalues --    0.02048   0.04313   0.04554   0.04687   0.05458
 Alpha virt. eigenvalues --    0.06743   0.07043   0.07414   0.07431   0.07983

 Mulliken charges:
               1
     1  Mg   0.930341
     2  C    0.060803
     3  C   -0.053499
     4  C   -0.067773
     5  C   -0.064611
     6  N   -0.367792
     7  C   -0.017539
     8  C   -0.066986
     9  C   -0.122619
    10  C    0.087795
    11  C    0.030131
    12  C    0.037209
    13  C   -0.149432
    14  H    0.025281
    15  N   -0.454747
    16  C    0.135111
    17  C   -0.149530
    18  C   -0.136779
    19  C    0.177600
    20  C    0.084123
    21  C    0.092257
    22  O   -0.239799
    23  C   -0.062556
    24  N   -0.335393
    25  C    0.120389
    26  C   -0.138883
    27  C   -0.048758
    28  C    0.022550
    29  C    0.006356
    30  C   -0.011664
    31  C   -0.052430
    32  N   -0.425351
    33  C    0.118366
    34  C   -0.169450
    35  C   -0.018217
    36  C    0.076699
    37  C    0.078423
    38  C    0.069281
    39  O   -0.202370
    40  C   -0.060350
    41  C    0.246538
    42  O   -0.245779
    43  O   -0.384149
    44  C    0.134981
    45  H   -0.012739
    46  H   -0.019731
    47  H   -0.002608
    48  H    0.034898
    49  H    0.040598
    50  H    0.043285
    51  H    0.048396
    52  H    0.043016
    53  H    0.039675
    54  H    0.043305
    55  H    0.068931
    56  H    0.059003
    57  H    0.056932
    58  H    0.057849
    59  H    0.063779
    60  H    0.068460
    61  H    0.055826
    62  H    0.048632
    63  H    0.055225
    64  H    0.030157
    65  H    0.036221
    66  H    0.039799
    67  H    0.031086
    68  H    0.041422
    69  H    0.028831
    70  H    0.036999
    71  H    0.037565
    72  H    0.038391
    73  H    0.063010
    74  H    0.045529
    75  H    0.046940
    76  H    0.066613
    77  H    0.069713
    78  H    0.052471
    79  H    0.054744
    80  Mg   0.948218
    81  C    0.000655
    82  C   -0.064818
    83  C   -0.087367
    84  C   -0.085747
    85  N   -0.297932
    86  C   -0.037999
    87  C   -0.036621
    88  C   -0.151882
    89  C    0.082402
    90  C    0.029910
    91  C   -0.001048
    92  C   -0.097723
    93  H    0.043776
    94  N   -0.425817
    95  C    0.122591
    96  C   -0.157786
    97  C   -0.085182
    98  C    0.168991
    99  C    0.086377
   100  C    0.032033
   101  O   -0.271691
   102  C   -0.011381
   103  N   -0.428116
   104  C    0.087192
   105  C   -0.092036
   106  C   -0.113410
   107  C    0.082410
   108  C    0.055262
   109  C   -0.033203
   110  C   -0.022707
   111  N   -0.388366
   112  C    0.120886
   113  C   -0.174815
   114  C    0.038972
   115  C    0.121077
   116  C    0.098335
   117  C    0.025989
   118  O   -0.206348
   119  C   -0.074564
   120  C    0.254083
   121  O   -0.209749
   122  O   -0.358090
   123  C    0.118673
   124  H   -0.004349
   125  H   -0.015940
   126  H    0.009978
   127  H    0.028211
   128  H    0.041470
   129  H    0.039145
   130  H    0.042960
   131  H    0.043396
   132  H    0.044047
   133  H    0.047747
   134  H    0.049658
   135  H    0.043078
   136  H    0.069599
   137  H    0.065463
   138  H    0.029145
   139  H    0.067700
   140  H    0.050340
   141  H    0.051444
   142  H    0.031769
   143  H    0.027917
   144  H    0.049153
   145  H    0.044400
   146  H    0.015818
   147  H    0.024906
   148  H    0.036997
   149  H    0.036030
   150  H    0.032849
   151  H    0.043092
   152  H    0.055732
   153  H    0.023781
   154  H    0.063709
   155  H    0.047907
   156  H    0.048933
   157  H    0.048441
   158  H    0.062039
 Sum of Mulliken charges =  -0.00000

 Dipole moment (field-independent basis, Debye):
    X=              0.3205    Y=              2.8131    Z=             -3.1479  Tot=              4.2339
 Quadrupole moment (field-independent basis, Debye-Ang):
   XX=           -262.2315   YY=           -615.5574   ZZ=           -501.0457
   XY=             99.5588   XZ=            -22.1581   YZ=             11.2927

 Normal termination of Gaussian 16 at Mon Sep 20 06:28:29 2021.
