 Gaussian 16, Revision A.03,
 Gaussian 16:  ES64L-G16RevA.03 25-Dec-2016

 --------------------------------
 #p wB97XD/Def2SVP td=(nstates=5)
 --------------------------------

 --------------------------------
 TDDFT excited states in gaussian
 --------------------------------
 Symbolic Z-matrix:
 Charge =  0 Multiplicity = 1

                         Standard orientation:
 ---------------------------------------------------------------------
 Center     Atomic      Atomic             Coordinates (Angstroms)
 Number     Number       Type             X           Y           Z
 ---------------------------------------------------------------------
      1         12           0      -13.262661   -0.401131    0.317197
      2          6           0      -13.277684    2.517955   -1.396112
      3          6           0      -11.672497    1.168011    2.976880
      4          6           0      -13.242222   -3.322414    2.028090
      5          6           0      -14.392043   -2.063111   -2.501556
      6          7           0      -12.698836    1.589391    0.708960
      7          6           0      -12.750957    2.656923   -0.127129
      8          6           0      -12.404677    3.948591    0.566474
      9          6           0      -11.638599    3.468458    1.857252
     10          6           0      -12.059024    1.962156    1.864863
     11          6           0      -10.082758    3.733823    2.011197
     12          6           0      -13.709928    4.767269    0.978594
     13          6           0      -13.434133    6.292287    1.130562
     14          1           0      -12.045267    6.832701    1.510228
     15          7           0      -12.486565   -1.062431    2.227363
     16          6           0      -11.867708   -0.203391    3.173017
     17          6           0      -11.529702   -0.951429    4.346255
     18          6           0      -11.968340   -2.299613    4.091404
     19          6           0      -12.610817   -2.239932    2.729946
     20          6           0      -10.938182   -0.369627    5.582111
     21          6           0      -11.864833   -3.533712    4.980599
     22          8           0      -12.170160   -4.714965    4.642664
     23          6           0      -11.335739   -3.388432    6.397340
     24          7           0      -13.676295   -2.407955   -0.173374
     25          6           0      -13.780407   -3.435577    0.765416
     26          6           0      -14.531287   -4.701510    0.260576
     27          6           0      -14.922515   -4.180356   -1.233786
     28          6           0      -14.343266   -2.816531   -1.329451
     29          6           0      -13.570236   -5.897004    0.285422
     30          6           0      -16.386558   -4.257745   -1.552399
     31          6           0      -16.689621   -5.056753   -2.787590
     32          7           0      -13.644330   -0.017661   -1.563671
     33          6           0      -14.130121   -0.751020   -2.639060
     34          6           0      -14.273587    0.083249   -3.774120
     35          6           0      -13.912086    1.400926   -3.384642
     36          6           0      -13.635714    1.325200   -2.003186
     37          6           0      -14.751883   -0.261745   -5.132107
     38          6           0      -13.659219    2.744629   -3.856822
     39          8           0      -13.691990    3.296815   -4.939170
     40          6           0      -13.300648    3.523082   -2.503320
     41          6           0      -12.199815    4.504286   -2.689332
     42          8           0      -11.177774    4.331133   -3.302735
     43          8           0      -12.447529    5.694579   -2.120959
     44          6           0      -11.352277    6.693176   -2.279835
     45          1           0      -11.026966    1.709912    3.671386
     46          1           0      -13.107702   -4.278615    2.537864
     47          1           0      -14.852282   -2.486651   -3.396597
     48          1           0      -11.663808    4.530107    0.018048
     49          1           0      -12.135508    3.896833    2.727106
     50          1           0       -9.775175    4.347821    1.164654
     51          1           0       -9.426173    2.867775    2.077884
     52          1           0       -9.950236    4.245724    2.964537
     53          1           0      -14.041252    4.292821    1.902461
     54          1           0      -14.450149    4.607470    0.194510
     55          1           0      -14.162509    6.582094    1.888136
     56          1           0      -13.801164    6.757817    0.216247
     57          1           0      -11.641175    0.104239    6.267277
     58          1           0      -10.179804    0.330561    5.234076
     59          1           0      -10.290038   -1.064267    6.115593
     60          1           0      -10.249337   -3.406481    6.312053
     61          1           0      -11.672663   -4.286978    6.913666
     62          1           0      -11.637389   -2.465111    6.892214
     63          1           0      -15.325122   -4.887105    0.984195
     64          1           0      -14.420454   -4.817958   -1.962237
     65          1           0      -12.526225   -5.664796    0.496745
     66          1           0      -13.718738   -6.486886   -0.618749
     67          1           0      -13.872827   -6.500370    1.141766
     68          1           0      -16.833120   -3.285834   -1.762741
     69          1           0      -17.006131   -4.661326   -0.751454
     70          1           0      -17.480411   -5.791487   -2.638929
     71          1           0      -15.812649   -5.604685   -3.131227
     72          1           0      -16.880990   -4.301725   -3.550660
     73          1           0      -14.540719   -1.276369   -5.471128
     74          1           0      -14.064943    0.282521   -5.780813
     75          1           0      -15.811560   -0.023949   -5.225668
     76          1           0      -14.230963    4.087613   -2.434290
     77          1           0      -11.343760    7.137732   -3.276038
     78          1           0      -10.391358    6.301135   -1.946190
     79          1           0      -11.545896    7.518956   -1.594780
     80         12           0       12.629351   -0.737647   -0.439112
     81          6           0       14.837408    1.986623    0.028633
     82          6           0       10.007547    1.312537    0.474434
     83          6           0       10.581036   -3.431475   -0.610334
     84          6           0       15.348130   -2.832579   -1.152487
     85          7           0       12.562022    1.361434    0.261845
     86          6           0       13.537389    2.351282    0.167500
     87          6           0       12.949354    3.778206    0.521779
     88          6           0       11.488679    3.431033    0.914734
     89          6           0       11.322689    1.929752    0.589152
     90          6           0       11.024304    3.734628    2.388274
     91          6           0       13.177332    4.926078   -0.545046
     92          6           0       13.946437    6.113677   -0.050626
     93          1           0       13.485425    7.519272   -0.605839
     94          7           0       10.628568   -0.964907   -0.101155
     95          6           0        9.678075   -0.010950    0.200963
     96          6           0        8.378540   -0.649658    0.338648
     97          6           0        8.489068   -2.035073    0.030094
     98          6           0        9.957165   -2.207553   -0.274299
     99          6           0        7.065171    0.114129    0.602009
    100          6           0        7.415285   -3.116206   -0.038027
    101          8           0        7.624897   -4.255196   -0.401536
    102          6           0        5.878719   -2.864976    0.251517
    103          7           0       12.949530   -2.878079   -0.738389
    104          6           0       11.954609   -3.755161   -0.765604
    105          6           0       12.459574   -5.209612   -1.074956
    106          6           0       13.977609   -4.970183   -1.441663
    107          6           0       14.121931   -3.452062   -1.119540
    108          6           0       12.138669   -6.197202    0.083981
    109          6           0       14.294280   -5.383111   -2.865441
    110          6           0       15.622836   -6.121303   -3.019512
    111          7           0       14.708286   -0.606061   -0.433698
    112          6           0       15.685171   -1.497063   -0.834902
    113          6           0       16.950477   -0.861189   -0.631984
    114          6           0       16.701015    0.503069   -0.341653
    115          6           0       15.290363    0.639888   -0.216295
    116          6           0       18.280052   -1.493988   -0.796835
    117          6           0       17.331000    1.822955   -0.163558
    118          8           0       18.500671    2.181905   -0.063942
    119          6           0       16.008982    2.891622    0.059771
    120          6           0       16.151370    3.579264    1.305069
    121          8           0       15.512570    3.334172    2.305387
    122          8           0       17.014168    4.644527    1.179507
    123          6           0       17.236932    5.355022    2.463358
    124          1           0        9.136627    1.951369    0.636375
    125          1           0        9.977124   -4.340454   -0.631792
    126          1           0       16.125086   -3.531473   -1.471302
    127          1           0       13.398660    4.016801    1.485178
    128          1           0       10.782426    3.962043    0.276435
    129          1           0       10.008751    4.125661    2.318848
    130          1           0       11.714739    4.455730    2.825093
    131          1           0       11.004344    2.862605    3.042238
    132          1           0       12.184254    5.201092   -0.900654
    133          1           0       13.764565    4.489442   -1.353068
    134          1           0       14.996470    6.012555   -0.328177
    135          1           0       13.838199    6.051226    1.031819
    136          1           0        6.487379    0.002799   -0.314835
    137          1           0        7.281141    1.181454    0.655288
    138          1           0        6.459602   -0.252182    1.431917
    139          1           0        5.535910   -2.078190   -0.421324
    140          1           0        5.654669   -2.795835    1.316411
    141          1           0        5.411902   -3.835798    0.087840
    142          1           0       12.013759   -5.643198   -1.969915
    143          1           0       14.552312   -5.515561   -0.692818
    144          1           0       13.054670   -6.728401    0.344133
    145          1           0       11.307190   -6.867288   -0.135945
    146          1           0       11.820464   -5.637993    0.962302
    147          1           0       14.287311   -4.535975   -3.550525
    148          1           0       13.532833   -6.012194   -3.329085
    149          1           0       16.212110   -6.077207   -2.103533
    150          1           0       16.173582   -5.595198   -3.799757
    151          1           0       15.495237   -7.134144   -3.401903
    152          1           0       18.303065   -2.546078   -1.080706
    153          1           0       18.873953   -1.174481    0.060343
    154          1           0       18.620625   -1.086623   -1.749063
    155          1           0       15.995056    3.612204   -0.758447
    156          1           0       17.656981    4.667803    3.198122
    157          1           0       16.277031    5.795417    2.732943
    158          1           0       17.966562    6.159772    2.382130
 ---------------------------------------------------------------------

 SCF Done:  E(RwB97XD) =  -4070.61121692     A.U. after   19 cycles

 Excitation energies and oscillator strengths:

 Excited State   1:      Singlet-A      1.5874 eV  781.05 nm  f=0.3906  <S**2>=0.000
     309 -> 316       -0.17574
     312 -> 313        0.68652
     309 <- 316       -0.11662
 This state for optimization and/or second-order correction.
 Total Energy, E(TD-HF/TD-DFT) =  -4070.55288116
 Copying the excited state density for this state as the 1-particle RhoCI density.

 Excited State   2:      Singlet-A      1.7612 eV  703.96 nm  f=0.3744  <S**2>=0.000
     310 -> 315        0.17859
     311 -> 314        0.68332
     310 <- 315        0.10771

 Excited State   3:      Singlet-A      2.1691 eV  571.59 nm  f=0.1064  <S**2>=0.000
     309 -> 313        0.63601
     312 -> 316        0.29405

 Excited State   4:      Singlet-A      2.2097 eV  561.09 nm  f=0.1129  <S**2>=0.000
     310 -> 314        0.63743
     311 -> 315       -0.28429

 Excited State   5:      Singlet-A      3.3095 eV  374.63 nm  f=0.0145  <S**2>=0.000
     305 -> 313        0.10247
     307 -> 313        0.67074
     312 -> 316       -0.11075

 The electronic state is 1-A.
 Alpha  occ. eigenvalues --  -46.94564 -46.93593 -19.30466 -19.29478 -19.24939
 Alpha  occ. eigenvalues --  -19.24369 -19.24344 -19.24071 -19.23790 -19.23636
 Alpha  occ. eigenvalues --  -14.47551 -14.46882 -14.46384 -14.46322 -14.44998
 Alpha  occ. eigenvalues --  -14.44198 -14.43492 -14.43262 -10.42512 -10.42062
 Alpha  occ. eigenvalues --  -10.40430 -10.39955 -10.39304 -10.39261 -10.36654
 Alpha  occ. eigenvalues --  -10.36154 -10.35912 -10.35470 -10.35344 -10.35269
 Alpha  occ. eigenvalues --  -10.35041 -10.34956 -10.34802 -10.34600 -10.34443
 Alpha  occ. eigenvalues --  -10.34207 -10.34132 -10.33984 -10.33728 -10.33419
 Alpha  occ. eigenvalues --  -10.33061 -10.33052 -10.32978 -10.32923 -10.32657
 Alpha  occ. eigenvalues --  -10.32572 -10.32401 -10.32370 -10.32266 -10.32192
 Alpha  occ. eigenvalues --  -10.32079 -10.32003 -10.31996 -10.31995 -10.31898
 Alpha  occ. eigenvalues --  -10.31892 -10.31847 -10.31845 -10.31687 -10.31676
 Alpha  occ. eigenvalues --  -10.31646 -10.31627 -10.31620 -10.31376 -10.31234
 Alpha  occ. eigenvalues --  -10.31152 -10.30868 -10.30786 -10.30682 -10.30627
 Alpha  occ. eigenvalues --  -10.30576 -10.30285 -10.30126 -10.30057 -10.29855
 Alpha  occ. eigenvalues --  -10.29792 -10.29714 -10.29665 -10.29571 -10.29530
 Alpha  occ. eigenvalues --  -10.29404 -10.29367 -10.29061 -10.28985 -10.28902
 Alpha  occ. eigenvalues --  -10.28828  -3.20528  -3.19844  -1.94127  -1.93645
 Alpha  occ. eigenvalues --   -1.93506  -1.93434  -1.92957  -1.92866  -1.19572
 Alpha  occ. eigenvalues --   -1.17947  -1.13770  -1.12474  -1.11422  -1.09708
 Alpha  occ. eigenvalues --   -1.09548  -1.09547  -1.06609  -1.06065  -1.05690
 Alpha  occ. eigenvalues --   -1.04814  -1.04525  -1.03948  -1.03508  -1.02925
 Alpha  occ. eigenvalues --   -0.95447  -0.93741  -0.91663  -0.90966  -0.90813
 Alpha  occ. eigenvalues --   -0.90537  -0.90283  -0.89994  -0.89681  -0.89257
 Alpha  occ. eigenvalues --   -0.89242  -0.88807  -0.88447  -0.87456  -0.86319
 Alpha  occ. eigenvalues --   -0.86267  -0.85810  -0.85483  -0.84467  -0.84400
 Alpha  occ. eigenvalues --   -0.83676  -0.83092  -0.82977  -0.82645  -0.82552
 Alpha  occ. eigenvalues --   -0.82033  -0.80432  -0.80396  -0.79792  -0.79363
 Alpha  occ. eigenvalues --   -0.78812  -0.78554  -0.78343  -0.77645  -0.77243
 Alpha  occ. eigenvalues --   -0.76664  -0.74964  -0.74196  -0.73903  -0.73274
 Alpha  occ. eigenvalues --   -0.71163  -0.71076  -0.70720  -0.70667  -0.70232
 Alpha  occ. eigenvalues --   -0.69411  -0.69134  -0.68766  -0.67872  -0.67509
 Alpha  occ. eigenvalues --   -0.67391  -0.66862  -0.66730  -0.66588  -0.66333
 Alpha  occ. eigenvalues --   -0.66172  -0.64419  -0.63112  -0.62419  -0.62069
 Alpha  occ. eigenvalues --   -0.61978  -0.61138  -0.61024  -0.60755  -0.60451
 Alpha  occ. eigenvalues --   -0.60054  -0.59928  -0.59807  -0.59735  -0.58991
 Alpha  occ. eigenvalues --   -0.58166  -0.57928  -0.57651  -0.57450  -0.57244
 Alpha  occ. eigenvalues --   -0.57073  -0.56698  -0.56117  -0.55941  -0.55602
 Alpha  occ. eigenvalues --   -0.55374  -0.55212  -0.55145  -0.55045  -0.54933
 Alpha  occ. eigenvalues --   -0.54891  -0.54544  -0.54483  -0.54450  -0.54193
 Alpha  occ. eigenvalues --   -0.54035  -0.53991  -0.53599  -0.53331  -0.53296
 Alpha  occ. eigenvalues --   -0.53172  -0.53021  -0.52759  -0.52486  -0.52320
 Alpha  occ. eigenvalues --   -0.52106  -0.52027  -0.52013  -0.51687  -0.51504
 Alpha  occ. eigenvalues --   -0.51435  -0.51342  -0.51032  -0.50891  -0.50614
 Alpha  occ. eigenvalues --   -0.50542  -0.50398  -0.50226  -0.49986  -0.49948
 Alpha  occ. eigenvalues --   -0.49894  -0.49839  -0.49661  -0.49457  -0.49343
 Alpha  occ. eigenvalues --   -0.49216  -0.48721  -0.48673  -0.48628  -0.48387
 Alpha  occ. eigenvalues --   -0.48319  -0.48108  -0.47931  -0.47898  -0.47447
 Alpha  occ. eigenvalues --   -0.47234  -0.47078  -0.46936  -0.46795  -0.46738
 Alpha  occ. eigenvalues --   -0.46637  -0.46559  -0.46397  -0.46081  -0.45946
 Alpha  occ. eigenvalues --   -0.45912  -0.45858  -0.45553  -0.45460  -0.45291
 Alpha  occ. eigenvalues --   -0.45208  -0.45171  -0.45138  -0.44956  -0.44454
 Alpha  occ. eigenvalues --   -0.44341  -0.44284  -0.44171  -0.44075  -0.43916
 Alpha  occ. eigenvalues --   -0.43874  -0.43420  -0.43395  -0.43118  -0.43034
 Alpha  occ. eigenvalues --   -0.42922  -0.42588  -0.42449  -0.42410  -0.42369
 Alpha  occ. eigenvalues --   -0.42182  -0.42002  -0.41922  -0.41544  -0.41297
 Alpha  occ. eigenvalues --   -0.40580  -0.40295  -0.39969  -0.39721  -0.39636
 Alpha  occ. eigenvalues --   -0.39258  -0.39188  -0.39072  -0.38879  -0.38734
 Alpha  occ. eigenvalues --   -0.38214  -0.37821  -0.36708  -0.36296  -0.36152
 Alpha  occ. eigenvalues --   -0.35765  -0.35523  -0.35313  -0.33895  -0.33771
 Alpha  occ. eigenvalues --   -0.33467  -0.32904  -0.32863  -0.32727  -0.32222
 Alpha  occ. eigenvalues --   -0.32166  -0.31842  -0.30734  -0.26319  -0.26000
 Alpha  occ. eigenvalues --   -0.23136  -0.22924
 Alpha virt. eigenvalues --   -0.07411  -0.06817   0.00171   0.00208   0.02082
 Alpha virt. eigenvalues --    0.02113   0.04231   0.04250   0.06040   0.06041
 Alpha virt. eigenvalues --    0.06933   0.07346   0.07761   0.07924   0.07935

 Mulliken charges:
               1
     1  Mg   0.985636
     2  C    0.012758
     3  C   -0.095464
     4  C   -0.062265
     5  C   -0.128135
     6  N   -0.378509
     7  C   -0.008567
     8  C   -0.043320
     9  C   -0.121976
    10  C    0.057998
    11  C    0.021192
    12  C    0.005374
    13  C   -0.092428
    14  H    0.043277
    15  N   -0.389530
    16  C    0.163962
    17  C   -0.155544
    18  C   -0.073764
    19  C    0.099957
    20  C    0.064992
    21  C    0.052883
    22  O   -0.274650
    23  C   -0.022130
    24  N   -0.392011
    25  C    0.057869
    26  C   -0.092124
    27  C   -0.027196
    28  C    0.108908
    29  C    0.008954
    30  C   -0.008599
    31  C   -0.062960
    32  N   -0.527652
    33  C    0.189941
    34  C   -0.191338
    35  C   -0.054990
    36  C    0.141572
    37  C    0.072787
    38  C    0.153070
    39  O   -0.183067
    40  C   -0.107094
    41  C    0.224345
    42  O   -0.230024
    43  O   -0.358734
    44  C    0.140896
    45  H   -0.003673
    46  H    0.017303
    47  H   -0.016755
    48  H    0.024424
    49  H    0.035508
    50  H    0.042176
    51  H    0.048190
    52  H    0.037216
    53  H    0.035792
    54  H    0.041542
    55  H    0.044360
    56  H    0.060663
    57  H    0.073923
    58  H    0.034603
    59  H    0.031806
    60  H    0.066498
    61  H    0.059324
    62  H    0.050484
    63  H    0.056142
    64  H    0.035275
    65  H    0.060621
    66  H    0.037320
    67  H    0.041465
    68  H    0.033262
    69  H    0.028399
    70  H    0.043928
    71  H    0.022319
    72  H    0.037644
    73  H    0.026989
    74  H    0.061460
    75  H    0.068519
    76  H    0.069321
    77  H    0.070857
    78  H    0.058360
    79  H    0.040431
    80  Mg   0.955455
    81  C    0.013737
    82  C   -0.100519
    83  C   -0.065453
    84  C   -0.066992
    85  N   -0.380863
    86  C   -0.011932
    87  C   -0.052004
    88  C   -0.156793
    89  C    0.113162
    90  C    0.022951
    91  C    0.049726
    92  C   -0.135345
    93  H    0.029560
    94  N   -0.509977
    95  C    0.184562
    96  C   -0.168100
    97  C   -0.051370
    98  C    0.184671
    99  C    0.065850
   100  C    0.037479
   101  O   -0.218100
   102  C   -0.019159
   103  N   -0.317990
   104  C    0.037615
   105  C   -0.121205
   106  C   -0.060546
   107  C    0.021347
   108  C    0.018072
   109  C    0.000671
   110  C   -0.056999
   111  N   -0.463954
   112  C    0.166465
   113  C   -0.208636
   114  C   -0.042161
   115  C    0.161456
   116  C    0.091201
   117  C    0.152316
   118  O   -0.199135
   119  C   -0.162790
   120  C    0.269495
   121  O   -0.250539
   122  O   -0.372322
   123  C    0.150491
   124  H   -0.008684
   125  H    0.020463
   126  H   -0.018275
   127  H    0.051603
   128  H    0.032805
   129  H    0.036801
   130  H    0.043373
   131  H    0.050728
   132  H    0.038859
   133  H    0.034515
   134  H    0.066024
   135  H    0.050541
   136  H    0.052745
   137  H    0.033985
   138  H    0.066295
   139  H    0.061803
   140  H    0.055495
   141  H    0.047565
   142  H    0.040442
   143  H    0.034357
   144  H    0.035193
   145  H    0.050675
   146  H    0.041422
   147  H    0.030989
   148  H    0.028035
   149  H    0.041010
   150  H    0.031092
   151  H    0.041253
   152  H    0.019062
   153  H    0.070114
   154  H    0.044837
   155  H    0.079939
   156  H    0.060046
   157  H    0.049433
   158  H    0.052061
 Sum of Mulliken charges =  -0.00000

 Dipole moment (field-independent basis, Debye):
    X=             -6.4808    Y=              1.5574    Z=              3.6525  Tot=              7.6005
 Quadrupole moment (field-independent basis, Debye-Ang):
   XX=           -597.5003   YY=           -482.3935   ZZ=           -518.3205
   XY=            -30.9013   XZ=            -59.6082   YZ=             45.8698

 Normal termination of Gaussian 16 at Mon Sep 20 01:02:55 2021.
