 Gaussian 16, Revision A.03,
 Gaussian 16:  ES64L-G16RevA.03 25-Dec-2016

 --------------------------------
 #p wB97XD/Def2SVP td=(nstates=5)
 --------------------------------

 --------------------------------
 TDDFT excited states in gaussian
 --------------------------------
 Symbolic Z-matrix:
 Charge =  0 Multiplicity = 1

                         Standard orientation:
 ---------------------------------------------------------------------
 Center     Atomic      Atomic             Coordinates (Angstroms)
 Number     Number       Type             X           Y           Z
 ---------------------------------------------------------------------
      1         12           0      -20.811789    0.146189   -0.252909
      2          6           0      -17.573065   -0.654346    0.945648
      3          6           0      -21.889636   -2.798339    1.049252
      4          6           0      -23.985958    1.293183   -0.663323
      5          6           0      -19.627088    3.307409   -1.037706
      6          7           0      -19.758299   -1.407173    1.005579
      7          6           0      -18.437635   -1.618393    1.301069
      8          6           0      -18.217109   -2.928808    1.960713
      9          6           0      -19.578187   -3.717809    1.664697
     10          6           0      -20.467184   -2.601699    1.233661
     11          6           0      -19.388356   -4.802322    0.616469
     12          6           0      -17.868874   -2.646943    3.430716
     13          6           0      -16.526270   -3.272095    4.000376
     14          1           0      -16.527259   -4.169286    5.274641
     15          7           0      -22.703553   -0.605468    0.073884
     16          6           0      -22.921312   -1.906850    0.547174
     17          6           0      -24.320922   -2.184806    0.425588
     18          6           0      -24.991791   -1.004968   -0.042960
     19          6           0      -23.871612   -0.061625   -0.303427
     20          6           0      -24.874583   -3.563848    0.760398
     21          6           0      -26.469946   -0.777337   -0.267680
     22          8           0      -27.169199   -1.820235   -0.113124
     23          6           0      -27.217494    0.557055   -0.547648
     24          7           0      -21.721018    2.054049   -0.792720
     25          6           0      -23.050802    2.254976   -0.923921
     26          6           0      -23.413541    3.714134   -1.307319
     27          6           0      -21.989781    4.329221   -1.535894
     28          6           0      -21.034878    3.147343   -1.031694
     29          6           0      -24.298271    3.713080   -2.541092
     30          6           0      -21.708958    5.595685   -0.786243
     31          6           0      -21.569820    6.806808   -1.668142
     32          7           0      -19.027816    1.109919   -0.276468
     33          6           0      -18.623169    2.393114   -0.665618
     34          6           0      -17.255626    2.511469   -0.709092
     35          6           0      -16.789353    1.319763   -0.117443
     36          6           0      -17.903467    0.544341    0.195443
     37          6           0      -16.532442    3.649773   -1.397291
     38          6           0      -15.554688    0.557580    0.208471
     39          8           0      -14.414614    0.854808    0.028560
     40          6           0      -16.108014   -0.698401    0.982176
     41          6           0      -15.292790   -1.889804    0.528736
     42          8           0      -14.402630   -2.421967    1.191958
     43          8           0      -15.735711   -2.334705   -0.740570
     44          6           0      -15.063301   -3.561475   -1.167340
     45          1           0      -22.206753   -3.822140    1.259560
     46          1           0      -24.982155    1.671786   -0.903947
     47          1           0      -19.226709    4.322650   -1.050368
     48          1           0      -17.372068   -3.432944    1.491656
     49          1           0      -19.900774   -4.195139    2.589620
     50          1           0      -18.700533   -4.516534   -0.178164
     51          1           0      -20.341204   -4.957140    0.109197
     52          1           0      -19.108977   -5.770821    1.031205
     53          1           0      -18.702542   -3.011377    4.030780
     54          1           0      -17.877789   -1.588408    3.690580
     55          1           0      -15.977404   -2.357416    4.225947
     56          1           0      -15.928217   -3.698620    3.195938
     57          1           0      -24.535377   -3.894912    1.741958
     58          1           0      -24.460824   -4.243221    0.015273
     59          1           0      -25.956616   -3.662628    0.857540
     60          1           0      -26.896389    0.812683   -1.556920
     61          1           0      -26.879164    1.301517    0.173146
     62          1           0      -28.299304    0.459012   -0.453406
     63          1           0      -23.962361    4.253403   -0.535667
     64          1           0      -21.782435    4.397486   -2.603503
     65          1           0      -25.121724    3.023100   -2.356052
     66          1           0      -23.702730    3.362115   -3.384469
     67          1           0      -24.671748    4.658522   -2.932658
     68          1           0      -20.774842    5.573698   -0.224949
     69          1           0      -22.425826    5.879067   -0.015848
     70          1           0      -22.265098    7.563880   -1.307568
     71          1           0      -21.878214    6.618444   -2.696497
     72          1           0      -20.552312    7.192129   -1.741929
     73          1           0      -15.510974    3.302753   -1.556405
     74          1           0      -16.518910    4.556825   -0.793463
     75          1           0      -17.086681    3.809145   -2.321966
     76          1           0      -15.740939   -0.515941    1.992821
     77          1           0      -15.698649   -4.128213   -1.848092
     78          1           0      -14.944738   -4.258569   -0.339034
     79          1           0      -14.079256   -3.381222   -1.600957
     80         12           0       20.717345    0.554194   -0.248717
     81          6           0       19.018336   -2.467114   -0.481529
     82          6           0       17.506638    2.056053    0.248608
     83          6           0       22.204608    3.393268    0.481348
     84          6           0       23.731601   -1.242630   -0.040370
     85          7           0       18.550383   -0.163041   -0.013855
     86          6           0       18.139168   -1.455244   -0.252371
     87          6           0       16.620835   -1.563722   -0.087548
     88          6           0       16.190562   -0.071550   -0.137692
     89          6           0       17.477263    0.678598    0.085878
     90          6           0       15.471282    0.462664   -1.438087
     91          6           0       16.204186   -2.278039    1.208665
     92          6           0       14.757944   -2.565604    1.345927
     93          1           0       14.345842   -3.717661    2.339925
     94          7           0       19.971379    2.494090    0.311123
     95          6           0       18.635587    2.908032    0.431162
     96          6           0       18.631472    4.301728    0.778578
     97          6           0       20.007753    4.683979    0.987977
     98          6           0       20.811006    3.487542    0.558208
     99          6           0       17.326425    5.104548    1.035931
    100          6           0       20.415249    6.082243    1.463160
    101          8           0       19.609777    6.994260    1.549473
    102          6           0       21.830328    6.335207    1.819599
    103          7           0       22.720589    1.022302   -0.059651
    104          6           0       23.069357    2.286535    0.202169
    105          6           0       24.626243    2.365480    0.473513
    106          6           0       25.158133    0.884283    0.371777
    107          6           0       23.744308    0.124166    0.116313
    108          6           0       25.445851    3.396377   -0.346334
    109          6           0       25.805755    0.456207    1.706069
    110          6           0       26.925850   -0.584106    1.584298
    111          7           0       21.345030   -1.449682   -0.254480
    112          6           0       22.584355   -2.024864   -0.291442
    113          6           0       22.421790   -3.460994   -0.547524
    114          6           0       21.074909   -3.640089   -0.715500
    115          6           0       20.445689   -2.440666   -0.470322
    116          6           0       23.552453   -4.477587   -0.735919
    117          6           0       20.066014   -4.626666   -0.959279
    118          8           0       20.129884   -5.806392   -1.203308
    119          6           0       18.685258   -3.900530   -0.831672
    120          6           0       18.027202   -3.950822   -2.166167
    121          8           0       18.509177   -3.656475   -3.224708
    122          8           0       16.671043   -4.272082   -1.982994
    123          6           0       15.869639   -4.283066   -3.173612
    124          1           0       16.482790    2.431847    0.293804
    125          1           0       22.834844    4.261331    0.687844
    126          1           0       24.655447   -1.824944   -0.051502
    127          1           0       16.258620   -2.046641   -0.994110
    128          1           0       15.557003    0.269092    0.680504
    129          1           0       14.574684    0.952162   -1.058414
    130          1           0       15.453673   -0.186426   -2.313983
    131          1           0       16.081688    1.286762   -1.807073
    132          1           0       16.376274   -1.720814    2.129927
    133          1           0       16.766244   -3.205829    1.315984
    134          1           0       14.390972   -2.798388    0.346305
    135          1           0       14.243059   -1.648797    1.632554
    136          1           0       17.404105    5.137692    2.123123
    137          1           0       16.393223    4.569188    0.859759
    138          1           0       17.143311    6.101057    0.633590
    139          1           0       22.093471    5.516586    2.489450
    140          1           0       21.879514    7.260674    2.393581
    141          1           0       22.340615    6.312026    0.856388
    142          1           0       24.721703    2.711867    1.502980
    143          1           0       25.829654    0.688613   -0.463606
    144          1           0       25.709496    4.220304    0.317554
    145          1           0       24.869458    3.674313   -1.228106
    146          1           0       26.407322    2.964293   -0.623707
    147          1           0       24.980279    0.069565    2.303188
    148          1           0       26.167213    1.287292    2.311997
    149          1           0       27.772729   -0.083896    2.055323
    150          1           0       27.119170   -0.926393    0.567575
    151          1           0       26.699034   -1.456834    2.196792
    152          1           0       23.435175   -5.432657   -0.224945
    153          1           0       24.416499   -3.916315   -0.379466
    154          1           0       23.736614   -4.523226   -1.809395
    155          1           0       18.116548   -4.456503   -0.086213
    156          1           0       15.629367   -5.327738   -3.371390
    157          1           0       16.261147   -3.835250   -4.087319
    158          1           0       14.962588   -3.719428   -2.956958
 ---------------------------------------------------------------------

 SCF Done:  E(RwB97XD) =  -4070.61224819     A.U. after   19 cycles

 Excitation energies and oscillator strengths:

 Excited State   1:      Singlet-A      1.6248 eV  763.06 nm  f=0.3613  <S**2>=0.000
     310 -> 316       -0.17974
     311 -> 313        0.68480
     310 <- 316       -0.11750
 This state for optimization and/or second-order correction.
 Total Energy, E(TD-HF/TD-DFT) =  -4070.55253706
 Copying the excited state density for this state as the 1-particle RhoCI density.

 Excited State   2:      Singlet-A      1.7223 eV  719.88 nm  f=0.3957  <S**2>=0.000
     309 -> 315       -0.17623
     312 -> 314        0.68545
     309 <- 315       -0.11113

 Excited State   3:      Singlet-A      2.1634 eV  573.09 nm  f=0.1561  <S**2>=0.000
     310 -> 313        0.64645
     311 -> 316        0.27023

 Excited State   4:      Singlet-A      2.2425 eV  552.89 nm  f=0.1146  <S**2>=0.000
     309 -> 314        0.63526
     312 -> 315        0.29249

 Excited State   5:      Singlet-A      3.2311 eV  383.72 nm  f=0.0021  <S**2>=0.000
     306 -> 313        0.25003
     306 -> 317        0.10045
     308 -> 313        0.63505

 The electronic state is 1-A.
 Alpha  occ. eigenvalues --  -46.95977 -46.95383 -19.30883 -19.30145 -19.25990
 Alpha  occ. eigenvalues --  -19.25377 -19.24905 -19.23734 -19.23502 -19.23387
 Alpha  occ. eigenvalues --  -14.47208 -14.47014 -14.46941 -14.46844 -14.44840
 Alpha  occ. eigenvalues --  -14.44722 -14.43634 -14.43627 -10.44273 -10.43307
 Alpha  occ. eigenvalues --  -10.39699 -10.39515 -10.38836 -10.38090 -10.36428
 Alpha  occ. eigenvalues --  -10.36084 -10.35692 -10.35427 -10.35311 -10.35166
 Alpha  occ. eigenvalues --  -10.35144 -10.35034 -10.34922 -10.34909 -10.34760
 Alpha  occ. eigenvalues --  -10.34735 -10.34576 -10.34519 -10.33768 -10.33137
 Alpha  occ. eigenvalues --  -10.33085 -10.32890 -10.32731 -10.32611 -10.32602
 Alpha  occ. eigenvalues --  -10.32514 -10.32465 -10.32451 -10.32390 -10.32296
 Alpha  occ. eigenvalues --  -10.32292 -10.32253 -10.32246 -10.32218 -10.32214
 Alpha  occ. eigenvalues --  -10.32057 -10.31989 -10.31922 -10.31882 -10.31877
 Alpha  occ. eigenvalues --  -10.31742 -10.31588 -10.31587 -10.31417 -10.31409
 Alpha  occ. eigenvalues --  -10.31277 -10.31110 -10.30951 -10.30867 -10.30835
 Alpha  occ. eigenvalues --  -10.30678 -10.30482 -10.30467 -10.30396 -10.30378
 Alpha  occ. eigenvalues --  -10.30294 -10.30202 -10.30125 -10.29960 -10.29894
 Alpha  occ. eigenvalues --  -10.29850 -10.29412 -10.29338 -10.29155 -10.29027
 Alpha  occ. eigenvalues --  -10.27903  -3.21856  -3.21389  -1.95448  -1.94980
 Alpha  occ. eigenvalues --   -1.94958  -1.94809  -1.94517  -1.94362  -1.18734
 Alpha  occ. eigenvalues --   -1.17778  -1.14304  -1.12502  -1.12354  -1.10992
 Alpha  occ. eigenvalues --   -1.10195  -1.09877  -1.07282  -1.06571  -1.06319
 Alpha  occ. eigenvalues --   -1.05812  -1.05708  -1.05420  -1.04840  -1.04831
 Alpha  occ. eigenvalues --   -0.95313  -0.95192  -0.91803  -0.91284  -0.91254
 Alpha  occ. eigenvalues --   -0.91155  -0.90975  -0.90686  -0.89992  -0.89821
 Alpha  occ. eigenvalues --   -0.88992  -0.88397  -0.87934  -0.87875  -0.87122
 Alpha  occ. eigenvalues --   -0.86799  -0.86228  -0.85894  -0.85058  -0.84591
 Alpha  occ. eigenvalues --   -0.84500  -0.83890  -0.83214  -0.82798  -0.82687
 Alpha  occ. eigenvalues --   -0.82478  -0.79798  -0.79687  -0.79402  -0.79239
 Alpha  occ. eigenvalues --   -0.79040  -0.78851  -0.78449  -0.78103  -0.77489
 Alpha  occ. eigenvalues --   -0.77469  -0.75548  -0.75184  -0.74238  -0.74009
 Alpha  occ. eigenvalues --   -0.71402  -0.71283  -0.70961  -0.70945  -0.69728
 Alpha  occ. eigenvalues --   -0.69689  -0.69279  -0.68732  -0.68268  -0.67968
 Alpha  occ. eigenvalues --   -0.67699  -0.67528  -0.67406  -0.66971  -0.66939
 Alpha  occ. eigenvalues --   -0.66589  -0.65139  -0.64642  -0.62554  -0.62282
 Alpha  occ. eigenvalues --   -0.62093  -0.61848  -0.61633  -0.61266  -0.60994
 Alpha  occ. eigenvalues --   -0.60761  -0.60423  -0.60112  -0.59541  -0.58849
 Alpha  occ. eigenvalues --   -0.58472  -0.58256  -0.57814  -0.57803  -0.57656
 Alpha  occ. eigenvalues --   -0.57424  -0.56882  -0.56806  -0.56343  -0.56288
 Alpha  occ. eigenvalues --   -0.55921  -0.55861  -0.55548  -0.55497  -0.55251
 Alpha  occ. eigenvalues --   -0.55194  -0.55077  -0.54659  -0.54549  -0.54267
 Alpha  occ. eigenvalues --   -0.54033  -0.53823  -0.53699  -0.53632  -0.53590
 Alpha  occ. eigenvalues --   -0.53074  -0.52845  -0.52783  -0.52624  -0.52496
 Alpha  occ. eigenvalues --   -0.52276  -0.52273  -0.52172  -0.52024  -0.51856
 Alpha  occ. eigenvalues --   -0.51770  -0.51629  -0.51218  -0.50942  -0.50880
 Alpha  occ. eigenvalues --   -0.50804  -0.50591  -0.50293  -0.50214  -0.50039
 Alpha  occ. eigenvalues --   -0.49960  -0.49698  -0.49456  -0.49305  -0.49188
 Alpha  occ. eigenvalues --   -0.49060  -0.48965  -0.48870  -0.48579  -0.48451
 Alpha  occ. eigenvalues --   -0.48390  -0.48307  -0.48051  -0.47981  -0.47860
 Alpha  occ. eigenvalues --   -0.47755  -0.47716  -0.47464  -0.47279  -0.47274
 Alpha  occ. eigenvalues --   -0.47156  -0.46999  -0.46843  -0.46611  -0.46053
 Alpha  occ. eigenvalues --   -0.46014  -0.45914  -0.45839  -0.45680  -0.45620
 Alpha  occ. eigenvalues --   -0.45262  -0.45228  -0.45137  -0.44854  -0.44655
 Alpha  occ. eigenvalues --   -0.44609  -0.44449  -0.44400  -0.44348  -0.44307
 Alpha  occ. eigenvalues --   -0.44212  -0.44065  -0.44008  -0.43794  -0.43681
 Alpha  occ. eigenvalues --   -0.43500  -0.43437  -0.43386  -0.43062  -0.42468
 Alpha  occ. eigenvalues --   -0.42125  -0.42065  -0.41761  -0.41577  -0.40990
 Alpha  occ. eigenvalues --   -0.40708  -0.40707  -0.40180  -0.40094  -0.39774
 Alpha  occ. eigenvalues --   -0.39638  -0.39524  -0.39297  -0.38860  -0.38501
 Alpha  occ. eigenvalues --   -0.38400  -0.37997  -0.37406  -0.37171  -0.36709
 Alpha  occ. eigenvalues --   -0.36247  -0.35896  -0.35504  -0.34008  -0.33964
 Alpha  occ. eigenvalues --   -0.33144  -0.33032  -0.32584  -0.32577  -0.32236
 Alpha  occ. eigenvalues --   -0.32192  -0.32100  -0.31982  -0.26584  -0.26350
 Alpha  occ. eigenvalues --   -0.23488  -0.23459
 Alpha virt. eigenvalues --   -0.07719  -0.07347  -0.00000   0.00054   0.02291
 Alpha virt. eigenvalues --    0.03014   0.04410   0.04852   0.04975   0.05232
 Alpha virt. eigenvalues --    0.06250   0.06987   0.07417   0.07610   0.08132

 Mulliken charges:
               1
     1  Mg   0.971937
     2  C    0.037715
     3  C   -0.077584
     4  C   -0.047451
     5  C   -0.092951
     6  N   -0.359331
     7  C   -0.051901
     8  C   -0.053728
     9  C   -0.081911
    10  C    0.068515
    11  C    0.030587
    12  C    0.005067
    13  C   -0.116279
    14  H    0.047971
    15  N   -0.473500
    16  C    0.150693
    17  C   -0.148661
    18  C   -0.063222
    19  C    0.180123
    20  C    0.070513
    21  C    0.021628
    22  O   -0.276269
    23  C    0.023567
    24  N   -0.303455
    25  C    0.005222
    26  C   -0.045720
    27  C   -0.064967
    28  C    0.055444
    29  C    0.009277
    30  C   -0.002923
    31  C   -0.061514
    32  N   -0.466356
    33  C    0.108565
    34  C   -0.190685
    35  C   -0.079748
    36  C    0.147816
    37  C    0.086706
    38  C    0.122340
    39  O   -0.159496
    40  C   -0.057577
    41  C    0.245587
    42  O   -0.241457
    43  O   -0.390682
    44  C    0.140058
    45  H    0.005750
    46  H   -0.060379
    47  H    0.006927
    48  H    0.035215
    49  H    0.038514
    50  H    0.038019
    51  H    0.024524
    52  H    0.047558
    53  H    0.031367
    54  H    0.047668
    55  H    0.050607
    56  H    0.054816
    57  H    0.034282
    58  H    0.046810
    59  H    0.065058
    60  H    0.062903
    61  H    0.064267
    62  H    0.063567
    63  H    0.043484
    64  H    0.043089
    65  H    0.033517
    66  H    0.024403
    67  H    0.040204
    68  H    0.030974
    69  H    0.026673
    70  H    0.031352
    71  H    0.020875
    72  H    0.039945
    73  H    0.062284
    74  H    0.052041
    75  H    0.046482
    76  H    0.069839
    77  H    0.047292
    78  H    0.043984
    79  H    0.064122
    80  Mg   0.953458
    81  C   -0.018551
    82  C   -0.078150
    83  C   -0.102316
    84  C   -0.070836
    85  N   -0.331647
    86  C   -0.062220
    87  C    0.031541
    88  C   -0.153759
    89  C    0.038720
    90  C    0.036037
    91  C    0.038136
    92  C   -0.109507
    93  H    0.041470
    94  N   -0.434363
    95  C    0.181965
    96  C   -0.135622
    97  C   -0.121080
    98  C    0.236050
    99  C    0.062896
   100  C    0.025022
   101  O   -0.229573
   102  C    0.001756
   103  N   -0.396435
   104  C    0.068678
   105  C   -0.119392
   106  C   -0.096989
   107  C    0.094369
   108  C    0.022088
   109  C   -0.030771
   110  C   -0.043117
   111  N   -0.424884
   112  C    0.085945
   113  C   -0.233641
   114  C    0.018373
   115  C    0.142741
   116  C    0.107319
   117  C    0.094460
   118  O   -0.186572
   119  C   -0.073881
   120  C    0.260006
   121  O   -0.213140
   122  O   -0.378357
   123  C    0.124734
   124  H   -0.006304
   125  H   -0.019720
   126  H   -0.006080
   127  H    0.020783
   128  H    0.031433
   129  H    0.043528
   130  H    0.049293
   131  H    0.029093
   132  H    0.029828
   133  H    0.035467
   134  H    0.036443
   135  H    0.039850
   136  H    0.058621
   137  H    0.019667
   138  H    0.074543
   139  H    0.052473
   140  H    0.058021
   141  H    0.079022
   142  H    0.040390
   143  H    0.042163
   144  H    0.035884
   145  H    0.050030
   146  H    0.035351
   147  H    0.033133
   148  H    0.029980
   149  H    0.038236
   150  H    0.042294
   151  H    0.038953
   152  H    0.070600
   153  H    0.005410
   154  H    0.058148
   155  H    0.072904
   156  H    0.057129
   157  H    0.062194
   158  H    0.040280
 Sum of Mulliken charges =  -0.00000

 Dipole moment (field-independent basis, Debye):
    X=             -2.0712    Y=              4.2518    Z=             -1.3924  Tot=              4.9301
 Quadrupole moment (field-independent basis, Debye-Ang):
   XX=           -366.4886   YY=           -529.6447   ZZ=           -509.5029
   XY=             12.0827   XZ=             66.1933   YZ=            -13.0765

 Normal termination of Gaussian 16 at Sun Sep 19 21:14:20 2021.
