 Gaussian 16, Revision A.03,
 Gaussian 16:  ES64L-G16RevA.03 25-Dec-2016

 --------------------------------
 #p wB97XD/Def2SVP td=(nstates=5)
 --------------------------------

 --------------------------------
 TDDFT excited states in gaussian
 --------------------------------
 Symbolic Z-matrix:
 Charge =  0 Multiplicity = 1

                         Standard orientation:
 ---------------------------------------------------------------------
 Center     Atomic      Atomic             Coordinates (Angstroms)
 Number     Number       Type             X           Y           Z
 ---------------------------------------------------------------------
      1         12           0       12.173281    0.094798    0.586645
      2          6           0        8.653700    0.103116   -0.182298
      3          6           0       12.598245    2.672049   -1.494936
      4          6           0       15.457605   -0.564794    0.680984
      5          6           0       11.595597   -2.884111    2.346373
      6          7           0       10.802683    1.186092   -0.702676
      7          6           0        9.397724    1.170418   -0.729754
      8          6           0        8.825116    2.396097   -1.538696
      9          6           0       10.121137    3.138290   -1.984838
     10          6           0       11.254473    2.319843   -1.310977
     11          6           0       10.348901    3.304091   -3.465930
     12          6           0        7.772857    3.279908   -0.677962
     13          6           0        6.418064    3.524554   -1.353859
     14          1           0        6.064396    5.046283   -1.545214
     15          7           0       13.821072    1.031603   -0.183468
     16          6           0       13.816850    2.070673   -1.024599
     17          6           0       15.175183    2.459025   -1.408284
     18          6           0       15.999031    1.431703   -0.831374
     19          6           0       15.102055    0.551573   -0.075140
     20          6           0       15.477441    3.629485   -2.241886
     21          6           0       17.530134    1.293601   -1.102429
     22          8           0       18.211336    0.448930   -0.545620
     23          6           0       18.271473    2.195303   -2.037160
     24          7           0       13.301049   -1.452320    1.381011
     25          6           0       14.691516   -1.428927    1.396453
     26          6           0       15.263403   -2.631365    2.216984
     27          6           0       14.004576   -3.136596    3.015999
     28          6           0       12.889559   -2.420034    2.254658
     29          6           0       16.095575   -3.709386    1.449018
     30          6           0       14.006146   -2.745722    4.519292
     31          6           0       13.505577   -3.747926    5.528616
     32          7           0       10.500304   -1.188359    0.973341
     33          6           0       10.435280   -2.345547    1.696286
     34          6           0        8.969234   -2.756108    1.826583
     35          6           0        8.243354   -1.802884    1.154132
     36          6           0        9.219484   -0.910048    0.592634
     37          6           0        8.521670   -3.933787    2.662169
     38          6           0        6.930235   -1.353179    0.727538
     39          8           0        5.863287   -1.932690    1.019583
     40          6           0        7.146647   -0.081094   -0.289759
     41          6           0        6.756923   -0.345745   -1.729072
     42          8           0        7.228668   -1.318644   -2.350182
     43          8           0        5.723020    0.484133   -2.164686
     44          6           0        5.068537   -0.029753   -3.362238
     45          1           0       12.798000    3.576902   -2.072323
     46          1           0       16.544116   -0.666933    0.710092
     47          1           0       11.481783   -3.744730    3.009524
     48          1           0        8.292607    1.908134   -2.354810
     49          1           0        9.959814    4.174252   -1.683588
     50          1           0        9.578813    2.830158   -4.074726
     51          1           0       11.221193    2.661691   -3.581604
     52          1           0       10.412822    4.346700   -3.778807
     53          1           0        8.322279    4.205520   -0.508546
     54          1           0        7.667525    2.838223    0.312600
     55          1           0        5.677387    2.976641   -0.771376
     56          1           0        6.434967    3.091616   -2.354866
     57          1           0       16.050185    3.513532   -3.161475
     58          1           0       16.223943    4.180142   -1.670642
     59          1           0       14.672274    4.358228   -2.337910
     60          1           0       18.154894    3.194584   -1.615987
     61          1           0       17.724972    2.179978   -2.980551
     62          1           0       19.286115    1.801540   -2.081741
     63          1           0       15.947034   -2.157135    2.921194
     64          1           0       13.812985   -4.200409    2.877650
     65          1           0       16.210965   -3.292295    0.448865
     66          1           0       15.660270   -4.708128    1.466585
     67          1           0       17.132332   -3.744550    1.785966
     68          1           0       13.336319   -1.889269    4.444788
     69          1           0       14.958518   -2.369750    4.893658
     70          1           0       14.205921   -3.696158    6.362329
     71          1           0       13.524732   -4.773940    5.159741
     72          1           0       12.576383   -3.334707    5.921758
     73          1           0        9.419986   -4.396488    3.070465
     74          1           0        8.081156   -4.673764    1.994349
     75          1           0        7.787952   -3.602870    3.396910
     76          1           0        6.625364    0.780945    0.126488
     77          1           0        4.049724   -0.387264   -3.219471
     78          1           0        5.622369   -0.820574   -3.868377
     79          1           0        5.028500    0.802819   -4.064137
     80         12           0      -11.609646   -0.376114   -0.583829
     81          6           0      -11.264790    2.511018    1.408313
     82          6           0       -8.642188    0.390495   -1.944398
     83          6           0      -11.801541   -3.318592   -1.992948
     84          6           0      -14.340895   -1.248603    1.549130
     85          7           0      -10.116075    1.253537   -0.248068
     86          6           0      -10.182302    2.360948    0.528460
     87          6           0       -8.999586    3.293234    0.361052
     88          6           0       -8.342602    2.673598   -0.937159
     89          6           0       -9.039128    1.337073   -1.088090
     90          6           0       -8.479231    3.560694   -2.242814
     91          6           0       -7.930929    3.509195    1.519595
     92          6           0       -7.835861    2.539159    2.727114
     93          1           0       -6.415615    2.280479    3.355409
     94          7           0      -10.393249   -1.253105   -1.931678
     95          6           0       -9.179972   -0.857185   -2.292539
     96          6           0       -8.568920   -1.902956   -3.157493
     97          6           0       -9.617143   -2.952667   -3.300627
     98          6           0      -10.661741   -2.525991   -2.369127
     99          6           0       -7.254810   -1.742779   -3.873281
    100          6           0       -9.497338   -4.210590   -4.120576
    101          8           0       -8.488063   -4.376469   -4.801134
    102          6           0      -10.538779   -5.389628   -4.140691
    103          7           0      -12.867087   -2.167076   -0.188339
    104          6           0      -12.770725   -3.106054   -1.064784
    105          6           0      -13.944115   -4.145851   -0.779983
    106          6           0      -14.546791   -3.553181    0.495438
    107          6           0      -13.860554   -2.211381    0.664488
    108          6           0      -14.980711   -4.425718   -1.880852
    109          6           0      -14.183586   -4.385872    1.831633
    110          6           0      -15.354236   -5.092872    2.539011
    111          7           0      -12.592464    0.364012    1.148387
    112          6           0      -13.729538   -0.010731    1.814087
    113          6           0      -14.189606    1.075569    2.717605
    114          6           0      -13.168843    2.067673    2.695847
    115          6           0      -12.292304    1.596351    1.625117
    116          6           0      -15.401842    1.042495    3.674948
    117          6           0      -12.680057    3.301323    3.214905
    118          8           0      -13.001739    4.029609    4.169389
    119          6           0      -11.455534    3.690954    2.348328
    120          6           0      -11.775724    5.047681    1.714227
    121          8           0      -11.380548    6.162586    1.929748
    122          8           0      -12.547564    4.809895    0.571756
    123          6           0      -12.891322    5.983510   -0.289816
    124          1           0       -7.670708    0.660471   -2.364126
    125          1           0      -11.842261   -4.274787   -2.520241
    126          1           0      -15.319976   -1.413414    2.002969
    127          1           0       -9.442738    4.248385    0.079845
    128          1           0       -7.271747    2.551567   -0.773782
    129          1           0       -9.067856    4.455975   -2.045412
    130          1           0       -9.122264    2.935035   -2.860844
    131          1           0       -7.490014    3.764207   -2.653266
    132          1           0       -8.085787    4.518032    1.902395
    133          1           0       -6.935900    3.551207    1.075297
    134          1           0       -8.229165    1.587809    2.368789
    135          1           0       -8.323911    2.908907    3.628363
    136          1           0       -7.099752   -2.481850   -4.659024
    137          1           0       -6.488819   -1.697150   -3.098244
    138          1           0       -7.292626   -0.720480   -4.250990
    139          1           0      -11.595840   -5.204635   -4.335428
    140          1           0      -10.561173   -5.833995   -3.145629
    141          1           0      -10.279734   -6.152136   -4.874687
    142          1           0      -13.553965   -5.148432   -0.608006
    143          1           0      -15.629237   -3.438756    0.562748
    144          1           0      -14.767088   -3.865681   -2.791390
    145          1           0      -15.997762   -4.240879   -1.533480
    146          1           0      -14.982508   -5.460791   -2.222507
    147          1           0      -13.748392   -3.747096    2.598967
    148          1           0      -13.433374   -5.114423    1.523472
    149          1           0      -15.275634   -5.160477    3.624353
    150          1           0      -15.329814   -6.118622    2.171229
    151          1           0      -16.218172   -4.495563    2.247316
    152          1           0      -15.840029    0.057309    3.831255
    153          1           0      -16.137981    1.681179    3.187422
    154          1           0      -15.116616    1.542899    4.600007
    155          1           0      -10.577570    3.784807    2.986590
    156          1           0      -13.000913    6.960750    0.179878
    157          1           0      -13.884351    5.732684   -0.662277
    158          1           0      -12.304046    6.156567   -1.191854
 ---------------------------------------------------------------------

 SCF Done:  E(RwB97XD) =  -4070.58027687     A.U. after   19 cycles

 Excitation energies and oscillator strengths:

 Excited State   1:      Singlet-A      1.6412 eV  755.43 nm  f=0.4336  <S**2>=0.000
     310 -> 316        0.17850
     312 -> 314        0.68545
     310 <- 316        0.11664
 This state for optimization and/or second-order correction.
 Total Energy, E(TD-HF/TD-DFT) =  -4070.51996224
 Copying the excited state density for this state as the 1-particle RhoCI density.

 Excited State   2:      Singlet-A      1.7161 eV  722.49 nm  f=0.3955  <S**2>=0.000
     309 -> 315        0.19056
     311 -> 313        0.68087
     309 <- 315        0.11527

 Excited State   3:      Singlet-A      2.2303 eV  555.90 nm  f=0.0845  <S**2>=0.000
     309 -> 313        0.47022
     310 -> 314       -0.42243
     311 -> 315       -0.22150
     312 -> 316        0.21102

 Excited State   4:      Singlet-A      2.2317 eV  555.57 nm  f=0.1005  <S**2>=0.000
     309 -> 313        0.42610
     310 -> 314        0.46507
     311 -> 315       -0.20188
     312 -> 316       -0.23370

 Excited State   5:      Singlet-A      3.5623 eV  348.05 nm  f=0.0000  <S**2>=0.000
     312 -> 313        0.70699

 The electronic state is 1-A.
 Alpha  occ. eigenvalues --  -46.96374 -46.94718 -19.31912 -19.29850 -19.25795
 Alpha  occ. eigenvalues --  -19.25371 -19.25040 -19.24574 -19.23535 -19.23506
 Alpha  occ. eigenvalues --  -14.47163 -14.46878 -14.46337 -14.46226 -14.45030
 Alpha  occ. eigenvalues --  -14.44679 -14.44280 -14.43909 -10.44695 -10.43758
 Alpha  occ. eigenvalues --  -10.40584 -10.39744 -10.39509 -10.38836 -10.35648
 Alpha  occ. eigenvalues --  -10.35633 -10.35538 -10.35458 -10.35106 -10.35086
 Alpha  occ. eigenvalues --  -10.34937 -10.34724 -10.34714 -10.34655 -10.34388
 Alpha  occ. eigenvalues --  -10.34336 -10.34139 -10.34091 -10.34034 -10.34016
 Alpha  occ. eigenvalues --  -10.33785 -10.33742 -10.33456 -10.33319 -10.33162
 Alpha  occ. eigenvalues --  -10.33036 -10.33033 -10.33007 -10.32839 -10.32825
 Alpha  occ. eigenvalues --  -10.32626 -10.32314 -10.32156 -10.32031 -10.31925
 Alpha  occ. eigenvalues --  -10.31904 -10.31720 -10.31646 -10.31483 -10.31479
 Alpha  occ. eigenvalues --  -10.31393 -10.31388 -10.31277 -10.31268 -10.31250
 Alpha  occ. eigenvalues --  -10.31091 -10.31086 -10.30988 -10.30974 -10.30936
 Alpha  occ. eigenvalues --  -10.30526 -10.30427 -10.30375 -10.30304 -10.30283
 Alpha  occ. eigenvalues --  -10.30020 -10.29983 -10.29975 -10.29815 -10.29797
 Alpha  occ. eigenvalues --  -10.29569 -10.29340 -10.29321 -10.29214 -10.29213
 Alpha  occ. eigenvalues --  -10.29180  -3.22304  -3.20792  -1.95880  -1.95423
 Alpha  occ. eigenvalues --   -1.95272  -1.94365  -1.93902  -1.93791  -1.18506
 Alpha  occ. eigenvalues --   -1.18234  -1.12264  -1.11697  -1.11603  -1.11316
 Alpha  occ. eigenvalues --   -1.10146  -1.09507  -1.08701  -1.06806  -1.06023
 Alpha  occ. eigenvalues --   -1.05903  -1.05307  -1.05291  -1.04613  -1.03889
 Alpha  occ. eigenvalues --   -0.95583  -0.94614  -0.91692  -0.90972  -0.90692
 Alpha  occ. eigenvalues --   -0.90587  -0.90443  -0.90169  -0.89898  -0.89264
 Alpha  occ. eigenvalues --   -0.89114  -0.88867  -0.88054  -0.87282  -0.86799
 Alpha  occ. eigenvalues --   -0.86174  -0.85798  -0.85533  -0.84748  -0.84597
 Alpha  occ. eigenvalues --   -0.83814  -0.83673  -0.83142  -0.82746  -0.82435
 Alpha  occ. eigenvalues --   -0.82172  -0.80438  -0.80359  -0.79612  -0.79513
 Alpha  occ. eigenvalues --   -0.78911  -0.78855  -0.78589  -0.78122  -0.77274
 Alpha  occ. eigenvalues --   -0.76630  -0.75301  -0.74434  -0.74347  -0.72927
 Alpha  occ. eigenvalues --   -0.71569  -0.71159  -0.70989  -0.70562  -0.70312
 Alpha  occ. eigenvalues --   -0.69822  -0.69465  -0.68744  -0.68658  -0.67609
 Alpha  occ. eigenvalues --   -0.67474  -0.67241  -0.66921  -0.66878  -0.66845
 Alpha  occ. eigenvalues --   -0.66338  -0.65161  -0.64572  -0.62558  -0.62230
 Alpha  occ. eigenvalues --   -0.62174  -0.61729  -0.61414  -0.60865  -0.60499
 Alpha  occ. eigenvalues --   -0.60481  -0.60320  -0.60054  -0.59296  -0.59230
 Alpha  occ. eigenvalues --   -0.58313  -0.58228  -0.57832  -0.57620  -0.57385
 Alpha  occ. eigenvalues --   -0.57033  -0.56997  -0.56830  -0.56484  -0.55881
 Alpha  occ. eigenvalues --   -0.55683  -0.55559  -0.55425  -0.55092  -0.54867
 Alpha  occ. eigenvalues --   -0.54686  -0.54518  -0.54337  -0.53932  -0.53741
 Alpha  occ. eigenvalues --   -0.53629  -0.53523  -0.53499  -0.53425  -0.53186
 Alpha  occ. eigenvalues --   -0.53160  -0.53044  -0.52986  -0.52752  -0.52492
 Alpha  occ. eigenvalues --   -0.52163  -0.51922  -0.51715  -0.51535  -0.51425
 Alpha  occ. eigenvalues --   -0.51316  -0.51049  -0.50957  -0.50770  -0.50706
 Alpha  occ. eigenvalues --   -0.50549  -0.50440  -0.50419  -0.50240  -0.50207
 Alpha  occ. eigenvalues --   -0.50056  -0.49845  -0.49763  -0.49495  -0.49338
 Alpha  occ. eigenvalues --   -0.49172  -0.49161  -0.48905  -0.48843  -0.48663
 Alpha  occ. eigenvalues --   -0.48545  -0.48404  -0.48195  -0.48019  -0.47935
 Alpha  occ. eigenvalues --   -0.47868  -0.47761  -0.47577  -0.47460  -0.47298
 Alpha  occ. eigenvalues --   -0.47262  -0.46749  -0.46481  -0.46296  -0.46086
 Alpha  occ. eigenvalues --   -0.46053  -0.45927  -0.45875  -0.45698  -0.45532
 Alpha  occ. eigenvalues --   -0.45486  -0.45222  -0.45127  -0.45052  -0.44932
 Alpha  occ. eigenvalues --   -0.44793  -0.44580  -0.44542  -0.44234  -0.44002
 Alpha  occ. eigenvalues --   -0.43968  -0.43704  -0.43611  -0.43328  -0.43076
 Alpha  occ. eigenvalues --   -0.43013  -0.42815  -0.42662  -0.42561  -0.42434
 Alpha  occ. eigenvalues --   -0.42073  -0.41845  -0.41407  -0.41108  -0.41006
 Alpha  occ. eigenvalues --   -0.40727  -0.40185  -0.40097  -0.39722  -0.39687
 Alpha  occ. eigenvalues --   -0.39468  -0.39408  -0.38852  -0.38698  -0.38482
 Alpha  occ. eigenvalues --   -0.38229  -0.38016  -0.37059  -0.37037  -0.36412
 Alpha  occ. eigenvalues --   -0.36225  -0.35829  -0.35137  -0.34059  -0.33684
 Alpha  occ. eigenvalues --   -0.33484  -0.33457  -0.33237  -0.32827  -0.32586
 Alpha  occ. eigenvalues --   -0.32552  -0.31914  -0.31384  -0.26386  -0.26074
 Alpha  occ. eigenvalues --   -0.23308  -0.22555
 Alpha virt. eigenvalues --   -0.07228  -0.06742  -0.00092   0.00617   0.01449
 Alpha virt. eigenvalues --    0.02001   0.03888   0.04309   0.04550   0.04908
 Alpha virt. eigenvalues --    0.05139   0.06850   0.07012   0.07233   0.08008

 Mulliken charges:
               1
     1  Mg   0.976211
     2  C   -0.099496
     3  C   -0.080701
     4  C   -0.088207
     5  C   -0.101356
     6  N   -0.370378
     7  C   -0.011515
     8  C   -0.072197
     9  C   -0.107097
    10  C    0.104418
    11  C    0.024224
    12  C    0.006623
    13  C   -0.108855
    14  H    0.027509
    15  N   -0.454661
    16  C    0.114110
    17  C   -0.149623
    18  C   -0.076285
    19  C    0.118087
    20  C    0.069446
    21  C    0.031507
    22  O   -0.238369
    23  C    0.011840
    24  N   -0.401045
    25  C    0.093450
    26  C   -0.058201
    27  C   -0.103731
    28  C    0.063812
    29  C    0.035218
    30  C   -0.016664
    31  C   -0.026196
    32  N   -0.388587
    33  C    0.149243
    34  C   -0.228802
    35  C    0.015822
    36  C    0.153986
    37  C    0.098511
    38  C    0.146861
    39  O   -0.221024
    40  C   -0.037357
    41  C    0.292702
    42  O   -0.256180
    43  O   -0.367244
    44  C    0.121032
    45  H   -0.014085
    46  H    0.016109
    47  H   -0.003733
    48  H    0.041644
    49  H    0.034134
    50  H    0.028892
    51  H    0.041615
    52  H    0.042928
    53  H    0.031996
    54  H    0.038027
    55  H    0.064309
    56  H    0.054544
    57  H    0.046748
    58  H    0.028240
    59  H    0.042568
    60  H    0.049407
    61  H    0.052035
    62  H    0.067704
    63  H    0.030957
    64  H    0.029199
    65  H    0.038572
    66  H    0.045343
    67  H    0.035471
    68  H    0.029362
    69  H    0.034929
    70  H    0.028913
    71  H    0.041853
    72  H    0.043842
    73  H    0.023009
    74  H    0.059142
    75  H    0.067150
    76  H    0.058072
    77  H    0.063534
    78  H    0.072261
    79  H    0.044467
    80  Mg   0.957904
    81  C   -0.036573
    82  C   -0.091680
    83  C   -0.036344
    84  C   -0.103765
    85  N   -0.340976
    86  C   -0.037718
    87  C    0.005239
    88  C   -0.158264
    89  C    0.057890
    90  C    0.033612
    91  C    0.002421
    92  C   -0.150270
    93  H    0.027479
    94  N   -0.476247
    95  C    0.164749
    96  C   -0.173190
    97  C   -0.081319
    98  C    0.167432
    99  C    0.085867
   100  C    0.055578
   101  O   -0.240246
   102  C   -0.027098
   103  N   -0.273946
   104  C    0.045765
   105  C   -0.055700
   106  C   -0.126100
   107  C    0.077405
   108  C    0.014303
   109  C   -0.041888
   110  C   -0.039887
   111  N   -0.401935
   112  C    0.127093
   113  C   -0.186228
   114  C   -0.008846
   115  C    0.160782
   116  C    0.075228
   117  C    0.093724
   118  O   -0.218233
   119  C   -0.083361
   120  C    0.279640
   121  O   -0.209653
   122  O   -0.397985
   123  C    0.134943
   124  H   -0.010903
   125  H   -0.053730
   126  H    0.002568
   127  H    0.040760
   128  H    0.037211
   129  H    0.035299
   130  H    0.038062
   131  H    0.054686
   132  H    0.045149
   133  H    0.044688
   134  H    0.073045
   135  H    0.074268
   136  H    0.077699
   137  H    0.041454
   138  H    0.036648
   139  H    0.056401
   140  H    0.057304
   141  H    0.052441
   142  H    0.035583
   143  H    0.023089
   144  H    0.033181
   145  H    0.035935
   146  H    0.027123
   147  H    0.043380
   148  H    0.025369
   149  H    0.043767
   150  H    0.037818
   151  H    0.028042
   152  H    0.042807
   153  H    0.054843
   154  H    0.069716
   155  H    0.068947
   156  H    0.065813
   157  H    0.044808
   158  H    0.047125
 Sum of Mulliken charges =  -0.00000

 Dipole moment (field-independent basis, Debye):
    X=             -2.2942    Y=              1.5705    Z=             -1.9066  Tot=              3.3712
 Quadrupole moment (field-independent basis, Debye-Ang):
   XX=           -428.8972   YY=           -504.3686   ZZ=           -519.8428
   XY=             82.7483   XZ=             49.0051   YZ=            -56.4449

 Normal termination of Gaussian 16 at Sun Sep 19 16:32:40 2021.
