 Gaussian 16, Revision A.03,
 Gaussian 16:  ES64L-G16RevA.03 25-Dec-2016

 --------------------------------
 #p wB97XD/Def2SVP td=(nstates=5)
 --------------------------------

 --------------------------------
 TDDFT excited states in gaussian
 --------------------------------
 Symbolic Z-matrix:
 Charge =  0 Multiplicity = 1

                         Standard orientation:
 ---------------------------------------------------------------------
 Center     Atomic      Atomic             Coordinates (Angstroms)
 Number     Number       Type             X           Y           Z
 ---------------------------------------------------------------------
      1         12           0      -32.012883    0.336260    0.463840
      2          6           0      -30.000973   -2.076352   -1.073840
      3          6           0      -33.149356    1.130681   -2.716619
      4          6           0      -33.556798    2.855125    1.821380
      5          6           0      -30.515519   -0.524455    3.555886
      6          7           0      -31.309693   -0.133970   -1.739627
      7          6           0      -30.620724   -1.234700   -2.057646
      8          6           0      -30.659216   -1.381805   -3.542075
      9          6           0      -31.314666   -0.077781   -4.059255
     10          6           0      -32.008123    0.347713   -2.780241
     11          6           0      -30.444750    1.022020   -4.670523
     12          6           0      -31.459593   -2.648444   -3.982398
     13          6           0      -30.820193   -3.625965   -5.020762
     14          1           0      -29.829569   -3.062211   -6.086711
     15          7           0      -33.336471    1.733826   -0.335336
     16          6           0      -33.793249    1.740238   -1.646623
     17          6           0      -34.785333    2.762561   -1.725395
     18          6           0      -34.847313    3.396847   -0.420257
     19          6           0      -33.915704    2.681912    0.439312
     20          6           0      -35.522389    3.172560   -3.019129
     21          6           0      -35.658703    4.639780    0.045886
     22          8           0      -35.622704    5.094740    1.145035
     23          6           0      -36.595044    5.244535   -0.981695
     24          7           0      -32.017754    1.019402    2.408580
     25          6           0      -32.703080    2.145092    2.709462
     26          6           0      -32.607916    2.560876    4.203330
     27          6           0      -31.841342    1.298048    4.788607
     28          6           0      -31.441321    0.514636    3.543983
     29          6           0      -31.843437    3.999416    4.354351
     30          6           0      -32.644669    0.526580    5.882366
     31          6           0      -33.409611   -0.714438    5.458474
     32          7           0      -30.570014   -1.046089    1.195056
     33          6           0      -30.143705   -1.330592    2.464258
     34          6           0      -29.171308   -2.476683    2.385249
     35          6           0      -29.102949   -2.784950    1.007748
     36          6           0      -29.938689   -1.866678    0.289887
     37          6           0      -28.314682   -3.036372    3.488306
     38          6           0      -28.488001   -3.662518    0.014886
     39          8           0      -27.669979   -4.567284    0.204128
     40          6           0      -29.172984   -3.331308   -1.307670
     41          6           0      -28.063878   -3.120502   -2.298183
     42          8           0      -27.383964   -2.114549   -2.386434
     43          8           0      -27.876335   -4.291965   -2.883444
     44          6           0      -26.621328   -4.518542   -3.582839
     45          1           0      -33.401648    1.480415   -3.719391
     46          1           0      -34.201756    3.576231    2.327212
     47          1           0      -30.065753   -0.798970    4.512667
     48          1           0      -29.638324   -1.492058   -3.906379
     49          1           0      -31.977892   -0.377977   -4.870602
     50          1           0      -29.379261    0.806953   -4.753566
     51          1           0      -30.551871    1.946497   -4.102414
     52          1           0      -30.837907    1.192720   -5.672471
     53          1           0      -32.480471   -2.430863   -4.295656
     54          1           0      -31.540237   -3.143322   -3.014668
     55          1           0      -31.684874   -4.041162   -5.540023
     56          1           0      -30.307341   -4.420077   -4.478711
     57          1           0      -35.457097    4.239528   -3.232467
     58          1           0      -36.600491    3.029650   -2.944208
     59          1           0      -35.207982    2.627771   -3.910310
     60          1           0      -37.252816    4.506256   -1.440835
     61          1           0      -35.989543    5.781526   -1.711946
     62          1           0      -37.160867    6.065524   -0.541369
     63          1           0      -33.586567    2.667480    4.670960
     64          1           0      -30.934197    1.563372    5.331372
     65          1           0      -30.873503    3.744280    4.781452
     66          1           0      -32.285311    4.649053    5.110203
     67          1           0      -31.626115    4.489903    3.404840
     68          1           0      -33.429037    1.227388    6.168601
     69          1           0      -32.044121    0.306595    6.764768
     70          1           0      -33.883617   -0.422612    4.520527
     71          1           0      -34.105694   -0.826448    6.289422
     72          1           0      -32.884567   -1.633470    5.199339
     73          1           0      -28.321229   -2.540279    4.458895
     74          1           0      -27.272775   -3.033603    3.167802
     75          1           0      -28.595548   -4.086836    3.557212
     76          1           0      -29.719376   -4.159467   -1.759442
     77          1           0      -25.826768   -3.774614   -3.534646
     78          1           0      -26.932275   -4.524709   -4.627980
     79          1           0      -26.401980   -5.585727   -3.547388
     80         12           0       31.925491    0.466675   -0.648653
     81          6           0       29.564840   -2.082969   -0.052653
     82          6           0       29.384835    2.715574   -0.340952
     83          6           0       34.288510    2.928911   -0.461600
     84          6           0       34.411190   -2.074343   -0.394594
     85          7           0       29.708742    0.327968   -0.093135
     86          6           0       28.909661   -0.778104   -0.042876
     87          6           0       27.457172   -0.431717    0.327494
     88          6           0       27.481714    1.094299   -0.175692
     89          6           0       28.956968    1.407344   -0.210686
     90          6           0       26.814647    1.360802   -1.551747
     91          6           0       27.129940   -0.521641    1.885766
     92          6           0       25.690376   -0.743398    2.323469
     93          1           0       24.868837    0.353345    3.033928
     94          7           0       31.921229    2.608910   -0.463178
     95          6           0       30.749818    3.308267   -0.493436
     96          6           0       30.985119    4.676850   -0.635311
     97          6           0       32.423818    4.801693   -0.704135
     98          6           0       32.978537    3.431896   -0.512060
     99          6           0       29.904172    5.747400   -0.724113
    100          6           0       33.116137    6.131043   -0.903113
    101          8           0       32.428060    7.177294   -1.024037
    102          6           0       34.667347    6.286627   -1.082736
    103          7           0       33.995906    0.372436   -0.464085
    104          6           0       34.774211    1.561379   -0.442465
    105          6           0       36.222524    1.230184   -0.672679
    106          6           0       36.333457   -0.269289   -0.321205
    107          6           0       34.854666   -0.731831   -0.469804
    108          6           0       36.840582    1.416534   -2.076839
    109          6           0       36.839315   -0.509643    1.197486
    110          6           0       38.334647   -0.490824    1.476540
    111          7           0       31.944411   -1.679200   -0.477109
    112          6           0       33.014563   -2.557729   -0.398484
    113          6           0       32.593956   -3.858372   -0.194064
    114          6           0       31.195863   -3.750104   -0.100124
    115          6           0       30.859069   -2.394880   -0.255729
    116          6           0       33.491691   -5.051791   -0.102883
    117          6           0       30.037571   -4.470565   -0.012252
    118          8           0       29.858381   -5.672261   -0.037027
    119          6           0       28.963128   -3.402137    0.280074
    120          6           0       28.609182   -3.597018    1.724208
    121          8           0       29.394619   -3.536754    2.618373
    122          8           0       27.259625   -3.931557    1.849198
    123          6           0       26.913815   -4.290407    3.180594
    124          1           0       28.585349    3.450580   -0.457244
    125          1           0       35.082497    3.664998   -0.606942
    126          1           0       35.217174   -2.807158   -0.467919
    127          1           0       26.732644   -0.933872   -0.312729
    128          1           0       26.908538    1.665751    0.553857
    129          1           0       25.828182    1.727331   -1.266380
    130          1           0       26.686725    0.447877   -2.133263
    131          1           0       27.337341    2.139633   -2.107248
    132          1           0       27.402063    0.408438    2.384857
    133          1           0       27.804173   -1.272841    2.297692
    134          1           0       25.748470   -1.614230    2.978054
    135          1           0       25.131675   -1.055175    1.441147
    136          1           0       30.050093    6.610051   -1.375086
    137          1           0       29.834130    5.978344    0.338580
    138          1           0       28.997421    5.324032   -1.156210
    139          1           0       34.982040    5.760971   -1.983859
    140          1           0       35.049637    5.860195   -0.155521
    141          1           0       35.054816    7.304988   -1.055656
    142          1           0       36.785250    1.791728    0.072341
    143          1           0       36.998561   -0.805141   -0.998505
    144          1           0       37.128810    0.495044   -2.582383
    145          1           0       37.464164    2.309715   -2.120511
    146          1           0       35.998957    1.745413   -2.686225
    147          1           0       36.415698   -1.497389    1.378046
    148          1           0       36.382418    0.210488    1.876541
    149          1           0       38.537004    0.205643    2.289779
    150          1           0       38.862750   -0.162619    0.580850
    151          1           0       38.688069   -1.465101    1.815142
    152          1           0       33.185404   -5.587052    0.795418
    153          1           0       34.536679   -4.781289    0.053505
    154          1           0       33.389327   -5.725779   -0.953565
    155          1           0       28.101825   -3.609594   -0.353986
    156          1           0       27.006629   -5.369059    3.304087
    157          1           0       25.856664   -4.148479    3.408274
    158          1           0       27.541997   -3.797473    3.920589
 ---------------------------------------------------------------------

 SCF Done:  E(RwB97XD) =  -4070.58346899     A.U. after   20 cycles

 Excitation energies and oscillator strengths:

 Excited State   1:      Singlet-A      1.6462 eV  753.17 nm  f=0.3986  <S**2>=0.000
     309 -> 315       -0.19122
     311 -> 313        0.68054
     309 <- 315       -0.11798
 This state for optimization and/or second-order correction.
 Total Energy, E(TD-HF/TD-DFT) =  -4070.52297323
 Copying the excited state density for this state as the 1-particle RhoCI density.

 Excited State   2:      Singlet-A      1.6771 eV  739.26 nm  f=0.3979  <S**2>=0.000
     310 -> 316        0.19185
     312 -> 314        0.68165
     310 <- 316        0.11864

 Excited State   3:      Singlet-A      2.0913 eV  592.87 nm  f=0.1261  <S**2>=0.000
     309 -> 313        0.64852
     311 -> 315        0.26306

 Excited State   4:      Singlet-A      2.1599 eV  574.03 nm  f=0.0977  <S**2>=0.000
     310 -> 314        0.64021
     312 -> 316       -0.28500

 Excited State   5:      Singlet-A      3.1710 eV  390.99 nm  f=0.0098  <S**2>=0.000
     306 -> 313       -0.26061
     307 -> 313        0.61034
     307 -> 317       -0.13639

 The electronic state is 1-A.
 Alpha  occ. eigenvalues --  -46.96660 -46.95125 -19.31508 -19.30635 -19.25848
 Alpha  occ. eigenvalues --  -19.24638 -19.24552 -19.23562 -19.23171 -19.22931
 Alpha  occ. eigenvalues --  -14.47785 -14.47278 -14.46358 -14.46184 -14.44409
 Alpha  occ. eigenvalues --  -14.43954 -14.43821 -14.43298 -10.43563 -10.43040
 Alpha  occ. eigenvalues --  -10.39560 -10.39026 -10.38388 -10.37358 -10.36477
 Alpha  occ. eigenvalues --  -10.36371 -10.35822 -10.35694 -10.35321 -10.35136
 Alpha  occ. eigenvalues --  -10.34996 -10.34783 -10.34752 -10.34746 -10.34731
 Alpha  occ. eigenvalues --  -10.34290 -10.33983 -10.33698 -10.33627 -10.33533
 Alpha  occ. eigenvalues --  -10.33483 -10.33349 -10.33325 -10.33084 -10.32914
 Alpha  occ. eigenvalues --  -10.32479 -10.32435 -10.32402 -10.32384 -10.32379
 Alpha  occ. eigenvalues --  -10.32372 -10.32133 -10.32111 -10.32096 -10.32040
 Alpha  occ. eigenvalues --  -10.31905 -10.31871 -10.31715 -10.31653 -10.31620
 Alpha  occ. eigenvalues --  -10.31534 -10.31501 -10.31307 -10.31188 -10.31119
 Alpha  occ. eigenvalues --  -10.31041 -10.30716 -10.30626 -10.30598 -10.30475
 Alpha  occ. eigenvalues --  -10.30435 -10.30424 -10.30353 -10.30336 -10.30268
 Alpha  occ. eigenvalues --  -10.30237 -10.29966 -10.29948 -10.29938 -10.29801
 Alpha  occ. eigenvalues --  -10.29797 -10.29468 -10.29212 -10.29035 -10.28892
 Alpha  occ. eigenvalues --  -10.28199  -3.22430  -3.21032  -1.96010  -1.95539
 Alpha  occ. eigenvalues --   -1.95388  -1.94627  -1.94190  -1.93959  -1.20566
 Alpha  occ. eigenvalues --   -1.19803  -1.13516  -1.12266  -1.11922  -1.11747
 Alpha  occ. eigenvalues --   -1.10897  -1.09534  -1.07784  -1.07024  -1.06719
 Alpha  occ. eigenvalues --   -1.05984  -1.05779  -1.04676  -1.03911  -1.03857
 Alpha  occ. eigenvalues --   -0.96379  -0.95406  -0.90871  -0.90638  -0.90591
 Alpha  occ. eigenvalues --   -0.90565  -0.90486  -0.89934  -0.89530  -0.89034
 Alpha  occ. eigenvalues --   -0.89028  -0.88233  -0.87871  -0.87432  -0.86382
 Alpha  occ. eigenvalues --   -0.86306  -0.85617  -0.85537  -0.84839  -0.84506
 Alpha  occ. eigenvalues --   -0.83822  -0.83349  -0.82702  -0.82657  -0.82307
 Alpha  occ. eigenvalues --   -0.81960  -0.80025  -0.79876  -0.79313  -0.79309
 Alpha  occ. eigenvalues --   -0.78908  -0.78901  -0.78228  -0.77911  -0.77653
 Alpha  occ. eigenvalues --   -0.77034  -0.75613  -0.74693  -0.74247  -0.73693
 Alpha  occ. eigenvalues --   -0.71483  -0.71461  -0.70888  -0.70422  -0.70396
 Alpha  occ. eigenvalues --   -0.70000  -0.69170  -0.68258  -0.68064  -0.67330
 Alpha  occ. eigenvalues --   -0.67246  -0.66905  -0.66718  -0.66627  -0.66337
 Alpha  occ. eigenvalues --   -0.66243  -0.64814  -0.64811  -0.62510  -0.62165
 Alpha  occ. eigenvalues --   -0.61835  -0.61653  -0.61591  -0.61196  -0.61179
 Alpha  occ. eigenvalues --   -0.61037  -0.60481  -0.60105  -0.60092  -0.59304
 Alpha  occ. eigenvalues --   -0.58836  -0.58501  -0.58003  -0.57698  -0.57287
 Alpha  occ. eigenvalues --   -0.57083  -0.56917  -0.56743  -0.56646  -0.55814
 Alpha  occ. eigenvalues --   -0.55591  -0.55515  -0.55210  -0.55128  -0.54831
 Alpha  occ. eigenvalues --   -0.54741  -0.54532  -0.54449  -0.54223  -0.53895
 Alpha  occ. eigenvalues --   -0.53789  -0.53607  -0.53361  -0.53341  -0.53156
 Alpha  occ. eigenvalues --   -0.53143  -0.52996  -0.52795  -0.52553  -0.52132
 Alpha  occ. eigenvalues --   -0.52073  -0.51786  -0.51670  -0.51624  -0.51341
 Alpha  occ. eigenvalues --   -0.51322  -0.51105  -0.50939  -0.50758  -0.50746
 Alpha  occ. eigenvalues --   -0.50628  -0.50422  -0.50311  -0.50015  -0.49887
 Alpha  occ. eigenvalues --   -0.49876  -0.49283  -0.49257  -0.49161  -0.48969
 Alpha  occ. eigenvalues --   -0.48816  -0.48548  -0.48350  -0.48321  -0.48263
 Alpha  occ. eigenvalues --   -0.47977  -0.47928  -0.47832  -0.47792  -0.47728
 Alpha  occ. eigenvalues --   -0.47598  -0.47535  -0.47324  -0.47240  -0.47010
 Alpha  occ. eigenvalues --   -0.46956  -0.46745  -0.46671  -0.46519  -0.46427
 Alpha  occ. eigenvalues --   -0.45823  -0.45721  -0.45706  -0.45327  -0.45291
 Alpha  occ. eigenvalues --   -0.45178  -0.45166  -0.45029  -0.44902  -0.44901
 Alpha  occ. eigenvalues --   -0.44636  -0.44559  -0.44443  -0.44161  -0.44103
 Alpha  occ. eigenvalues --   -0.43709  -0.43547  -0.43455  -0.43298  -0.43179
 Alpha  occ. eigenvalues --   -0.43108  -0.42951  -0.42920  -0.42598  -0.42399
 Alpha  occ. eigenvalues --   -0.42208  -0.42165  -0.41537  -0.41363  -0.41195
 Alpha  occ. eigenvalues --   -0.40446  -0.40286  -0.39829  -0.39584  -0.39189
 Alpha  occ. eigenvalues --   -0.39137  -0.39024  -0.38903  -0.38787  -0.38637
 Alpha  occ. eigenvalues --   -0.38426  -0.38146  -0.37497  -0.37066  -0.36415
 Alpha  occ. eigenvalues --   -0.36088  -0.35676  -0.35341  -0.33661  -0.33449
 Alpha  occ. eigenvalues --   -0.33002  -0.32466  -0.32276  -0.32163  -0.32152
 Alpha  occ. eigenvalues --   -0.31986  -0.31643  -0.31074  -0.26241  -0.25719
 Alpha  occ. eigenvalues --   -0.23843  -0.22880
 Alpha virt. eigenvalues --   -0.07959  -0.06831  -0.00587   0.00396   0.02000
 Alpha virt. eigenvalues --    0.02216   0.04558   0.04692   0.04988   0.05890
 Alpha virt. eigenvalues --    0.06748   0.07435   0.07693   0.07866   0.07988

 Mulliken charges:
               1
     1  Mg   0.943480
     2  C   -0.009993
     3  C   -0.053657
     4  C   -0.049908
     5  C   -0.089615
     6  N   -0.281349
     7  C    0.032736
     8  C   -0.102309
     9  C   -0.079017
    10  C   -0.023266
    11  C    0.044035
    12  C   -0.008108
    13  C   -0.108827
    14  H    0.034720
    15  N   -0.486485
    16  C    0.194327
    17  C   -0.162134
    18  C   -0.110777
    19  C    0.127618
    20  C    0.066811
    21  C    0.057483
    22  O   -0.197951
    23  C   -0.024897
    24  N   -0.388266
    25  C    0.068161
    26  C   -0.106258
    27  C   -0.052064
    28  C    0.081565
    29  C    0.014958
    30  C   -0.034391
    31  C   -0.035125
    32  N   -0.430969
    33  C    0.126651
    34  C   -0.181611
    35  C   -0.031485
    36  C    0.144810
    37  C    0.071977
    38  C    0.142850
    39  O   -0.213878
    40  C   -0.092703
    41  C    0.223722
    42  O   -0.247813
    43  O   -0.327100
    44  C    0.146648
    45  H   -0.006242
    46  H    0.024707
    47  H   -0.006533
    48  H    0.040402
    49  H    0.020986
    50  H    0.046976
    51  H    0.041499
    52  H    0.029955
    53  H    0.038460
    54  H    0.025588
    55  H    0.053000
    56  H    0.060530
    57  H    0.037152
    58  H    0.040645
    59  H    0.034230
    60  H    0.057372
    61  H    0.052137
    62  H    0.039907
    63  H    0.050010
    64  H    0.031424
    65  H    0.019126
    66  H    0.045895
    67  H    0.058989
    68  H    0.022770
    69  H    0.029631
    70  H    0.030059
    71  H    0.044296
    72  H    0.041680
    73  H    0.038410
    74  H    0.061890
    75  H    0.059410
    76  H    0.073412
    77  H    0.085489
    78  H    0.026936
    79  H    0.057204
    80  Mg   0.948490
    81  C    0.000469
    82  C   -0.064792
    83  C   -0.087415
    84  C   -0.085776
    85  N   -0.297913
    86  C   -0.038004
    87  C   -0.036643
    88  C   -0.151832
    89  C    0.082516
    90  C    0.029903
    91  C   -0.001082
    92  C   -0.097715
    93  H    0.043778
    94  N   -0.425899
    95  C    0.122616
    96  C   -0.157824
    97  C   -0.085233
    98  C    0.169050
    99  C    0.086385
   100  C    0.032135
   101  O   -0.271732
   102  C   -0.011464
   103  N   -0.428334
   104  C    0.087148
   105  C   -0.091984
   106  C   -0.113440
   107  C    0.082472
   108  C    0.055271
   109  C   -0.033214
   110  C   -0.022704
   111  N   -0.388649
   112  C    0.120918
   113  C   -0.174865
   114  C    0.038885
   115  C    0.121404
   116  C    0.098376
   117  C    0.026028
   118  O   -0.206344
   119  C   -0.074413
   120  C    0.253947
   121  O   -0.209732
   122  O   -0.358080
   123  C    0.118678
   124  H   -0.004359
   125  H   -0.015908
   126  H    0.009998
   127  H    0.028216
   128  H    0.041460
   129  H    0.039146
   130  H    0.042960
   131  H    0.043387
   132  H    0.044054
   133  H    0.047762
   134  H    0.049665
   135  H    0.043082
   136  H    0.069577
   137  H    0.065462
   138  H    0.029156
   139  H    0.067719
   140  H    0.050354
   141  H    0.051447
   142  H    0.031768
   143  H    0.027922
   144  H    0.049149
   145  H    0.044391
   146  H    0.015815
   147  H    0.024911
   148  H    0.036998
   149  H    0.036026
   150  H    0.032850
   151  H    0.043089
   152  H    0.055730
   153  H    0.023759
   154  H    0.063708
   155  H    0.047907
   156  H    0.048938
   157  H    0.048444
   158  H    0.062032
 Sum of Mulliken charges =  -0.00000

 Dipole moment (field-independent basis, Debye):
    X=             -0.2888    Y=             -0.7557    Z=             -2.6719  Tot=              2.7917
 Quadrupole moment (field-independent basis, Debye-Ang):
   XX=           -300.4930   YY=           -573.7109   ZZ=           -466.8510
   XY=             62.3395   XZ=             22.0275   YZ=              3.0603

 Normal termination of Gaussian 16 at Mon Sep 20 20:09:06 2021.
