 Gaussian 16, Revision A.03,
 Gaussian 16:  ES64L-G16RevA.03 25-Dec-2016

 --------------------------------
 #p wB97XD/Def2SVP td=(nstates=5)
 --------------------------------

 --------------------------------
 TDDFT excited states in gaussian
 --------------------------------
 Symbolic Z-matrix:
 Charge =  0 Multiplicity = 1

                         Standard orientation:
 ---------------------------------------------------------------------
 Center     Atomic      Atomic             Coordinates (Angstroms)
 Number     Number       Type             X           Y           Z
 ---------------------------------------------------------------------
      1         12           0      -13.447853    0.664097    0.271443
      2          6           0      -12.395762   -2.121366   -1.717449
      3          6           0      -15.346373   -1.472889    2.174813
      4          6           0      -14.852231    3.267836    1.901192
      5          6           0      -12.265327    2.750632   -2.314937
      6          7           0      -13.796616   -1.531825    0.216052
      7          6           0      -13.226535   -2.505324   -0.619340
      8          6           0      -13.676374   -3.870028   -0.164459
      9          6           0      -14.968126   -3.532682    0.693240
     10          6           0      -14.729228   -2.029201    1.019912
     11          6           0      -16.226189   -3.764498   -0.217473
     12          6           0      -12.554722   -4.717145    0.533846
     13          6           0      -12.579481   -6.080927    0.055543
     14          1           0      -11.274238   -6.952612    0.417801
     15          7           0      -14.772989    0.768157    1.941417
     16          6           0      -15.404304   -0.216683    2.591668
     17          6           0      -16.104561    0.330005    3.713089
     18          6           0      -16.002075    1.704223    3.659283
     19          6           0      -15.102888    2.012096    2.453209
     20          6           0      -17.000001   -0.548861    4.643079
     21          6           0      -16.546017    2.758557    4.645139
     22          8           0      -16.378956    3.927094    4.403118
     23          6           0      -17.197871    2.340670    5.942118
     24          7           0      -13.761331    2.697338   -0.322467
     25          6           0      -14.262550    3.580748    0.627254
     26          6           0      -14.004810    4.995991    0.223421
     27          6           0      -13.149832    4.839277   -1.127295
     28          6           0      -12.982922    3.342831   -1.248052
     29          6           0      -15.249049    5.811233    0.116088
     30          6           0      -11.732271    5.631768   -1.213986
     31          6           0      -11.566489    6.648218   -2.273555
     32          7           0      -12.472440    0.437908   -1.617164
     33          6           0      -12.078560    1.398413   -2.521333
     34          6           0      -11.355011    0.691539   -3.665731
     35          6           0      -11.354412   -0.679000   -3.337314
     36          6           0      -12.093158   -0.786407   -2.107158
     37          6           0      -10.793154    1.397321   -4.907391
     38          6           0      -11.019716   -1.963255   -3.874099
     39          8           0      -10.420621   -2.269899   -4.929495
     40          6           0      -11.820469   -2.965821   -2.945695
     41          6           0      -10.822479   -4.119813   -2.628480
     42          8           0      -10.227849   -4.164457   -1.535930
     43          8           0      -10.817845   -5.016612   -3.645091
     44          6           0       -9.707137   -6.002626   -3.412274
     45          1           0      -15.769514   -2.155479    2.915227
     46          1           0      -15.279654    4.127576    2.422681
     47          1           0      -11.780689    3.315532   -3.113816
     48          1           0      -14.039163   -4.373880   -1.060062
     49          1           0      -15.047866   -4.171761    1.571909
     50          1           0      -16.366734   -2.991253   -0.972341
     51          1           0      -17.104470   -3.866752    0.418501
     52          1           0      -16.115354   -4.720415   -0.729898
     53          1           0      -12.855011   -4.816682    1.577200
     54          1           0      -11.579078   -4.234574    0.471338
     55          1           0      -12.532656   -6.116743   -1.032995
     56          1           0      -13.469374   -6.555490    0.469776
     57          1           0      -16.595440   -0.341512    5.633715
     58          1           0      -16.926094   -1.622569    4.471140
     59          1           0      -18.047389   -0.276928    4.512869
     60          1           0      -17.593990    3.209126    6.468520
     61          1           0      -16.303145    1.913899    6.395261
     62          1           0      -17.976324    1.613793    5.710437
     63          1           0      -13.368920    5.358805    1.031171
     64          1           0      -13.774675    5.221100   -1.934304
     65          1           0      -15.191316    6.502427    0.955977
     66          1           0      -16.154384    5.233902    0.302978
     67          1           0      -15.387441    6.336459   -0.829222
     68          1           0      -11.041495    4.826972   -1.465298
     69          1           0      -11.494234    5.991194   -0.213749
     70          1           0      -10.778977    6.365209   -2.971521
     71          1           0      -11.170421    7.432168   -1.628973
     72          1           0      -12.511993    6.979963   -2.704754
     73          1           0      -11.579226    1.336519   -5.659217
     74          1           0       -9.889225    0.920373   -5.286131
     75          1           0      -10.515905    2.416870   -4.639416
     76          1           0      -12.639913   -3.289809   -3.585834
     77          1           0       -8.704769   -5.616980   -3.597665
     78          1           0       -9.799780   -6.934198   -3.969621
     79          1           0       -9.813683   -6.319148   -2.374504
     80         12           0       13.832872    0.604615    0.119235
     81          6           0       11.545355   -1.991091    0.688744
     82          6           0       16.368702   -1.711905    0.359038
     83          6           0       15.967870    3.069721   -0.387436
     84          6           0       11.127315    2.845060    0.063875
     85          7           0       13.874819   -1.592655    0.397939
     86          6           0       12.833173   -2.489176    0.637179
     87          6           0       13.266145   -4.001254    0.496403
     88          6           0       14.770394   -3.816686    0.550023
     89          6           0       15.047929   -2.262158    0.419016
     90          6           0       15.346168   -4.276070    1.967312
     91          6           0       12.801244   -4.400081   -0.974251
     92          6           0       12.145606   -5.838462   -1.162120
     93          1           0       12.775014   -6.812554   -0.199282
     94          7           0       15.832778    0.677061    0.152021
     95          6           0       16.696557   -0.328025    0.265130
     96          6           0       18.065246    0.102624    0.156009
     97          6           0       17.991801    1.452556   -0.240817
     98          6           0       16.531576    1.821670   -0.114936
     99          6           0       19.268268   -0.748455    0.337966
    100          6           0       19.062011    2.377714   -0.782484
    101          8           0       18.803585    3.457122   -1.326999
    102          6           0       20.540647    2.041877   -0.569316
    103          7           0       13.557351    2.699119   -0.078988
    104          6           0       14.668231    3.459956   -0.357424
    105          6           0       14.210003    4.876794   -0.696492
    106          6           0       12.606131    4.797160   -0.672785
    107          6           0       12.375764    3.365149   -0.267059
    108          6           0       14.904008    5.905273    0.264869
    109          6           0       11.877036    5.218200   -1.939100
    110          6           0       10.761449    6.282789   -1.697665
    111          7           0       11.769988    0.466797    0.354583
    112          6           0       10.771884    1.490814    0.326112
    113          6           0        9.488805    0.936878    0.573798
    114          6           0        9.766364   -0.433064    0.716791
    115          6           0       11.159162   -0.634368    0.623884
    116          6           0        8.140629    1.580515    0.624698
    117          6           0        9.188800   -1.720280    0.936930
    118          8           0        8.055448   -2.088254    1.139051
    119          6           0       10.324107   -2.775554    0.813454
    120          6           0       10.238052   -3.712121    1.963408
    121          8           0       10.502174   -3.481043    3.139960
    122          8           0        9.866387   -4.897130    1.469431
    123          6           0        9.795013   -6.003023    2.401238
    124          1           0       17.250378   -2.350607    0.275964
    125          1           0       16.726495    3.841468   -0.540149
    126          1           0       10.252517    3.494898   -0.007014
    127          1           0       12.681186   -4.530336    1.248095
    128          1           0       15.243690   -4.340381   -0.279867
    129          1           0       14.561753   -4.611492    2.646043
    130          1           0       15.865345   -3.429192    2.415623
    131          1           0       16.048939   -5.071758    1.719895
    132          1           0       13.612673   -4.385696   -1.701301
    133          1           0       12.110721   -3.619222   -1.293976
    134          1           0       12.444680   -6.273948   -2.115611
    135          1           0       11.061608   -5.774575   -1.260288
    136          1           0       19.734778   -0.838556   -0.643974
    137          1           0       19.000858   -1.750604    0.670156
    138          1           0       19.990337   -0.332742    1.040118
    139          1           0       20.973945    3.029592   -0.725021
    140          1           0       20.925162    1.281383   -1.249972
    141          1           0       20.853835    1.782475    0.441805
    142          1           0       14.490787    5.239921   -1.685085
    143          1           0       12.245336    5.425143    0.141913
    144          1           0       15.252742    6.715461   -0.375604
    145          1           0       15.703459    5.477079    0.869625
    146          1           0       14.167836    6.460884    0.846968
    147          1           0       11.435731    4.393322   -2.497616
    148          1           0       12.627116    5.780343   -2.497202
    149          1           0       10.777520    6.630661   -0.664663
    150          1           0        9.766167    5.842129   -1.751707
    151          1           0       10.879542    7.138629   -2.362585
    152          1           0        7.951774    1.757759   -0.434445
    153          1           0        8.238473    2.454255    1.268610
    154          1           0        7.366281    0.900298    0.976570
    155          1           0       10.026024   -3.355882   -0.060759
    156          1           0        9.156254   -5.738577    3.244410
    157          1           0       10.726337   -6.298606    2.885497
    158          1           0        9.359329   -6.835343    1.848203
 ---------------------------------------------------------------------

 SCF Done:  E(RwB97XD) =  -4070.60184346     A.U. after   19 cycles

 Excitation energies and oscillator strengths:

 Excited State   1:      Singlet-A      1.6759 eV  739.81 nm  f=0.5121  <S**2>=0.000
     309 -> 315       -0.17936
     311 -> 313       -0.24245
     312 -> 314        0.63630
     309 <- 315       -0.10801
 This state for optimization and/or second-order correction.
 Total Energy, E(TD-HF/TD-DFT) =  -4070.54025526
 Copying the excited state density for this state as the 1-particle RhoCI density.

 Excited State   2:      Singlet-A      1.6812 eV  737.49 nm  f=0.2278  <S**2>=0.000
     310 -> 316       -0.15514
     311 -> 313        0.64128
     312 -> 314        0.24031

 Excited State   3:      Singlet-A      2.2162 eV  559.44 nm  f=0.0058  <S**2>=0.000
     309 -> 314        0.55057
     312 -> 315        0.43360

 Excited State   4:      Singlet-A      2.2340 eV  554.99 nm  f=0.1189  <S**2>=0.000
     310 -> 313        0.63517
     311 -> 316        0.28431

 Excited State   5:      Singlet-A      3.5724 eV  347.06 nm  f=0.0000  <S**2>=0.000
     312 -> 313        0.70701

 The electronic state is 1-A.
 Alpha  occ. eigenvalues --  -46.95675 -46.94057 -19.31259 -19.30382 -19.24965
 Alpha  occ. eigenvalues --  -19.24596 -19.24453 -19.23680 -19.23663 -19.22316
 Alpha  occ. eigenvalues --  -14.46799 -14.46789 -14.46392 -14.46170 -14.44804
 Alpha  occ. eigenvalues --  -14.43887 -14.43629 -14.42972 -10.43463 -10.42077
 Alpha  occ. eigenvalues --  -10.40226 -10.39583 -10.38800 -10.37035 -10.35946
 Alpha  occ. eigenvalues --  -10.35352 -10.35308 -10.35261 -10.35168 -10.35092
 Alpha  occ. eigenvalues --  -10.35023 -10.34849 -10.34690 -10.34688 -10.34404
 Alpha  occ. eigenvalues --  -10.34350 -10.34001 -10.33238 -10.33030 -10.32961
 Alpha  occ. eigenvalues --  -10.32911 -10.32905 -10.32881 -10.32811 -10.32680
 Alpha  occ. eigenvalues --  -10.32508 -10.32448 -10.32340 -10.32135 -10.32114
 Alpha  occ. eigenvalues --  -10.32086 -10.31958 -10.31947 -10.31879 -10.31774
 Alpha  occ. eigenvalues --  -10.31579 -10.31556 -10.31371 -10.31339 -10.31307
 Alpha  occ. eigenvalues --  -10.31068 -10.31045 -10.31043 -10.30952 -10.30756
 Alpha  occ. eigenvalues --  -10.30633 -10.30539 -10.30508 -10.30411 -10.30291
 Alpha  occ. eigenvalues --  -10.30260 -10.30100 -10.30083 -10.30035 -10.29900
 Alpha  occ. eigenvalues --  -10.29857 -10.29698 -10.29688 -10.29550 -10.29541
 Alpha  occ. eigenvalues --  -10.29183 -10.29137 -10.28910 -10.28828 -10.28727
 Alpha  occ. eigenvalues --  -10.27486  -3.21478  -3.20175  -1.95057  -1.94582
 Alpha  occ. eigenvalues --   -1.94444  -1.93783  -1.93285  -1.93180  -1.19201
 Alpha  occ. eigenvalues --   -1.18104  -1.13902  -1.12581  -1.11471  -1.09949
 Alpha  occ. eigenvalues --   -1.09194  -1.09184  -1.07028  -1.06037  -1.05843
 Alpha  occ. eigenvalues --   -1.04973  -1.04861  -1.04592  -1.04301  -1.03331
 Alpha  occ. eigenvalues --   -0.94536  -0.93069  -0.91560  -0.90761  -0.90504
 Alpha  occ. eigenvalues --   -0.90362  -0.90233  -0.89952  -0.89841  -0.89405
 Alpha  occ. eigenvalues --   -0.89067  -0.88882  -0.88528  -0.87284  -0.86190
 Alpha  occ. eigenvalues --   -0.85819  -0.85572  -0.85366  -0.84465  -0.84371
 Alpha  occ. eigenvalues --   -0.84207  -0.83718  -0.83154  -0.82536  -0.82276
 Alpha  occ. eigenvalues --   -0.82260  -0.80861  -0.80119  -0.79373  -0.79280
 Alpha  occ. eigenvalues --   -0.78615  -0.78346  -0.77445  -0.77286  -0.76858
 Alpha  occ. eigenvalues --   -0.76786  -0.75028  -0.74058  -0.73333  -0.73318
 Alpha  occ. eigenvalues --   -0.71118  -0.70735  -0.70708  -0.69689  -0.69555
 Alpha  occ. eigenvalues --   -0.69317  -0.69272  -0.68219  -0.67315  -0.67108
 Alpha  occ. eigenvalues --   -0.66940  -0.66918  -0.66797  -0.66429  -0.66332
 Alpha  occ. eigenvalues --   -0.66191  -0.64369  -0.63936  -0.62776  -0.61863
 Alpha  occ. eigenvalues --   -0.61482  -0.61093  -0.60975  -0.60547  -0.60339
 Alpha  occ. eigenvalues --   -0.60118  -0.59647  -0.59287  -0.59221  -0.58930
 Alpha  occ. eigenvalues --   -0.58612  -0.57903  -0.57513  -0.57348  -0.57247
 Alpha  occ. eigenvalues --   -0.56942  -0.56297  -0.56149  -0.55869  -0.55809
 Alpha  occ. eigenvalues --   -0.55695  -0.55443  -0.55381  -0.55100  -0.54775
 Alpha  occ. eigenvalues --   -0.54525  -0.54498  -0.54453  -0.54420  -0.54296
 Alpha  occ. eigenvalues --   -0.54004  -0.53756  -0.53618  -0.53159  -0.53157
 Alpha  occ. eigenvalues --   -0.52971  -0.52634  -0.52394  -0.52284  -0.52206
 Alpha  occ. eigenvalues --   -0.52165  -0.52077  -0.51988  -0.51894  -0.51486
 Alpha  occ. eigenvalues --   -0.51378  -0.51146  -0.50945  -0.50782  -0.50556
 Alpha  occ. eigenvalues --   -0.50463  -0.50435  -0.50388  -0.50062  -0.49857
 Alpha  occ. eigenvalues --   -0.49749  -0.49684  -0.49505  -0.49405  -0.49259
 Alpha  occ. eigenvalues --   -0.49044  -0.48589  -0.48438  -0.48401  -0.48368
 Alpha  occ. eigenvalues --   -0.48255  -0.48050  -0.47949  -0.47902  -0.47663
 Alpha  occ. eigenvalues --   -0.47197  -0.47153  -0.46874  -0.46568  -0.46426
 Alpha  occ. eigenvalues --   -0.46422  -0.46347  -0.46330  -0.46194  -0.46173
 Alpha  occ. eigenvalues --   -0.45925  -0.45645  -0.45613  -0.45545  -0.45296
 Alpha  occ. eigenvalues --   -0.45105  -0.44925  -0.44901  -0.44849  -0.44674
 Alpha  occ. eigenvalues --   -0.44479  -0.44214  -0.44174  -0.43857  -0.43798
 Alpha  occ. eigenvalues --   -0.43733  -0.43486  -0.43298  -0.42964  -0.42930
 Alpha  occ. eigenvalues --   -0.42643  -0.42596  -0.42248  -0.42018  -0.41923
 Alpha  occ. eigenvalues --   -0.41612  -0.41566  -0.40669  -0.40665  -0.40350
 Alpha  occ. eigenvalues --   -0.40138  -0.39684  -0.39555  -0.39311  -0.39123
 Alpha  occ. eigenvalues --   -0.39073  -0.38878  -0.38830  -0.38391  -0.38263
 Alpha  occ. eigenvalues --   -0.37982  -0.36675  -0.36166  -0.35942  -0.35816
 Alpha  occ. eigenvalues --   -0.35727  -0.35096  -0.34905  -0.34260  -0.33847
 Alpha  occ. eigenvalues --   -0.33523  -0.33297  -0.33063  -0.32538  -0.32141
 Alpha  occ. eigenvalues --   -0.31615  -0.31369  -0.31243  -0.26110  -0.25995
 Alpha  occ. eigenvalues --   -0.22820  -0.21922
 Alpha virt. eigenvalues --   -0.06870  -0.05801  -0.00515   0.00286   0.02173
 Alpha virt. eigenvalues --    0.02591   0.04558   0.05024   0.05173   0.06513
 Alpha virt. eigenvalues --    0.07371   0.07871   0.08172   0.08495   0.08537

 Mulliken charges:
               1
     1  Mg   0.943251
     2  C    0.041811
     3  C   -0.129248
     4  C   -0.076116
     5  C   -0.077240
     6  N   -0.336234
     7  C   -0.017602
     8  C   -0.079518
     9  C   -0.155267
    10  C    0.135866
    11  C    0.022084
    12  C    0.093478
    13  C   -0.136577
    14  H    0.009320
    15  N   -0.446323
    16  C    0.165880
    17  C   -0.153279
    18  C   -0.107898
    19  C    0.164958
    20  C    0.056646
    21  C    0.032489
    22  O   -0.217463
    23  C    0.006196
    24  N   -0.392376
    25  C    0.060433
    26  C   -0.103407
    27  C   -0.058565
    28  C    0.088836
    29  C    0.029712
    30  C   -0.034581
    31  C   -0.028630
    32  N   -0.416684
    33  C    0.095841
    34  C   -0.195683
    35  C   -0.011644
    36  C    0.104993
    37  C    0.074990
    38  C    0.122740
    39  O   -0.234880
    40  C   -0.139176
    41  C    0.281259
    42  O   -0.274915
    43  O   -0.340574
    44  C    0.131669
    45  H   -0.010071
    46  H    0.029122
    47  H   -0.008321
    48  H    0.017121
    49  H    0.025375
    50  H    0.050665
    51  H    0.035029
    52  H    0.035580
    53  H    0.016211
    54  H    0.073799
    55  H    0.051768
    56  H    0.043125
    57  H    0.051705
    58  H    0.037566
    59  H    0.072526
    60  H    0.061992
    61  H    0.066333
    62  H    0.055515
    63  H    0.043095
    64  H    0.031376
    65  H    0.039675
    66  H    0.045795
    67  H    0.038451
    68  H    0.026967
    69  H    0.028263
    70  H    0.044964
    71  H    0.030301
    72  H    0.041707
    73  H    0.062964
    74  H    0.057726
    75  H    0.033453
    76  H    0.089895
    77  H    0.070294
    78  H    0.052299
    79  H    0.059164
    80  Mg   0.983356
    81  C    0.006807
    82  C   -0.113577
    83  C   -0.075820
    84  C   -0.074206
    85  N   -0.350878
    86  C   -0.049206
    87  C   -0.050195
    88  C   -0.097917
    89  C    0.098303
    90  C    0.023315
    91  C    0.001647
    92  C   -0.114910
    93  H    0.031834
    94  N   -0.466480
    95  C    0.153948
    96  C   -0.174334
    97  C   -0.070237
    98  C    0.137867
    99  C    0.077770
   100  C    0.062728
   101  O   -0.243576
   102  C   -0.045453
   103  N   -0.389759
   104  C    0.116056
   105  C   -0.106891
   106  C   -0.048757
   107  C    0.073262
   108  C    0.009969
   109  C    0.001447
   110  C   -0.071396
   111  N   -0.413939
   112  C    0.082211
   113  C   -0.193326
   114  C   -0.037874
   115  C    0.139038
   116  C    0.088193
   117  C    0.083270
   118  O   -0.205107
   119  C   -0.074163
   120  C    0.226044
   121  O   -0.256888
   122  O   -0.333857
   123  C    0.142518
   124  H   -0.000157
   125  H    0.028337
   126  H   -0.007995
   127  H    0.049774
   128  H    0.040021
   129  H    0.051972
   130  H    0.043525
   131  H    0.040132
   132  H    0.030974
   133  H    0.043427
   134  H    0.042795
   135  H    0.062770
   136  H    0.053173
   137  H    0.041040
   138  H    0.058390
   139  H    0.058510
   140  H    0.065419
   141  H    0.052846
   142  H    0.043205
   143  H    0.032324
   144  H    0.027589
   145  H    0.060820
   146  H    0.025874
   147  H    0.049436
   148  H    0.028124
   149  H    0.020798
   150  H    0.037509
   151  H    0.045727
   152  H    0.054383
   153  H    0.052792
   154  H    0.061643
   155  H    0.067191
   156  H    0.054677
   157  H    0.045049
   158  H    0.057068
 Sum of Mulliken charges =  -0.00000

 Dipole moment (field-independent basis, Debye):
    X=              2.0544    Y=             -0.6606    Z=              1.1617  Tot=              2.4508
 Quadrupole moment (field-independent basis, Debye-Ang):
   XX=           -292.1152   YY=           -464.6888   ZZ=           -522.4857
   XY=            -21.3187   XZ=            -65.4873   YZ=             -9.4262

 Normal termination of Gaussian 16 at Sun Sep 19 14:37:12 2021.
