 Gaussian 16, Revision A.03,
 Gaussian 16:  ES64L-G16RevA.03 25-Dec-2016

 --------------------------------
 #p wB97XD/Def2SVP td=(nstates=5)
 --------------------------------

 --------------------------------
 TDDFT excited states in gaussian
 --------------------------------
 Symbolic Z-matrix:
 Charge =  0 Multiplicity = 1

                         Standard orientation:
 ---------------------------------------------------------------------
 Center     Atomic      Atomic             Coordinates (Angstroms)
 Number     Number       Type             X           Y           Z
 ---------------------------------------------------------------------
      1         12           0       26.682283    0.514102    0.028505
      2          6           0       24.733584   -2.038908   -1.454436
      3          6           0       27.074447   -1.477073    2.608160
      4          6           0       27.533158    3.243009    1.690161
      5          6           0       25.475042    2.607085   -2.577327
      6          7           0       26.067772   -1.640292    0.363826
      7          6           0       25.400610   -2.480685   -0.339685
      8          6           0       25.511485   -3.901961    0.249529
      9          6           0       25.855537   -3.624320    1.800681
     10          6           0       26.304466   -2.113514    1.630074
     11          6           0       24.671599   -3.805896    2.830975
     12          6           0       26.730653   -4.713317   -0.436193
     13          6           0       26.641757   -6.261501   -0.632034
     14          1           0       25.763399   -7.044566    0.412069
     15          7           0       27.430011    0.813259    1.835254
     16          6           0       27.567631   -0.208225    2.763036
     17          6           0       28.183952    0.367649    4.009939
     18          6           0       28.349422    1.782601    3.702696
     19          6           0       27.780385    2.081688    2.385811
     20          6           0       28.441378   -0.494979    5.231013
     21          6           0       29.001868    2.832482    4.574942
     22          8           0       29.081635    4.035195    4.288727
     23          6           0       29.625751    2.411034    5.843262
     24          7           0       26.616697    2.696116   -0.447582
     25          6           0       26.997930    3.570803    0.465639
     26          6           0       27.163803    5.011596   -0.193947
     27          6           0       26.434043    4.753142   -1.621441
     28          6           0       26.190501    3.247440   -1.564714
     29          6           0       26.574987    6.175677    0.669650
     30          6           0       27.198355    5.164588   -2.922436
     31          6           0       26.640302    6.324724   -3.706078
     32          7           0       25.539215    0.330208   -1.823823
     33          6           0       25.162207    1.295321   -2.736407
     34          6           0       24.294052    0.742622   -3.690348
     35          6           0       24.068216   -0.556446   -3.197184
     36          6           0       24.796735   -0.785499   -2.053986
     37          6           0       23.702477    1.384182   -4.842581
     38          6           0       23.400216   -1.748798   -3.549667
     39          8           0       22.718942   -2.147661   -4.533006
     40          6           0       23.590912   -2.684240   -2.272323
     41          6           0       23.860471   -4.082306   -2.693149
     42          8           0       24.822557   -4.507270   -3.329483
     43          8           0       22.836214   -4.898786   -2.117959
     44          6           0       22.886618   -6.337810   -2.406144
     45          1           0       27.294344   -2.219708    3.378514
     46          1           0       27.876201    4.127321    2.230049
     47          1           0       25.173884    3.238928   -3.416292
     48          1           0       24.500849   -4.307016    0.293952
     49          1           0       26.578506   -4.371228    2.126825
     50          1           0       23.705764   -3.883309    2.332170
     51          1           0       24.573483   -2.940903    3.486684
     52          1           0       24.892143   -4.724615    3.374386
     53          1           0       27.672993   -4.496456    0.067108
     54          1           0       26.916767   -4.272055   -1.415552
     55          1           0       27.610364   -6.762183   -0.616232
     56          1           0       26.048599   -6.425986   -1.532452
     57          1           0       29.426918   -0.314240    5.661637
     58          1           0       28.345767   -1.562129    5.030518
     59          1           0       27.618145   -0.375775    5.934981
     60          1           0       28.901113    1.921680    6.494668
     61          1           0       30.049390    3.277015    6.351983
     62          1           0       30.473684    1.732606    5.749185
     63          1           0       28.201111    5.248686   -0.430061
     64          1           0       25.408450    5.125074   -1.631422
     65          1           0       26.056014    5.776528    1.541299
     66          1           0       25.994953    6.709956   -0.083089
     67          1           0       27.403948    6.843307    0.900993
     68          1           0       27.187480    4.302202   -3.589340
     69          1           0       28.242691    5.363579   -2.681051
     70          1           0       25.872155    6.724234   -3.045256
     71          1           0       26.147658    5.920112   -4.590972
     72          1           0       27.370088    7.110729   -3.896281
     73          1           0       24.518961    1.847328   -5.395971
     74          1           0       23.115096    2.280204   -4.641799
     75          1           0       23.212263    0.636713   -5.466622
     76          1           0       22.674765   -2.641403   -1.682442
     77          1           0       22.013866   -6.844787   -1.993758
     78          1           0       23.701884   -6.776154   -1.830261
     79          1           0       22.874341   -6.486886   -3.485316
     80         12           0      -26.455940    0.563341   -0.157323
     81          6           0      -24.384303   -1.693572    1.548382
     82          6           0      -27.831395   -2.115396   -1.826665
     83          6           0      -28.373021    2.710112   -1.772208
     84          6           0      -24.826291    3.180622    1.526951
     85          7           0      -26.161280   -1.628851   -0.035247
     86          6           0      -25.247746   -2.373588    0.710967
     87          6           0      -25.560990   -3.921329    0.716897
     88          6           0      -26.523882   -3.966551   -0.453786
     89          6           0      -26.885686   -2.465538   -0.809879
     90          6           0      -25.818768   -4.595152   -1.741782
     91          6           0      -26.334938   -4.152777    2.090017
     92          6           0      -25.968271   -5.462732    2.916863
     93          1           0      -25.612386   -6.578539    1.967975
     94          7           0      -27.756009    0.334989   -1.661858
     95          6           0      -28.189823   -0.792619   -2.218104
     96          6           0      -29.197808   -0.564535   -3.219413
     97          6           0      -29.516339    0.803627   -3.110551
     98          6           0      -28.476689    1.377346   -2.175497
     99          6           0      -29.812072   -1.595024   -4.094328
    100          6           0      -30.676758    1.591476   -3.682731
    101          8           0      -30.969758    2.729549   -3.298878
    102          6           0      -31.476316    1.026436   -4.860028
    103          7           0      -26.530731    2.683812   -0.144828
    104          6           0      -27.512339    3.286819   -0.895350
    105          6           0      -27.536926    4.774650   -0.551655
    106          6           0      -26.455739    4.933371    0.625269
    107          6           0      -25.925637    3.528884    0.746703
    108          6           0      -27.328344    5.625521   -1.854013
    109          6           0      -26.944515    5.537424    1.932413
    110          6           0      -26.081888    6.738846    2.431043
    111          7           0      -24.910045    0.719618    1.226751
    112          6           0      -24.325093    1.880562    1.823135
    113          6           0      -23.263483    1.509314    2.688955
    114          6           0      -23.268867    0.107049    2.600340
    115          6           0      -24.247958   -0.293113    1.667445
    116          6           0      -22.368197    2.341995    3.548922
    117          6           0      -22.655955   -1.091130    3.077489
    118          8           0      -21.736981   -1.298280    3.834668
    119          6           0      -23.443730   -2.293749    2.485128
    120          6           0      -22.477079   -3.277818    1.933629
    121          8           0      -21.782152   -3.163436    0.927932
    122          8           0      -22.540364   -4.360680    2.714526
    123          6           0      -21.738063   -5.500250    2.322035
    124          1           0      -28.442926   -2.871715   -2.322855
    125          1           0      -29.028363    3.368390   -2.348074
    126          1           0      -24.335208    3.956633    2.117907
    127          1           0      -24.584219   -4.403836    0.732756
    128          1           0      -27.431050   -4.501394   -0.174553
    129          1           0      -24.774927   -4.852241   -1.560700
    130          1           0      -25.869637   -3.865048   -2.549303
    131          1           0      -26.427125   -5.469371   -1.973870
    132          1           0      -27.416218   -4.213467    1.970119
    133          1           0      -26.158732   -3.259188    2.689379
    134          1           0      -26.857517   -5.876778    3.392304
    135          1           0      -25.329157   -5.232084    3.769567
    136          1           0      -30.851071   -1.691367   -3.776279
    137          1           0      -29.334812   -2.565149   -3.963015
    138          1           0      -29.784510   -1.336655   -5.152489
    139          1           0      -31.930195    1.946468   -5.227599
    140          1           0      -32.200819    0.261704   -4.577583
    141          1           0      -30.912359    0.659941   -5.717568
    142          1           0      -28.481674    5.153642   -0.161995
    143          1           0      -25.639645    5.555338    0.257278
    144          1           0      -28.080317    6.413579   -1.812451
    145          1           0      -27.381217    5.045728   -2.775558
    146          1           0      -26.434815    6.246654   -1.781264
    147          1           0      -27.028767    4.824397    2.751931
    148          1           0      -27.887040    6.015741    1.662302
    149          1           0      -25.336697    7.014486    1.684665
    150          1           0      -25.442231    6.455593    3.266685
    151          1           0      -26.702201    7.607839    2.651469
    152          1           0      -23.045998    2.611934    4.359221
    153          1           0      -21.995658    3.148984    2.918366
    154          1           0      -21.558019    1.763800    3.990993
    155          1           0      -23.871697   -2.766825    3.369958
    156          1           0      -20.698258   -5.197447    2.195546
    157          1           0      -21.975152   -5.961202    1.362581
    158          1           0      -21.821536   -6.221804    3.134943
 ---------------------------------------------------------------------

 SCF Done:  E(RwB97XD) =  -4070.60073248     A.U. after   19 cycles

 Excitation energies and oscillator strengths:

 Excited State   1:      Singlet-A      1.6810 eV  737.57 nm  f=0.3818  <S**2>=0.000
     310 -> 316        0.16571
     312 -> 314        0.68559
     310 <- 316        0.10525
 This state for optimization and/or second-order correction.
 Total Energy, E(TD-HF/TD-DFT) =  -4070.53895752
 Copying the excited state density for this state as the 1-particle RhoCI density.

 Excited State   2:      Singlet-A      1.7434 eV  711.16 nm  f=0.3635  <S**2>=0.000
     309 -> 315       -0.21777
     311 -> 313        0.67306
     309 <- 315       -0.11925

 Excited State   3:      Singlet-A      2.1694 eV  571.50 nm  f=0.0784  <S**2>=0.000
     309 -> 313        0.62752
     311 -> 315        0.30971

 Excited State   4:      Singlet-A      2.2342 eV  554.93 nm  f=0.1201  <S**2>=0.000
     310 -> 314        0.63518
     312 -> 316       -0.28431

 Excited State   5:      Singlet-A      3.3073 eV  374.88 nm  f=0.0359  <S**2>=0.000
     305 -> 313       -0.13234
     307 -> 313        0.60484
     311 -> 315        0.28143

 The electronic state is 1-A.
 Alpha  occ. eigenvalues --  -46.95717 -46.94101 -19.30430 -19.29168 -19.25137
 Alpha  occ. eigenvalues --  -19.25000 -19.24019 -19.23709 -19.23519 -19.22364
 Alpha  occ. eigenvalues --  -14.46837 -14.46705 -14.46284 -14.46211 -14.44843
 Alpha  occ. eigenvalues --  -14.44599 -14.43165 -14.43014 -10.43148 -10.42123
 Alpha  occ. eigenvalues --  -10.40261 -10.39076 -10.38513 -10.37082 -10.35988
 Alpha  occ. eigenvalues --  -10.35568 -10.35134 -10.35070 -10.35014 -10.34819
 Alpha  occ. eigenvalues --  -10.34791 -10.34732 -10.34730 -10.34688 -10.34622
 Alpha  occ. eigenvalues --  -10.34444 -10.34426 -10.34271 -10.34041 -10.33302
 Alpha  occ. eigenvalues --  -10.33278 -10.32953 -10.32851 -10.32744 -10.32709
 Alpha  occ. eigenvalues --  -10.32546 -10.32500 -10.32490 -10.32381 -10.32370
 Alpha  occ. eigenvalues --  -10.32351 -10.32153 -10.31954 -10.31870 -10.31808
 Alpha  occ. eigenvalues --  -10.31645 -10.31644 -10.31620 -10.31594 -10.31565
 Alpha  occ. eigenvalues --  -10.31453 -10.31413 -10.31110 -10.31088 -10.31084
 Alpha  occ. eigenvalues --  -10.30996 -10.30673 -10.30581 -10.30538 -10.30393
 Alpha  occ. eigenvalues --  -10.30224 -10.30156 -10.30146 -10.30123 -10.30054
 Alpha  occ. eigenvalues --  -10.29939 -10.29894 -10.29783 -10.29677 -10.29656
 Alpha  occ. eigenvalues --  -10.29602 -10.29574 -10.29224 -10.29207 -10.28659
 Alpha  occ. eigenvalues --  -10.27528  -3.21629  -3.20219  -1.95220  -1.94760
 Alpha  occ. eigenvalues --   -1.94577  -1.93826  -1.93329  -1.93223  -1.19248
 Alpha  occ. eigenvalues --   -1.16098  -1.12616  -1.11621  -1.11519  -1.09496
 Alpha  occ. eigenvalues --   -1.09230  -1.08921  -1.07781  -1.07205  -1.07068
 Alpha  occ. eigenvalues --   -1.05885  -1.05540  -1.04902  -1.04342  -1.03501
 Alpha  occ. eigenvalues --   -0.94942  -0.94580  -0.91600  -0.91413  -0.90508
 Alpha  occ. eigenvalues --   -0.90401  -0.90275  -0.89881  -0.89789  -0.89472
 Alpha  occ. eigenvalues --   -0.89256  -0.88925  -0.88845  -0.88570  -0.86205
 Alpha  occ. eigenvalues --   -0.85862  -0.85859  -0.85407  -0.84635  -0.84245
 Alpha  occ. eigenvalues --   -0.83942  -0.83757  -0.83437  -0.83196  -0.82620
 Alpha  occ. eigenvalues --   -0.82301  -0.80929  -0.80899  -0.79640  -0.79321
 Alpha  occ. eigenvalues --   -0.78879  -0.78658  -0.77816  -0.77488  -0.77159
 Alpha  occ. eigenvalues --   -0.76897  -0.75212  -0.75070  -0.74236  -0.73374
 Alpha  occ. eigenvalues --   -0.71158  -0.70930  -0.70776  -0.70496  -0.69881
 Alpha  occ. eigenvalues --   -0.69595  -0.69316  -0.69195  -0.67879  -0.67570
 Alpha  occ. eigenvalues --   -0.67544  -0.67356  -0.67149  -0.66981  -0.66585
 Alpha  occ. eigenvalues --   -0.66471  -0.64413  -0.63247  -0.62814  -0.62535
 Alpha  occ. eigenvalues --   -0.62112  -0.61523  -0.61287  -0.61135  -0.60588
 Alpha  occ. eigenvalues --   -0.60341  -0.59713  -0.59691  -0.59285  -0.59263
 Alpha  occ. eigenvalues --   -0.58954  -0.58651  -0.57746  -0.57558  -0.57398
 Alpha  occ. eigenvalues --   -0.57288  -0.56342  -0.56298  -0.55735  -0.55729
 Alpha  occ. eigenvalues --   -0.55482  -0.55460  -0.55137  -0.55104  -0.54874
 Alpha  occ. eigenvalues --   -0.54545  -0.54538  -0.54463  -0.54390  -0.54174
 Alpha  occ. eigenvalues --   -0.54043  -0.53661  -0.53447  -0.53202  -0.53072
 Alpha  occ. eigenvalues --   -0.53008  -0.52833  -0.52675  -0.52496  -0.52325
 Alpha  occ. eigenvalues --   -0.52254  -0.52204  -0.51935  -0.51824  -0.51529
 Alpha  occ. eigenvalues --   -0.51485  -0.51186  -0.51097  -0.50728  -0.50606
 Alpha  occ. eigenvalues --   -0.50597  -0.50475  -0.50428  -0.50300  -0.49945
 Alpha  occ. eigenvalues --   -0.49791  -0.49717  -0.49552  -0.49545  -0.49444
 Alpha  occ. eigenvalues --   -0.49234  -0.49084  -0.48994  -0.48716  -0.48632
 Alpha  occ. eigenvalues --   -0.48443  -0.48296  -0.48235  -0.48043  -0.47990
 Alpha  occ. eigenvalues --   -0.47512  -0.47282  -0.47195  -0.46918  -0.46859
 Alpha  occ. eigenvalues --   -0.46609  -0.46464  -0.46371  -0.46217  -0.46178
 Alpha  occ. eigenvalues --   -0.45889  -0.45840  -0.45648  -0.45584  -0.45486
 Alpha  occ. eigenvalues --   -0.45230  -0.44968  -0.44908  -0.44884  -0.44542
 Alpha  occ. eigenvalues --   -0.44525  -0.44258  -0.43877  -0.43843  -0.43607
 Alpha  occ. eigenvalues --   -0.43564  -0.43529  -0.43102  -0.43004  -0.42938
 Alpha  occ. eigenvalues --   -0.42685  -0.42647  -0.42522  -0.42287  -0.42225
 Alpha  occ. eigenvalues --   -0.41965  -0.41963  -0.41607  -0.40941  -0.40708
 Alpha  occ. eigenvalues --   -0.40411  -0.40177  -0.39897  -0.39598  -0.39396
 Alpha  occ. eigenvalues --   -0.39352  -0.38871  -0.38434  -0.38385  -0.38307
 Alpha  occ. eigenvalues --   -0.38084  -0.37600  -0.36571  -0.36208  -0.35883
 Alpha  occ. eigenvalues --   -0.35859  -0.35626  -0.34948  -0.34296  -0.34004
 Alpha  occ. eigenvalues --   -0.33561  -0.33216  -0.33103  -0.32607  -0.32298
 Alpha  occ. eigenvalues --   -0.31661  -0.31455  -0.31289  -0.26080  -0.26036
 Alpha  occ. eigenvalues --   -0.23481  -0.22861
 Alpha virt. eigenvalues --   -0.06954  -0.06910  -0.00723   0.00247   0.01829
 Alpha virt. eigenvalues --    0.02552   0.04368   0.04980   0.05443   0.06470
 Alpha virt. eigenvalues --    0.06754   0.07873   0.08131   0.08138   0.08451

 Mulliken charges:
               1
     1  Mg   0.950824
     2  C   -0.001636
     3  C   -0.092566
     4  C   -0.057199
     5  C   -0.097662
     6  N   -0.289470
     7  C   -0.079802
     8  C   -0.022127
     9  C   -0.152219
    10  C    0.044851
    11  C    0.020223
    12  C    0.019304
    13  C   -0.121924
    14  H   -0.003160
    15  N   -0.573594
    16  C    0.230594
    17  C   -0.157442
    18  C   -0.064120
    19  C    0.176523
    20  C    0.067733
    21  C    0.057158
    22  O   -0.243294
    23  C   -0.029520
    24  N   -0.281941
    25  C    0.040537
    26  C   -0.118729
    27  C   -0.082440
    28  C    0.023025
    29  C    0.039327
    30  C   -0.018065
    31  C   -0.035011
    32  N   -0.420927
    33  C    0.154566
    34  C   -0.152065
    35  C   -0.029520
    36  C    0.146332
    37  C    0.092506
    38  C    0.133251
    39  O   -0.250625
    40  C   -0.095363
    41  C    0.288836
    42  O   -0.246530
    43  O   -0.409242
    44  C    0.146562
    45  H   -0.006528
    46  H    0.019240
    47  H   -0.015427
    48  H    0.025057
    49  H    0.044097
    50  H    0.036972
    51  H    0.039624
    52  H    0.044099
    53  H    0.028262
    54  H    0.057678
    55  H    0.065745
    56  H    0.078825
    57  H    0.055728
    58  H    0.031525
    59  H    0.060667
    60  H    0.053898
    61  H    0.050858
    62  H    0.060037
    63  H    0.047698
    64  H    0.033948
    65  H    0.061772
    66  H    0.029002
    67  H    0.039246
    68  H    0.034192
    69  H    0.025046
    70  H    0.022704
    71  H    0.040442
    72  H    0.046548
    73  H    0.029869
    74  H    0.045581
    75  H    0.071967
    76  H    0.082501
    77  H    0.044152
    78  H    0.042319
    79  H    0.066698
    80  Mg   0.983772
    81  C    0.006654
    82  C   -0.113479
    83  C   -0.075946
    84  C   -0.074247
    85  N   -0.350912
    86  C   -0.049153
    87  C   -0.050167
    88  C   -0.097912
    89  C    0.098136
    90  C    0.023307
    91  C    0.001661
    92  C   -0.114915
    93  H    0.031936
    94  N   -0.466529
    95  C    0.154083
    96  C   -0.174241
    97  C   -0.070216
    98  C    0.137943
    99  C    0.077784
   100  C    0.062754
   101  O   -0.243546
   102  C   -0.045467
   103  N   -0.390009
   104  C    0.116302
   105  C   -0.106916
   106  C   -0.048741
   107  C    0.073252
   108  C    0.009938
   109  C    0.001440
   110  C   -0.071387
   111  N   -0.414121
   112  C    0.082226
   113  C   -0.193363
   114  C   -0.037938
   115  C    0.139041
   116  C    0.088162
   117  C    0.083174
   118  O   -0.205367
   119  C   -0.073993
   120  C    0.225950
   121  O   -0.256784
   122  O   -0.333913
   123  C    0.142512
   124  H   -0.000069
   125  H    0.028420
   126  H   -0.008052
   127  H    0.049772
   128  H    0.040030
   129  H    0.052004
   130  H    0.043585
   131  H    0.040176
   132  H    0.030983
   133  H    0.043321
   134  H    0.042766
   135  H    0.062645
   136  H    0.053202
   137  H    0.041055
   138  H    0.058487
   139  H    0.058578
   140  H    0.065442
   141  H    0.052902
   142  H    0.043213
   143  H    0.032381
   144  H    0.027644
   145  H    0.060870
   146  H    0.025936
   147  H    0.049333
   148  H    0.028154
   149  H    0.020876
   150  H    0.037403
   151  H    0.045748
   152  H    0.054220
   153  H    0.052878
   154  H    0.061478
   155  H    0.067055
   156  H    0.054669
   157  H    0.045156
   158  H    0.056978
 Sum of Mulliken charges =  -0.00000

 Dipole moment (field-independent basis, Debye):
    X=             -3.1092    Y=             -1.3806    Z=              2.0898  Tot=              3.9926
 Quadrupole moment (field-independent basis, Debye-Ang):
   XX=           -163.3165   YY=           -462.5470   ZZ=           -511.5082
   XY=             47.0405   XZ=            152.5146   YZ=            -27.3798

 Normal termination of Gaussian 16 at Sun Sep 19 01:02:38 2021.
