 Gaussian 16, Revision A.03,
 Gaussian 16:  ES64L-G16RevA.03 25-Dec-2016

 --------------------------------
 #p wB97XD/Def2SVP td=(nstates=5)
 --------------------------------

 --------------------------------
 TDDFT excited states in gaussian
 --------------------------------
 Symbolic Z-matrix:
 Charge =  0 Multiplicity = 1

                         Standard orientation:
 ---------------------------------------------------------------------
 Center     Atomic      Atomic             Coordinates (Angstroms)
 Number     Number       Type             X           Y           Z
 ---------------------------------------------------------------------
      1         12           0      -21.915060   -0.691922   -0.337958
      2          6           0      -23.828946    1.857398    1.289992
      3          6           0      -20.818929    1.715573   -2.493307
      4          6           0      -20.580523   -2.995576   -2.060982
      5          6           0      -24.000659   -3.027892    1.191481
      6          7           0      -22.339913    1.476024   -0.479934
      7          6           0      -23.044069    2.342523    0.241533
      8          6           0      -22.810633    3.825886   -0.173818
      9          6           0      -22.329092    3.593903   -1.675916
     10          6           0      -21.762969    2.191843   -1.535712
     11          6           0      -23.472877    3.563185   -2.684536
     12          6           0      -21.697437    4.515524    0.684625
     13          6           0      -21.634060    6.041256    0.568525
     14          1           0      -21.283221    6.819275    1.747061
     15          7           0      -20.494266   -0.607762   -1.708035
     16          6           0      -20.175417    0.459160   -2.479590
     17          6           0      -19.054027    0.020748   -3.338054
     18          6           0      -18.872249   -1.443643   -3.136535
     19          6           0      -20.006568   -1.749711   -2.302856
     20          6           0      -18.255048    0.958189   -4.190454
     21          6           0      -17.845933   -2.415183   -3.627371
     22          8           0      -18.003181   -3.679917   -3.525914
     23          6           0      -16.676796   -1.842390   -4.318798
     24          7           0      -22.371239   -2.711406   -0.604831
     25          6           0      -21.597681   -3.499740   -1.359231
     26          6           0      -21.950268   -4.946286   -1.177222
     27          6           0      -22.971000   -5.001533    0.049484
     28          6           0      -23.096396   -3.482008    0.320760
     29          6           0      -22.576950   -5.640639   -2.394248
     30          6           0      -22.601187   -5.933575    1.230566
     31          6           0      -21.376688   -5.401062    1.940588
     32          7           0      -23.503153   -0.642953    1.140760
     33          6           0      -24.249061   -1.732434    1.613334
     34          6           0      -25.278210   -1.190744    2.519696
     35          6           0      -25.068683    0.186750    2.498373
     36          6           0      -23.994674    0.488819    1.613189
     37          6           0      -26.282015   -1.946477    3.187287
     38          6           0      -25.518206    1.475813    2.998473
     39          8           0      -26.330738    1.840316    3.849604
     40          6           0      -24.813088    2.618809    2.142789
     41          6           0      -24.267820    3.637183    3.106587
     42          8           0      -23.331173    3.349363    3.879386
     43          8           0      -24.766862    4.845884    2.805689
     44          6           0      -24.242737    5.907286    3.706173
     45          1           0      -20.594160    2.333081   -3.365146
     46          1           0      -20.077799   -3.831754   -2.551401
     47          1           0      -24.632597   -3.704006    1.770253
     48          1           0      -23.706074    4.447548   -0.161736
     49          1           0      -21.543865    4.292564   -1.964035
     50          1           0      -24.442790    3.576914   -2.187544
     51          1           0      -23.344101    2.635489   -3.242470
     52          1           0      -23.368747    4.367808   -3.412902
     53          1           0      -20.719225    4.257783    0.278754
     54          1           0      -21.792443    4.237510    1.734867
     55          1           0      -22.532573    6.442935    0.099231
     56          1           0      -20.830148    6.298189   -0.121337
     57          1           0      -18.726968    1.937506   -4.259559
     58          1           0      -18.286864    0.568933   -5.207890
     59          1           0      -17.219636    1.033762   -3.857974
     60          1           0      -17.014222   -1.274076   -5.185810
     61          1           0      -16.007168   -2.677891   -4.519761
     62          1           0      -16.188965   -1.128064   -3.654940
     63          1           0      -21.067548   -5.536372   -0.934260
     64          1           0      -23.960816   -5.340657   -0.257000
     65          1           0      -22.029253   -6.523510   -2.724811
     66          1           0      -22.657429   -4.907366   -3.196199
     67          1           0      -23.617805   -5.936565   -2.265929
     68          1           0      -22.352133   -6.928998    0.864438
     69          1           0      -23.402420   -6.040072    1.961958
     70          1           0      -20.557077   -5.791426    1.338355
     71          1           0      -21.330285   -5.786334    2.959717
     72          1           0      -21.328814   -4.313112    1.889985
     73          1           0      -26.326515   -1.561685    4.206072
     74          1           0      -26.049440   -3.011080    3.175756
     75          1           0      -27.154542   -1.703088    2.581223
     76          1           0      -25.578314    3.040079    1.491572
     77          1           0      -25.104323    6.402177    4.154489
     78          1           0      -23.565158    6.515501    3.106702
     79          1           0      -23.714725    5.566010    4.597281
     80         12           0       22.115780   -0.494365    0.468904
     81          6           0       21.748319    2.232276   -1.572164
     82          6           0       22.487747    1.519050    3.116010
     83          6           0       22.701475   -3.263457    2.299819
     84          6           0       22.226433   -2.584531   -2.504013
     85          7           0       22.382846    1.696679    0.668608
     86          6           0       22.081874    2.616782   -0.255723
     87          6           0       22.139229    4.100543    0.377410
     88          6           0       22.373912    3.738623    1.891649
     89          6           0       22.468673    2.200047    1.931602
     90          6           0       23.552502    4.495657    2.534123
     91          6           0       20.853366    4.939150    0.129202
     92          6           0       20.635547    6.232321    0.980776
     93          1           0       20.912608    7.620299    0.287923
     94          7           0       22.589008   -0.822570    2.449636
     95          6           0       22.596377    0.097527    3.391622
     96          6           0       22.849572   -0.549009    4.670319
     97          6           0       23.032340   -1.951502    4.478278
     98          6           0       22.768097   -2.067729    3.027269
     99          6           0       23.067787    0.166762    5.993083
    100          6           0       23.436780   -3.046941    5.459359
    101          8           0       23.828043   -4.140404    5.061514
    102          6           0       23.353767   -2.766505    6.919016
    103          7           0       22.466017   -2.623465   -0.049375
    104          6           0       22.631989   -3.545302    0.891630
    105          6           0       22.605978   -4.970681    0.315331
    106          6           0       22.246279   -4.683773   -1.140144
    107          6           0       22.355287   -3.207549   -1.232947
    108          6           0       23.852245   -5.848223    0.504528
    109          6           0       20.992191   -5.374550   -1.612841
    110          6           0       21.172099   -6.427924   -2.763522
    111          7           0       21.964367   -0.279238   -1.558493
    112          6           0       21.939815   -1.204621   -2.655329
    113          6           0       21.639364   -0.531798   -3.899955
    114          6           0       21.549057    0.817888   -3.459279
    115          6           0       21.759907    0.901583   -2.077210
    116          6           0       21.323585   -1.056573   -5.256126
    117          6           0       21.123314    2.096269   -3.970552
    118          8           0       20.604096    2.474485   -5.031316
    119          6           0       21.335704    3.107343   -2.871699
    120          6           0       22.550310    3.985284   -3.245647
    121          8           0       23.630074    3.616355   -3.732501
    122          8           0       22.235648    5.274955   -2.935352
    123          6           0       23.250103    6.332564   -3.242418
    124          1           0       22.500944    2.052864    4.068557
    125          1           0       23.077755   -4.173878    2.770996
    126          1           0       22.134676   -3.288903   -3.332729
    127          1           0       23.030530    4.537606   -0.071303
    128          1           0       21.460066    3.986434    2.431581
    129          1           0       23.220465    4.817156    3.520687
    130          1           0       23.806932    5.399684    1.980752
    131          1           0       24.430337    3.854280    2.613444
    132          1           0       20.034679    4.307886    0.474646
    133          1           0       20.804080    5.244438   -0.915949
    134          1           0       21.383981    6.215741    1.773700
    135          1           0       19.600443    6.255678    1.319785
    136          1           0       22.976107    1.247035    5.880586
    137          1           0       24.065550   -0.057737    6.369354
    138          1           0       22.356894   -0.157274    6.752111
    139          1           0       22.358630   -2.347648    7.071155
    140          1           0       24.039887   -2.095646    7.435122
    141          1           0       23.461660   -3.663388    7.528031
    142          1           0       21.783149   -5.502195    0.792178
    143          1           0       23.043848   -5.099766   -1.755465
    144          1           0       23.446694   -6.838621    0.709786
    145          1           0       24.495708   -5.439029    1.283248
    146          1           0       24.539016   -5.842912   -0.341828
    147          1           0       20.410919   -4.569243   -2.060829
    148          1           0       20.449895   -5.887634   -0.819160
    149          1           0       22.218631   -6.474065   -3.065935
    150          1           0       20.589088   -6.076487   -3.615363
    151          1           0       20.767968   -7.419313   -2.558258
    152          1           0       21.198368   -2.138430   -5.219905
    153          1           0       22.230378   -0.899840   -5.839164
    154          1           0       20.413210   -0.532675   -5.550976
    155          1           0       20.408341    3.680217   -2.855185
    156          1           0       24.269837    6.100852   -2.933952
    157          1           0       22.993276    7.323935   -2.870620
    158          1           0       23.301241    6.373831   -4.330303
 ---------------------------------------------------------------------

 SCF Done:  E(RwB97XD) =  -4070.61522033     A.U. after   19 cycles

 Excitation energies and oscillator strengths:

 Excited State   1:      Singlet-A      1.6215 eV  764.61 nm  f=0.3816  <S**2>=0.000
     309 -> 316        0.18178
     312 -> 313        0.68326
     309 <- 316        0.11454
 This state for optimization and/or second-order correction.
 Total Energy, E(TD-HF/TD-DFT) =  -4070.55563018
 Copying the excited state density for this state as the 1-particle RhoCI density.

 Excited State   2:      Singlet-A      1.6636 eV  745.29 nm  f=0.4050  <S**2>=0.000
     310 -> 315       -0.18169
     311 -> 314        0.68160
     310 <- 315       -0.11253

 Excited State   3:      Singlet-A      2.1385 eV  579.77 nm  f=0.0952  <S**2>=0.000
     309 -> 313        0.63836
     312 -> 316       -0.28191

 Excited State   4:      Singlet-A      2.2222 eV  557.92 nm  f=0.1094  <S**2>=0.000
     310 -> 314        0.63693
     311 -> 315        0.28926

 Excited State   5:      Singlet-A      3.3013 eV  375.56 nm  f=0.0077  <S**2>=0.000
     307 -> 313       -0.44232
     308 -> 313        0.48826
     312 -> 316       -0.17004

 The electronic state is 1-A.
 Alpha  occ. eigenvalues --  -46.95541 -46.94117 -19.31488 -19.30843 -19.24584
 Alpha  occ. eigenvalues --  -19.24401 -19.23982 -19.23875 -19.23213 -19.22748
 Alpha  occ. eigenvalues --  -14.47035 -14.46673 -14.46276 -14.46043 -14.44694
 Alpha  occ. eigenvalues --  -14.44009 -14.43886 -14.43144 -10.43418 -10.42927
 Alpha  occ. eigenvalues --  -10.40086 -10.39420 -10.38401 -10.37360 -10.35931
 Alpha  occ. eigenvalues --  -10.35731 -10.35442 -10.35422 -10.35010 -10.34897
 Alpha  occ. eigenvalues --  -10.34600 -10.34533 -10.34494 -10.34442 -10.34358
 Alpha  occ. eigenvalues --  -10.34186 -10.34034 -10.33987 -10.33885 -10.33818
 Alpha  occ. eigenvalues --  -10.33352 -10.33233 -10.32804 -10.32798 -10.32742
 Alpha  occ. eigenvalues --  -10.32456 -10.32442 -10.32320 -10.32192 -10.32165
 Alpha  occ. eigenvalues --  -10.32136 -10.32134 -10.31857 -10.31814 -10.31779
 Alpha  occ. eigenvalues --  -10.31699 -10.31672 -10.31584 -10.31540 -10.31501
 Alpha  occ. eigenvalues --  -10.31464 -10.31417 -10.31179 -10.31057 -10.30978
 Alpha  occ. eigenvalues --  -10.30731 -10.30724 -10.30624 -10.30616 -10.30414
 Alpha  occ. eigenvalues --  -10.30264 -10.30251 -10.30195 -10.30127 -10.30073
 Alpha  occ. eigenvalues --  -10.30060 -10.30047 -10.29982 -10.29668 -10.29548
 Alpha  occ. eigenvalues --  -10.29515 -10.29264 -10.28856 -10.28795 -10.28467
 Alpha  occ. eigenvalues --  -10.28439  -3.21508  -3.20276  -1.95089  -1.94623
 Alpha  occ. eigenvalues --   -1.94493  -1.93852  -1.93419  -1.93256  -1.18812
 Alpha  occ. eigenvalues --   -1.17732  -1.12622  -1.10841  -1.10195  -1.09421
 Alpha  occ. eigenvalues --   -1.08825  -1.08730  -1.07741  -1.06557  -1.06417
 Alpha  occ. eigenvalues --   -1.05914  -1.05759  -1.05246  -1.04992  -1.04425
 Alpha  occ. eigenvalues --   -0.93916  -0.93247  -0.91785  -0.91400  -0.91037
 Alpha  occ. eigenvalues --   -0.90594  -0.90159  -0.90109  -0.89778  -0.89578
 Alpha  occ. eigenvalues --   -0.89506  -0.89217  -0.89091  -0.88957  -0.86865
 Alpha  occ. eigenvalues --   -0.86115  -0.85803  -0.85228  -0.84884  -0.84549
 Alpha  occ. eigenvalues --   -0.84292  -0.84069  -0.83509  -0.83041  -0.82542
 Alpha  occ. eigenvalues --   -0.82011  -0.80758  -0.80502  -0.79481  -0.79129
 Alpha  occ. eigenvalues --   -0.78836  -0.78675  -0.78021  -0.77843  -0.77293
 Alpha  occ. eigenvalues --   -0.76800  -0.74739  -0.74638  -0.73670  -0.73617
 Alpha  occ. eigenvalues --   -0.71785  -0.71370  -0.71070  -0.70818  -0.69705
 Alpha  occ. eigenvalues --   -0.69634  -0.69585  -0.69160  -0.67780  -0.67207
 Alpha  occ. eigenvalues --   -0.66900  -0.66826  -0.66580  -0.66422  -0.66212
 Alpha  occ. eigenvalues --   -0.65911  -0.64627  -0.64267  -0.62738  -0.62423
 Alpha  occ. eigenvalues --   -0.61746  -0.61628  -0.60958  -0.60876  -0.60624
 Alpha  occ. eigenvalues --   -0.60480  -0.59988  -0.59534  -0.59375  -0.59256
 Alpha  occ. eigenvalues --   -0.58317  -0.58280  -0.57846  -0.57649  -0.57481
 Alpha  occ. eigenvalues --   -0.57249  -0.57088  -0.56472  -0.56455  -0.56069
 Alpha  occ. eigenvalues --   -0.55800  -0.55690  -0.55353  -0.55230  -0.55150
 Alpha  occ. eigenvalues --   -0.54862  -0.54745  -0.54666  -0.54488  -0.54310
 Alpha  occ. eigenvalues --   -0.54122  -0.53821  -0.53630  -0.53517  -0.53132
 Alpha  occ. eigenvalues --   -0.53117  -0.53054  -0.52654  -0.52521  -0.52457
 Alpha  occ. eigenvalues --   -0.51929  -0.51869  -0.51865  -0.51740  -0.51607
 Alpha  occ. eigenvalues --   -0.51435  -0.51281  -0.51158  -0.51003  -0.51001
 Alpha  occ. eigenvalues --   -0.50888  -0.50501  -0.50487  -0.50408  -0.50370
 Alpha  occ. eigenvalues --   -0.50132  -0.49765  -0.49625  -0.49607  -0.49244
 Alpha  occ. eigenvalues --   -0.49229  -0.48740  -0.48683  -0.48463  -0.48329
 Alpha  occ. eigenvalues --   -0.48300  -0.48090  -0.48080  -0.47886  -0.47722
 Alpha  occ. eigenvalues --   -0.47092  -0.46917  -0.46681  -0.46490  -0.46442
 Alpha  occ. eigenvalues --   -0.46401  -0.46334  -0.46069  -0.46039  -0.45983
 Alpha  occ. eigenvalues --   -0.45939  -0.45926  -0.45781  -0.45542  -0.45366
 Alpha  occ. eigenvalues --   -0.45312  -0.44950  -0.44847  -0.44722  -0.44646
 Alpha  occ. eigenvalues --   -0.44549  -0.44181  -0.43982  -0.43903  -0.43901
 Alpha  occ. eigenvalues --   -0.43763  -0.43698  -0.43458  -0.43416  -0.43109
 Alpha  occ. eigenvalues --   -0.43017  -0.42848  -0.42728  -0.42727  -0.42440
 Alpha  occ. eigenvalues --   -0.42355  -0.42110  -0.41371  -0.41193  -0.40996
 Alpha  occ. eigenvalues --   -0.40350  -0.40188  -0.39790  -0.39676  -0.39345
 Alpha  occ. eigenvalues --   -0.39186  -0.39177  -0.38700  -0.38692  -0.38216
 Alpha  occ. eigenvalues --   -0.38176  -0.37892  -0.36277  -0.36272  -0.36000
 Alpha  occ. eigenvalues --   -0.35770  -0.35577  -0.35334  -0.33930  -0.33344
 Alpha  occ. eigenvalues --   -0.33338  -0.33175  -0.32797  -0.31992  -0.31962
 Alpha  occ. eigenvalues --   -0.31823  -0.31607  -0.31469  -0.25994  -0.25845
 Alpha  occ. eigenvalues --   -0.22926  -0.22912
 Alpha virt. eigenvalues --   -0.07095  -0.06910   0.00146   0.00190   0.01995
 Alpha virt. eigenvalues --    0.02618   0.04321   0.04606   0.05064   0.06274
 Alpha virt. eigenvalues --    0.07112   0.07266   0.07470   0.07820   0.08942

 Mulliken charges:
               1
     1  Mg   0.978357
     2  C   -0.019977
     3  C   -0.101273
     4  C   -0.061302
     5  C   -0.070950
     6  N   -0.323279
     7  C   -0.008444
     8  C   -0.058198
     9  C   -0.138119
    10  C    0.061841
    11  C    0.058279
    12  C    0.014041
    13  C   -0.126938
    14  H    0.052368
    15  N   -0.518379
    16  C    0.183443
    17  C   -0.195959
    18  C   -0.036952
    19  C    0.166652
    20  C    0.060632
    21  C    0.056559
    22  O   -0.280045
    23  C    0.001928
    24  N   -0.410158
    25  C    0.066173
    26  C   -0.084826
    27  C   -0.063889
    28  C    0.089643
    29  C    0.031863
    30  C   -0.016709
    31  C   -0.058124
    32  N   -0.398591
    33  C    0.097226
    34  C   -0.187994
    35  C   -0.040073
    36  C    0.126335
    37  C    0.081464
    38  C    0.128864
    39  O   -0.224762
    40  C   -0.076922
    41  C    0.275754
    42  O   -0.284576
    43  O   -0.335603
    44  C    0.120630
    45  H    0.007889
    46  H    0.010696
    47  H   -0.017351
    48  H    0.025993
    49  H    0.022624
    50  H    0.047121
    51  H    0.037810
    52  H    0.040102
    53  H    0.035383
    54  H    0.067701
    55  H    0.038962
    56  H    0.040623
    57  H    0.029673
    58  H    0.049042
    59  H    0.062157
    60  H    0.057786
    61  H    0.061825
    62  H    0.052994
    63  H    0.042921
    64  H    0.035673
    65  H    0.045323
    66  H    0.034340
    67  H    0.025717
    68  H    0.032616
    69  H    0.029403
    70  H    0.029208
    71  H    0.042181
    72  H    0.049657
    73  H    0.070886
    74  H    0.031395
    75  H    0.069408
    76  H    0.065881
    77  H    0.061278
    78  H    0.062799
    79  H    0.070273
    80  Mg   0.970128
    81  C   -0.075044
    82  C   -0.078687
    83  C   -0.049452
    84  C   -0.066388
    85  N   -0.355600
    86  C   -0.025971
    87  C   -0.008945
    88  C   -0.153457
    89  C    0.119854
    90  C    0.024340
    91  C   -0.009660
    92  C   -0.131336
    93  H    0.015010
    94  N   -0.438299
    95  C    0.116639
    96  C   -0.187179
    97  C   -0.059047
    98  C    0.130947
    99  C    0.069981
   100  C    0.087764
   101  O   -0.227292
   102  C   -0.033497
   103  N   -0.274124
   104  C   -0.007250
   105  C   -0.114799
   106  C   -0.055358
   107  C    0.009771
   108  C    0.036084
   109  C    0.000437
   110  C   -0.068107
   111  N   -0.456839
   112  C    0.123423
   113  C   -0.170432
   114  C   -0.076950
   115  C    0.206132
   116  C    0.109147
   117  C    0.102670
   118  O   -0.239452
   119  C   -0.055403
   120  C    0.293531
   121  O   -0.266020
   122  O   -0.365206
   123  C    0.138549
   124  H   -0.019840
   125  H    0.029521
   126  H    0.004092
   127  H    0.040471
   128  H    0.037080
   129  H    0.034015
   130  H    0.041463
   131  H    0.049664
   132  H    0.031943
   133  H    0.073415
   134  H    0.048361
   135  H    0.065638
   136  H    0.031692
   137  H    0.051409
   138  H    0.041151
   139  H    0.048832
   140  H    0.063233
   141  H    0.052493
   142  H    0.038876
   143  H    0.021338
   144  H    0.046540
   145  H    0.044296
   146  H    0.029776
   147  H    0.030497
   148  H    0.036926
   149  H    0.033091
   150  H    0.033419
   151  H    0.041983
   152  H    0.019321
   153  H    0.065417
   154  H    0.081062
   155  H    0.069581
   156  H    0.058581
   157  H    0.063582
   158  H    0.056464
 Sum of Mulliken charges =  -0.00000

 Dipole moment (field-independent basis, Debye):
    X=              0.3780    Y=              1.5857    Z=              0.9174  Tot=              1.8706
 Quadrupole moment (field-independent basis, Debye-Ang):
   XX=           -636.2456   YY=           -458.2077   ZZ=           -523.5567
   XY=             -6.7861   XZ=            203.7368   YZ=              7.7311

 Normal termination of Gaussian 16 at Sun Sep 19 08:48:16 2021.
