 Gaussian 16, Revision A.03,
 Gaussian 16:  ES64L-G16RevA.03 25-Dec-2016

 --------------------------------
 #p wB97XD/Def2SVP td=(nstates=5)
 --------------------------------

 --------------------------------
 TDDFT excited states in gaussian
 --------------------------------
 Symbolic Z-matrix:
 Charge =  0 Multiplicity = 1

                         Standard orientation:
 ---------------------------------------------------------------------
 Center     Atomic      Atomic             Coordinates (Angstroms)
 Number     Number       Type             X           Y           Z
 ---------------------------------------------------------------------
      1         12           0      -26.031893   -0.579216   -0.364884
      2          6           0      -24.209936    2.490533   -0.033100
      3          6           0      -28.646135    0.933006    1.299585
      4          6           0      -27.396432   -3.538756   -0.131726
      5          6           0      -23.186367   -1.920160   -1.819286
      6          7           0      -26.284531    1.458494    0.805244
      7          6           0      -25.432512    2.518265    0.650109
      8          6           0      -26.127947    3.817226    1.138441
      9          6           0      -27.549122    3.314882    1.631618
     10          6           0      -27.540025    1.786849    1.261483
     11          6           0      -27.912120    3.504732    3.164388
     12          6           0      -26.258667    4.937351    0.072119
     13          6           0      -25.926677    6.327885    0.482307
     14          1           0      -25.874464    6.803212    1.984481
     15          7           0      -27.821629   -1.269397    0.493018
     16          6           0      -28.852289   -0.492514    1.021405
     17          6           0      -29.932110   -1.385546    1.483548
     18          6           0      -29.605847   -2.692343    0.952651
     19          6           0      -28.232873   -2.550794    0.414707
     20          6           0      -31.144621   -0.974113    2.262493
     21          6           0      -30.411457   -4.012808    0.938321
     22          8           0      -30.172639   -4.989254    0.196829
     23          6           0      -31.652284   -4.060858    1.735888
     24          7           0      -25.355535   -2.397596   -0.837318
     25          6           0      -26.130458   -3.503714   -0.565743
     26          6           0      -25.541413   -4.778453   -1.230950
     27          6           0      -24.360205   -4.145675   -2.091900
     28          6           0      -24.290387   -2.720055   -1.572610
     29          6           0      -25.075269   -5.965009   -0.292300
     30          6           0      -24.517535   -4.168497   -3.604041
     31          6           0      -23.502293   -5.044400   -4.367681
     32          7           0      -24.157581    0.147950   -1.018365
     33          6           0      -23.094672   -0.530497   -1.566154
     34          6           0      -21.951966    0.377117   -1.732686
     35          6           0      -22.392617    1.572369   -1.192710
     36          6           0      -23.728717    1.392159   -0.770506
     37          6           0      -20.590874    0.089262   -2.274791
     38          6           0      -21.968568    2.908078   -0.971879
     39          8           0      -20.925948    3.534683   -1.315144
     40          6           0      -23.072747    3.540950   -0.236330
     41          6           0      -22.557630    4.177640    1.026081
     42          8           0      -22.175021    3.593652    1.981697
     43          8           0      -22.659941    5.503758    0.939989
     44          6           0      -21.959918    6.321375    1.871641
     45          1           0      -29.515216    1.329010    1.829356
     46          1           0      -27.744142   -4.574223   -0.165233
     47          1           0      -22.271153   -2.371780   -2.205612
     48          1           0      -25.521202    4.184713    1.966865
     49          1           0      -28.334686    3.795925    1.049651
     50          1           0      -27.210820    4.109451    3.738679
     51          1           0      -27.864619    2.515176    3.621278
     52          1           0      -28.928060    3.886273    3.270761
     53          1           0      -27.271123    5.030389   -0.322523
     54          1           0      -25.611372    4.776513   -0.789515
     55          1           0      -26.674915    7.015668    0.087194
     56          1           0      -24.962335    6.572859    0.038048
     57          1           0      -31.214754   -1.577443    3.167315
     58          1           0      -32.003218   -1.193004    1.627664
     59          1           0      -31.194984    0.108337    2.384713
     60          1           0      -31.373263   -3.939956    2.782659
     61          1           0      -32.027807   -5.077436    1.621581
     62          1           0      -32.420151   -3.396476    1.340490
     63          1           0      -26.314429   -5.129461   -1.915318
     64          1           0      -23.458355   -4.705064   -1.843399
     65          1           0      -25.253594   -5.709196    0.751530
     66          1           0      -24.054448   -6.293362   -0.491497
     67          1           0      -25.667475   -6.838890   -0.564293
     68          1           0      -24.613291   -3.202598   -4.100197
     69          1           0      -25.482495   -4.631050   -3.808711
     70          1           0      -23.064740   -4.620397   -5.271268
     71          1           0      -24.072478   -5.856964   -4.818737
     72          1           0      -22.658983   -5.405279   -3.780423
     73          1           0      -20.558236   -0.830376   -2.859706
     74          1           0      -19.907284   -0.147816   -1.459691
     75          1           0      -20.248179    1.008519   -2.749632
     76          1           0      -23.470414    4.307429   -0.900997
     77          1           0      -20.908702    6.277485    1.583355
     78          1           0      -21.988447    5.886515    2.870843
     79          1           0      -22.277323    7.361961    1.799251
     80         12           0       25.568468   -0.769395    0.438657
     81          6           0       25.803608    2.301618   -1.243204
     82          6           0       26.341942    0.680871    3.340377
     83          6           0       25.384878   -3.700829    1.797557
     84          6           0       25.772049   -2.286719   -2.839293
     85          7           0       26.117332    1.259243    0.913693
     86          6           0       25.996432    2.366966    0.171301
     87          6           0       26.417637    3.600894    0.926843
     88          6           0       26.981994    2.996838    2.274945
     89          6           0       26.448423    1.579510    2.196978
     90          6           0       28.523448    3.052574    2.528648
     91          6           0       25.140699    4.536658    1.238618
     92          6           0       25.374363    6.043684    0.892174
     93          1           0       23.986321    6.885566    0.923182
     94          7           0       25.577717   -1.362316    2.290021
     95          6           0       25.879984   -0.608825    3.411469
     96          6           0       25.543020   -1.375370    4.579341
     97          6           0       25.202001   -2.735752    4.192442
     98          6           0       25.259694   -2.650351    2.682896
     99          6           0       25.756678   -0.739577    5.983070
    100          6           0       24.817449   -4.016603    4.924190
    101          8           0       24.465428   -5.089009    4.400464
    102          6           0       24.785835   -3.842388    6.401339
    103          7           0       25.740375   -2.665877   -0.459108
    104          6           0       25.626791   -3.717546    0.416296
    105          6           0       25.821848   -5.052268   -0.303873
    106          6           0       25.626321   -4.630816   -1.783923
    107          6           0       25.779902   -3.109645   -1.727737
    108          6           0       27.197051   -5.701907    0.124998
    109          6           0       24.258866   -5.070756   -2.460006
    110          6           0       24.252094   -5.192357   -3.992249
    111          7           0       25.713135   -0.165736   -1.645788
    112          6           0       25.778945   -0.892598   -2.795719
    113          6           0       25.727616   -0.036117   -3.959378
    114          6           0       25.664232    1.234440   -3.358469
    115          6           0       25.722139    1.115506   -1.962507
    116          6           0       25.734069   -0.343542   -5.474514
    117          6           0       25.558069    2.632884   -3.668394
    118          8           0       25.322915    3.240569   -4.679834
    119          6           0       25.818335    3.392323   -2.265838
    120          6           0       24.779288    4.424168   -2.318328
    121          8           0       23.561810    4.337811   -2.017764
    122          8           0       25.402985    5.520232   -2.783625
    123          6           0       24.610731    6.733537   -2.989240
    124          1           0       26.504359    1.161606    4.307466
    125          1           0       25.247288   -4.685781    2.248988
    126          1           0       25.735927   -2.798347   -3.803340
    127          1           0       27.136025    4.238636    0.411018
    128          1           0       26.547678    3.389624    3.194482
    129          1           0       28.905445    2.033479    2.468704
    130          1           0       28.628054    3.431506    3.545144
    131          1           0       29.143798    3.639264    1.852013
    132          1           0       24.739055    4.472387    2.250571
    133          1           0       24.306512    4.101098    0.688487
    134          1           0       25.811313    6.144432   -0.101103
    135          1           0       25.996700    6.591484    1.599375
    136          1           0       24.834247   -0.233445    6.264414
    137          1           0       26.414138    0.130641    5.974259
    138          1           0       26.246045   -1.355277    6.737385
    139          1           0       24.067455   -3.104406    6.756532
    140          1           0       25.824184   -3.590146    6.619963
    141          1           0       24.592128   -4.765998    6.947529
    142          1           0       25.014457   -5.690493    0.055384
    143          1           0       26.399843   -5.097129   -2.394031
    144          1           0       27.917946   -5.629861   -0.689288
    145          1           0       27.214340   -6.755754    0.401653
    146          1           0       27.746493   -5.203907    0.924152
    147          1           0       23.610921   -4.216530   -2.261761
    148          1           0       23.783686   -5.980726   -2.092960
    149          1           0       23.606767   -4.448044   -4.460586
    150          1           0       23.960962   -6.138327   -4.449309
    151          1           0       25.252988   -4.899804   -4.306507
    152          1           0       26.223669   -1.312096   -5.575994
    153          1           0       26.271858    0.426421   -6.029305
    154          1           0       24.689048   -0.424515   -5.773452
    155          1           0       26.789128    3.887514   -2.293368
    156          1           0       24.910356    7.471068   -2.244882
    157          1           0       23.542637    6.525198   -3.041569
    158          1           0       24.912367    7.178507   -3.937377
 ---------------------------------------------------------------------

 SCF Done:  E(RwB97XD) =  -4070.59686347     A.U. after   19 cycles

 Excitation energies and oscillator strengths:

 Excited State   1:      Singlet-A      1.6706 eV  742.14 nm  f=0.2416  <S**2>=0.000
     309 -> 315        0.17147
     311 -> 313       -0.36640
     312 -> 314        0.57339
     309 <- 315        0.10138
 This state for optimization and/or second-order correction.
 Total Energy, E(TD-HF/TD-DFT) =  -4070.53546892
 Copying the excited state density for this state as the 1-particle RhoCI density.

 Excited State   2:      Singlet-A      1.6709 eV  742.01 nm  f=0.5560  <S**2>=0.000
     309 -> 315        0.10868
     310 -> 316       -0.15304
     311 -> 313        0.57827
     312 -> 314        0.36329

 Excited State   3:      Singlet-A      2.1576 eV  574.64 nm  f=0.1252  <S**2>=0.000
     310 -> 313        0.64762
     311 -> 316        0.26958

 Excited State   4:      Singlet-A      2.1931 eV  565.35 nm  f=0.0612  <S**2>=0.000
     309 -> 314        0.61588
     312 -> 315       -0.33610

 Excited State   5:      Singlet-A      3.4186 eV  362.67 nm  f=0.4033  <S**2>=0.000
     306 -> 314        0.13447
     307 -> 314        0.34043
     309 -> 314        0.25484
     312 -> 315        0.52584

 The electronic state is 1-A.
 Alpha  occ. eigenvalues --  -46.95238 -46.93915 -19.30233 -19.30073 -19.24724
 Alpha  occ. eigenvalues --  -19.24602 -19.24179 -19.24059 -19.23507 -19.23393
 Alpha  occ. eigenvalues --  -14.47171 -14.46645 -14.46306 -14.46212 -14.44323
 Alpha  occ. eigenvalues --  -14.44091 -14.44085 -14.42987 -10.42902 -10.42414
 Alpha  occ. eigenvalues --  -10.39981 -10.38858 -10.38783 -10.38652 -10.35768
 Alpha  occ. eigenvalues --  -10.35749 -10.35242 -10.35189 -10.35067 -10.34926
 Alpha  occ. eigenvalues --  -10.34815 -10.34730 -10.34667 -10.34661 -10.34247
 Alpha  occ. eigenvalues --  -10.34241 -10.34142 -10.34109 -10.33649 -10.33462
 Alpha  occ. eigenvalues --  -10.33449 -10.33372 -10.33215 -10.32984 -10.32796
 Alpha  occ. eigenvalues --  -10.32783 -10.32683 -10.32539 -10.32407 -10.32351
 Alpha  occ. eigenvalues --  -10.32297 -10.32289 -10.32159 -10.31983 -10.31875
 Alpha  occ. eigenvalues --  -10.31785 -10.31767 -10.31747 -10.31672 -10.31643
 Alpha  occ. eigenvalues --  -10.31596 -10.31552 -10.31325 -10.31240 -10.31067
 Alpha  occ. eigenvalues --  -10.30855 -10.30779 -10.30754 -10.30710 -10.30511
 Alpha  occ. eigenvalues --  -10.30409 -10.30346 -10.30346 -10.30254 -10.30140
 Alpha  occ. eigenvalues --  -10.29925 -10.29859 -10.29747 -10.29726 -10.29721
 Alpha  occ. eigenvalues --  -10.29384 -10.29305 -10.29267 -10.29179 -10.29147
 Alpha  occ. eigenvalues --  -10.28470  -3.21259  -3.20157  -1.94830  -1.94394
 Alpha  occ. eigenvalues --   -1.94227  -1.93740  -1.93301  -1.93148  -1.20822
 Alpha  occ. eigenvalues --   -1.18106  -1.12994  -1.11922  -1.11621  -1.10444
 Alpha  occ. eigenvalues --   -1.10369  -1.07709  -1.07190  -1.06904  -1.06303
 Alpha  occ. eigenvalues --   -1.05797  -1.05604  -1.04501  -1.04461  -1.03762
 Alpha  occ. eigenvalues --   -0.95631  -0.94683  -0.91049  -0.91025  -0.90400
 Alpha  occ. eigenvalues --   -0.90235  -0.90114  -0.89887  -0.89731  -0.89366
 Alpha  occ. eigenvalues --   -0.88923  -0.88760  -0.88205  -0.88200  -0.86514
 Alpha  occ. eigenvalues --   -0.86443  -0.85723  -0.85391  -0.84509  -0.84382
 Alpha  occ. eigenvalues --   -0.84158  -0.83954  -0.83646  -0.83223  -0.82468
 Alpha  occ. eigenvalues --   -0.82234  -0.80239  -0.80177  -0.79658  -0.79227
 Alpha  occ. eigenvalues --   -0.79083  -0.78817  -0.78267  -0.77840  -0.77311
 Alpha  occ. eigenvalues --   -0.77111  -0.75184  -0.74765  -0.74105  -0.73464
 Alpha  occ. eigenvalues --   -0.71375  -0.71214  -0.70927  -0.70707  -0.69839
 Alpha  occ. eigenvalues --   -0.69428  -0.69189  -0.68201  -0.67979  -0.67841
 Alpha  occ. eigenvalues --   -0.67454  -0.66870  -0.66861  -0.66817  -0.66459
 Alpha  occ. eigenvalues --   -0.66428  -0.65024  -0.63745  -0.62304  -0.62254
 Alpha  occ. eigenvalues --   -0.61875  -0.61784  -0.61297  -0.61136  -0.61131
 Alpha  occ. eigenvalues --   -0.60610  -0.60184  -0.59979  -0.59728  -0.59099
 Alpha  occ. eigenvalues --   -0.58424  -0.58313  -0.58079  -0.57838  -0.57432
 Alpha  occ. eigenvalues --   -0.57123  -0.56889  -0.56276  -0.55833  -0.55694
 Alpha  occ. eigenvalues --   -0.55370  -0.55326  -0.55219  -0.55167  -0.54912
 Alpha  occ. eigenvalues --   -0.54747  -0.54662  -0.54481  -0.54345  -0.54139
 Alpha  occ. eigenvalues --   -0.53636  -0.53514  -0.53491  -0.53408  -0.53328
 Alpha  occ. eigenvalues --   -0.53028  -0.52969  -0.52671  -0.52302  -0.52114
 Alpha  occ. eigenvalues --   -0.52019  -0.51940  -0.51939  -0.51783  -0.51349
 Alpha  occ. eigenvalues --   -0.51253  -0.51007  -0.50999  -0.50831  -0.50687
 Alpha  occ. eigenvalues --   -0.50530  -0.50390  -0.50203  -0.50138  -0.50075
 Alpha  occ. eigenvalues --   -0.49920  -0.49608  -0.49328  -0.49306  -0.49179
 Alpha  occ. eigenvalues --   -0.48852  -0.48802  -0.48695  -0.48402  -0.48249
 Alpha  occ. eigenvalues --   -0.48157  -0.48063  -0.47975  -0.47833  -0.47743
 Alpha  occ. eigenvalues --   -0.47640  -0.47447  -0.47176  -0.47057  -0.46841
 Alpha  occ. eigenvalues --   -0.46740  -0.46493  -0.46412  -0.45952  -0.45678
 Alpha  occ. eigenvalues --   -0.45616  -0.45493  -0.45406  -0.45351  -0.45002
 Alpha  occ. eigenvalues --   -0.44892  -0.44801  -0.44770  -0.44583  -0.44579
 Alpha  occ. eigenvalues --   -0.44510  -0.44152  -0.44125  -0.44016  -0.43865
 Alpha  occ. eigenvalues --   -0.43824  -0.43540  -0.43396  -0.43247  -0.43141
 Alpha  occ. eigenvalues --   -0.43125  -0.42882  -0.42697  -0.42454  -0.42192
 Alpha  occ. eigenvalues --   -0.42171  -0.41985  -0.41561  -0.41492  -0.41019
 Alpha  occ. eigenvalues --   -0.40716  -0.40072  -0.39834  -0.39759  -0.39453
 Alpha  occ. eigenvalues --   -0.39086  -0.38937  -0.38560  -0.38244  -0.37753
 Alpha  occ. eigenvalues --   -0.37504  -0.37209  -0.36657  -0.36145  -0.36109
 Alpha  occ. eigenvalues --   -0.35965  -0.35149  -0.34948  -0.33712  -0.33709
 Alpha  occ. eigenvalues --   -0.33557  -0.33493  -0.32854  -0.32610  -0.32594
 Alpha  occ. eigenvalues --   -0.32453  -0.31763  -0.31582  -0.26108  -0.26035
 Alpha  occ. eigenvalues --   -0.23103  -0.22922
 Alpha virt. eigenvalues --   -0.07274  -0.06777  -0.00386   0.00460   0.01761
 Alpha virt. eigenvalues --    0.01859   0.04131   0.04571   0.05413   0.06228
 Alpha virt. eigenvalues --    0.07382   0.07610   0.07825   0.08252   0.08361

 Mulliken charges:
               1
     1  Mg   0.968368
     2  C   -0.020867
     3  C   -0.037309
     4  C   -0.069075
     5  C   -0.100396
     6  N   -0.318746
     7  C   -0.004816
     8  C   -0.025609
     9  C   -0.108473
    10  C    0.038898
    11  C    0.011083
    12  C    0.007005
    13  C   -0.131880
    14  H    0.014325
    15  N   -0.444825
    16  C    0.109589
    17  C   -0.188500
    18  C   -0.082147
    19  C    0.150605
    20  C    0.090876
    21  C    0.056709
    22  O   -0.260080
    23  C   -0.010082
    24  N   -0.429082
    25  C    0.096574
    26  C   -0.123075
    27  C   -0.081907
    28  C    0.106464
    29  C    0.028002
    30  C    0.012431
    31  C   -0.064932
    32  N   -0.411659
    33  C    0.113916
    34  C   -0.170876
    35  C   -0.051515
    36  C    0.143988
    37  C    0.088538
    38  C    0.114973
    39  O   -0.251316
    40  C   -0.028958
    41  C    0.225689
    42  O   -0.205795
    43  O   -0.332404
    44  C    0.138715
    45  H   -0.013873
    46  H    0.020099
    47  H   -0.001502
    48  H    0.046136
    49  H    0.041907
    50  H    0.041060
    51  H    0.040357
    52  H    0.039973
    53  H    0.033337
    54  H    0.031282
    55  H    0.045754
    56  H    0.057653
    57  H    0.058256
    58  H    0.041363
    59  H    0.035345
    60  H    0.054117
    61  H    0.046900
    62  H    0.066216
    63  H    0.046342
    64  H    0.023303
    65  H    0.051615
    66  H    0.034847
    67  H    0.038250
    68  H    0.040940
    69  H    0.022550
    70  H    0.029662
    71  H    0.032290
    72  H    0.037102
    73  H    0.030968
    74  H    0.058251
    75  H    0.072597
    76  H    0.069285
    77  H    0.047684
    78  H    0.056352
    79  H    0.061158
    80  Mg   0.994628
    81  C    0.048687
    82  C   -0.082935
    83  C   -0.068800
    84  C   -0.108781
    85  N   -0.341479
    86  C    0.045827
    87  C   -0.121717
    88  C   -0.075811
    89  C    0.029486
    90  C    0.026883
    91  C    0.023868
    92  C   -0.140355
    93  H    0.018718
    94  N   -0.559250
    95  C    0.189865
    96  C   -0.126419
    97  C   -0.130591
    98  C    0.181228
    99  C    0.043801
   100  C    0.089286
   101  O   -0.240692
   102  C   -0.020982
   103  N   -0.364251
   104  C    0.073220
   105  C   -0.083660
   106  C   -0.059646
   107  C    0.063270
   108  C    0.017237
   109  C   -0.011441
   110  C   -0.064788
   111  N   -0.360625
   112  C    0.130511
   113  C   -0.202701
   114  C   -0.017989
   115  C    0.092345
   116  C    0.097855
   117  C    0.101697
   118  O   -0.185096
   119  C   -0.133257
   120  C    0.263381
   121  O   -0.284970
   122  O   -0.350097
   123  C    0.138281
   124  H   -0.014459
   125  H    0.026590
   126  H   -0.019319
   127  H    0.037172
   128  H    0.028907
   129  H    0.042192
   130  H    0.037578
   131  H    0.042985
   132  H    0.031562
   133  H    0.058230
   134  H    0.053271
   135  H    0.056588
   136  H    0.054091
   137  H    0.028119
   138  H    0.054141
   139  H    0.074618
   140  H    0.050249
   141  H    0.047503
   142  H    0.043287
   143  H    0.027329
   144  H    0.021173
   145  H    0.043982
   146  H    0.041015
   147  H    0.036424
   148  H    0.043306
   149  H    0.035211
   150  H    0.044636
   151  H    0.027531
   152  H    0.034207
   153  H    0.066251
   154  H    0.064446
   155  H    0.073464
   156  H    0.048555
   157  H    0.075993
   158  H    0.049431
 Sum of Mulliken charges =  -0.00000

 Dipole moment (field-independent basis, Debye):
    X=              0.7964    Y=              0.9425    Z=              3.0668  Tot=              3.3057
 Quadrupole moment (field-independent basis, Debye-Ang):
   XX=           -218.8125   YY=           -492.5138   ZZ=           -489.3659
   XY=            -45.8665   XZ=            100.4162   YZ=             36.9163

 Normal termination of Gaussian 16 at Mon Sep 20 10:19:13 2021.
