 Gaussian 16, Revision A.03,
 Gaussian 16:  ES64L-G16RevA.03 25-Dec-2016

 --------------------------------
 #p wB97XD/Def2SVP td=(nstates=5)
 --------------------------------

 --------------------------------
 TDDFT excited states in gaussian
 --------------------------------
 Symbolic Z-matrix:
 Charge =  0 Multiplicity = 1

                         Standard orientation:
 ---------------------------------------------------------------------
 Center     Atomic      Atomic             Coordinates (Angstroms)
 Number     Number       Type             X           Y           Z
 ---------------------------------------------------------------------
      1         12           0       17.521383   -0.457477    0.011988
      2          6           0       15.176758    2.072130    0.492976
      3          6           0       20.047820    1.850413    0.366395
      4          6           0       19.652093   -2.965437   -0.744689
      5          6           0       14.816081   -2.670945   -0.730714
      6          7           0       17.558193    1.701679    0.273115
      7          6           0       16.503628    2.537357    0.475507
      8          6           0       16.971996    3.959428    0.810216
      9          6           0       18.545971    3.832368    0.603349
     10          6           0       18.720797    2.322490    0.409482
     11          6           0       19.029503    4.614826   -0.611692
     12          6           0       16.731083    4.431759    2.288224
     13          6           0       16.562341    5.910290    2.523580
     14          1           0       16.955416    6.858021    1.480493
     15          7           0       19.532116   -0.554089   -0.071297
     16          6           0       20.409881    0.534737    0.101802
     17          6           0       21.738088   -0.019657    0.125343
     18          6           0       21.676568   -1.411501   -0.137845
     19          6           0       20.237047   -1.709936   -0.337859
     20          6           0       22.989419    0.830638    0.175975
     21          6           0       22.728863   -2.438591   -0.185242
     22          8           0       22.548951   -3.556944   -0.618005
     23          6           0       24.212971   -2.074602    0.182786
     24          7           0       17.305934   -2.630517   -0.496155
     25          6           0       18.324442   -3.388998   -0.771934
     26          6           0       17.872173   -4.819514   -1.193381
     27          6           0       16.356525   -4.773989   -1.124785
     28          6           0       16.078432   -3.258944   -0.815389
     29          6           0       18.533269   -5.225059   -2.593989
     30          6           0       15.765706   -5.767618   -0.102277
     31          6           0       15.277975   -7.160400   -0.651068
     32          7           0       15.500021   -0.458302    0.138134
     33          6           0       14.516060   -1.422082   -0.194937
     34          6           0       13.213129   -0.922650    0.029234
     35          6           0       13.458523    0.502662    0.225307
     36          6           0       14.870663    0.668216    0.308329
     37          6           0       11.915046   -1.633804   -0.306724
     38          6           0       12.746649    1.719093    0.365772
     39          8           0       11.549127    1.971516    0.409284
     40          6           0       13.933219    2.855639    0.650857
     41          6           0       13.682149    3.942646   -0.352609
     42          8           0       13.678234    3.777201   -1.576971
     43          8           0       13.309822    5.177767    0.256250
     44          6           0       13.031448    6.308344   -0.683732
     45          1           0       20.797006    2.636573    0.487105
     46          1           0       20.389714   -3.658632   -1.153505
     47          1           0       13.951948   -3.317125   -0.896465
     48          1           0       16.513957    4.611665    0.066319
     49          1           0       19.117480    4.209458    1.451353
     50          1           0       18.271741    5.318552   -0.955109
     51          1           0       19.388681    3.969400   -1.413727
     52          1           0       19.822211    5.328893   -0.388368
     53          1           0       17.557462    4.054919    2.889868
     54          1           0       15.880216    3.860028    2.659341
     55          1           0       17.218886    6.174192    3.352387
     56          1           0       15.518850    6.114899    2.763217
     57          1           0       23.575068    0.787739   -0.742264
     58          1           0       23.574297    0.516703    1.041548
     59          1           0       22.836469    1.902881    0.297393
     60          1           0       24.634642   -1.614657   -0.711315
     61          1           0       24.802574   -2.983388    0.304287
     62          1           0       24.246203   -1.352338    0.997555
     63          1           0       18.306049   -5.449048   -0.416278
     64          1           0       15.903130   -4.894243   -2.107488
     65          1           0       17.763679   -5.490305   -3.318754
     66          1           0       19.134785   -6.132967   -2.545277
     67          1           0       19.062988   -4.326598   -2.913311
     68          1           0       14.910795   -5.261246    0.347229
     69          1           0       16.518859   -5.896914    0.675133
     70          1           0       14.253034   -7.035072   -1.001976
     71          1           0       15.363150   -8.039284   -0.011714
     72          1           0       15.890976   -7.241444   -1.548076
     73          1           0       11.737091   -2.250594    0.573798
     74          1           0       12.026573   -2.274520   -1.180650
     75          1           0       11.099002   -1.008609   -0.671355
     76          1           0       13.854558    3.191667    1.685522
     77          1           0       12.176949    6.095820   -1.325191
     78          1           0       13.832152    6.644191   -1.343194
     79          1           0       12.739271    7.064387    0.045053
     80         12           0      -17.115677   -0.872625    0.268358
     81          6           0      -17.499012    2.506350   -0.933889
     82          6           0      -15.750041    0.513740    3.185610
     83          6           0      -16.867874   -3.933094    1.431122
     84          6           0      -18.210745   -2.052620   -2.834796
     85          7           0      -16.666380    1.330898    0.989133
     86          6           0      -17.095275    2.498327    0.441038
     87          6           0      -16.974409    3.661478    1.412077
     88          6           0      -16.072420    3.063645    2.630330
     89          6           0      -16.135945    1.556482    2.248540
     90          6           0      -14.660236    3.686219    2.765731
     91          6           0      -18.366283    4.208553    1.876809
     92          6           0      -18.574594    5.719683    1.597945
     93          1           0      -18.741551    6.622193    2.952235
     94          7           0      -16.434054   -1.583445    2.008867
     95          6           0      -15.859993   -0.901500    3.134726
     96          6           0      -15.477240   -1.810332    4.241092
     97          6           0      -15.871067   -3.084229    3.715161
     98          6           0      -16.410061   -2.898779    2.357413
     99          6           0      -14.817548   -1.371526    5.549996
    100          6           0      -15.698321   -4.424209    4.322485
    101          8           0      -16.251648   -5.453578    3.951020
    102          6           0      -14.863801   -4.527599    5.614226
    103          7           0      -17.646407   -2.671118   -0.521446
    104          6           0      -17.418662   -3.825894    0.145003
    105          6           0      -17.590025   -5.045290   -0.717572
    106          6           0      -18.066805   -4.487051   -2.081045
    107          6           0      -18.038619   -2.965359   -1.813202
    108          6           0      -16.384781   -5.960692   -0.768184
    109          6           0      -19.589362   -4.998406   -2.414815
    110          6           0      -19.786798   -5.733067   -3.849932
    111          7           0      -17.484727    0.004731   -1.633017
    112          6           0      -18.007875   -0.639521   -2.779970
    113          6           0      -18.309684    0.396735   -3.774066
    114          6           0      -18.247886    1.599400   -3.022096
    115          6           0      -17.637927    1.321069   -1.797982
    116          6           0      -18.683218    0.261912   -5.247202
    117          6           0      -18.309639    3.077102   -3.204730
    118          8           0      -18.558798    3.854712   -4.167377
    119          6           0      -17.938657    3.676131   -1.793197
    120          6           0      -16.849048    4.690487   -1.979405
    121          8           0      -15.887227    4.528772   -2.675924
    122          8           0      -17.187362    5.848048   -1.335168
    123          6           0      -16.340672    6.996087   -1.747088
    124          1           0      -15.211341    0.985692    4.009688
    125          1           0      -16.808026   -4.973636    1.757828
    126          1           0      -18.590938   -2.396609   -3.798696
    127          1           0      -16.382314    4.419350    0.899028
    128          1           0      -16.571812    3.140955    3.596484
    129          1           0      -13.887618    2.945533    2.557387
    130          1           0      -14.519537    4.097642    3.766095
    131          1           0      -14.466716    4.565160    2.150775
    132          1           0      -18.515507    4.073809    2.948420
    133          1           0      -19.187266    3.700756    1.369917
    134          1           0      -19.534437    5.940254    1.130153
    135          1           0      -17.848497    6.172068    0.923227
    136          1           0      -14.888848   -0.315379    5.811853
    137          1           0      -13.773447   -1.660694    5.669311
    138          1           0      -15.357059   -1.913263    6.327534
    139          1           0      -13.838605   -4.206353    5.430373
    140          1           0      -14.891965   -5.527997    6.047414
    141          1           0      -15.309120   -3.859750    6.351616
    142          1           0      -18.341883   -5.682576   -0.250124
    143          1           0      -17.362412   -4.729747   -2.876131
    144          1           0      -16.522681   -6.892028   -0.218229
    145          1           0      -15.481077   -5.561436   -0.307876
    146          1           0      -16.157958   -6.156346   -1.816420
    147          1           0      -20.337587   -4.206814   -2.390751
    148          1           0      -19.954545   -5.722962   -1.687445
    149          1           0      -18.792528   -6.073319   -4.140008
    150          1           0      -20.208242   -5.058991   -4.596795
    151          1           0      -20.350939   -6.659707   -3.747437
    152          1           0      -19.351550    1.057124   -5.576886
    153          1           0      -19.299237   -0.632868   -5.343885
    154          1           0      -17.720953    0.117463   -5.738618
    155          1           0      -18.814804    4.241622   -1.476897
    156          1           0      -15.301674    6.700261   -1.603203
    157          1           0      -16.557437    7.751907   -0.992363
    158          1           0      -16.406646    7.366882   -2.769919
 ---------------------------------------------------------------------

 SCF Done:  E(RwB97XD) =  -4070.62877966     A.U. after   19 cycles

 Excitation energies and oscillator strengths:

 Excited State   1:      Singlet-A      1.6156 eV  767.40 nm  f=0.3719  <S**2>=0.000
     310 -> 315        0.19317
     312 -> 314        0.68203
     310 <- 315        0.12121
 This state for optimization and/or second-order correction.
 Total Energy, E(TD-HF/TD-DFT) =  -4070.56940609
 Copying the excited state density for this state as the 1-particle RhoCI density.

 Excited State   2:      Singlet-A      1.6920 eV  732.78 nm  f=0.3722  <S**2>=0.000
     309 -> 316        0.17799
     311 -> 313        0.68409
     309 <- 316        0.11254

 Excited State   3:      Singlet-A      2.1192 eV  585.06 nm  f=0.1284  <S**2>=0.000
     310 -> 314        0.64520
     312 -> 315       -0.27988

 Excited State   4:      Singlet-A      2.1733 eV  570.48 nm  f=0.1438  <S**2>=0.000
     309 -> 313        0.64713
     311 -> 316       -0.26326

 Excited State   5:      Singlet-A      3.3521 eV  369.87 nm  f=0.0005  <S**2>=0.000
     304 -> 319       -0.10274
     305 -> 314       -0.13821
     308 -> 314        0.64950
     308 -> 318        0.13003

 The electronic state is 1-A.
 Alpha  occ. eigenvalues --  -46.94804 -46.94355 -19.30808 -19.29372 -19.24604
 Alpha  occ. eigenvalues --  -19.24389 -19.24376 -19.23958 -19.23688 -19.23223
 Alpha  occ. eigenvalues --  -14.47302 -14.47190 -14.46444 -14.46262 -14.45313
 Alpha  occ. eigenvalues --  -14.44872 -14.43925 -14.43773 -10.42922 -10.42594
 Alpha  occ. eigenvalues --  -10.39530 -10.39125 -10.39065 -10.38320 -10.35898
 Alpha  occ. eigenvalues --  -10.35855 -10.35723 -10.35631 -10.35614 -10.35569
 Alpha  occ. eigenvalues --  -10.35357 -10.35239 -10.34931 -10.34886 -10.34858
 Alpha  occ. eigenvalues --  -10.34852 -10.34848 -10.34718 -10.34686 -10.33987
 Alpha  occ. eigenvalues --  -10.33919 -10.33235 -10.33063 -10.32900 -10.32863
 Alpha  occ. eigenvalues --  -10.32828 -10.32803 -10.32653 -10.32470 -10.32452
 Alpha  occ. eigenvalues --  -10.32415 -10.32314 -10.32220 -10.32173 -10.32074
 Alpha  occ. eigenvalues --  -10.32072 -10.32015 -10.31972 -10.31885 -10.31855
 Alpha  occ. eigenvalues --  -10.31809 -10.31798 -10.31682 -10.31536 -10.31520
 Alpha  occ. eigenvalues --  -10.31227 -10.31140 -10.31106 -10.30824 -10.30798
 Alpha  occ. eigenvalues --  -10.30661 -10.30478 -10.30396 -10.30299 -10.30296
 Alpha  occ. eigenvalues --  -10.30132 -10.29898 -10.29894 -10.29882 -10.29754
 Alpha  occ. eigenvalues --  -10.29697 -10.29679 -10.29622 -10.29293 -10.29151
 Alpha  occ. eigenvalues --  -10.28512  -3.20880  -3.20463  -1.94470  -1.94072
 Alpha  occ. eigenvalues --   -1.94004  -1.93870  -1.93585  -1.93454  -1.19060
 Alpha  occ. eigenvalues --   -1.15582  -1.13434  -1.12157  -1.10818  -1.10814
 Alpha  occ. eigenvalues --   -1.09232  -1.08016  -1.07221  -1.05963  -1.05924
 Alpha  occ. eigenvalues --   -1.05412  -1.05216  -1.04573  -1.04559  -1.04009
 Alpha  occ. eigenvalues --   -0.94048  -0.93483  -0.91235  -0.90857  -0.90553
 Alpha  occ. eigenvalues --   -0.90369  -0.90307  -0.89943  -0.89805  -0.89421
 Alpha  occ. eigenvalues --   -0.89301  -0.88888  -0.88206  -0.87491  -0.86257
 Alpha  occ. eigenvalues --   -0.85885  -0.85002  -0.84898  -0.84159  -0.83643
 Alpha  occ. eigenvalues --   -0.83464  -0.83280  -0.82559  -0.82350  -0.81996
 Alpha  occ. eigenvalues --   -0.81654  -0.81027  -0.80815  -0.79196  -0.78959
 Alpha  occ. eigenvalues --   -0.78784  -0.78647  -0.77903  -0.77810  -0.77111
 Alpha  occ. eigenvalues --   -0.77014  -0.75130  -0.74492  -0.73623  -0.73343
 Alpha  occ. eigenvalues --   -0.71582  -0.71102  -0.70923  -0.70605  -0.69967
 Alpha  occ. eigenvalues --   -0.69475  -0.69329  -0.69047  -0.67772  -0.67737
 Alpha  occ. eigenvalues --   -0.67545  -0.67199  -0.66981  -0.66631  -0.66352
 Alpha  occ. eigenvalues --   -0.65959  -0.64283  -0.63398  -0.62783  -0.62446
 Alpha  occ. eigenvalues --   -0.61618  -0.61347  -0.61162  -0.60678  -0.60556
 Alpha  occ. eigenvalues --   -0.60271  -0.59866  -0.59757  -0.59328  -0.59072
 Alpha  occ. eigenvalues --   -0.58300  -0.58093  -0.57198  -0.57018  -0.56886
 Alpha  occ. eigenvalues --   -0.56581  -0.56404  -0.55970  -0.55662  -0.55396
 Alpha  occ. eigenvalues --   -0.55288  -0.55167  -0.54905  -0.54569  -0.54462
 Alpha  occ. eigenvalues --   -0.54455  -0.54295  -0.54241  -0.54081  -0.53969
 Alpha  occ. eigenvalues --   -0.53555  -0.53503  -0.53278  -0.53234  -0.52917
 Alpha  occ. eigenvalues --   -0.52715  -0.52525  -0.52353  -0.52155  -0.51918
 Alpha  occ. eigenvalues --   -0.51833  -0.51788  -0.51661  -0.51648  -0.51506
 Alpha  occ. eigenvalues --   -0.51348  -0.51224  -0.51102  -0.51022  -0.50669
 Alpha  occ. eigenvalues --   -0.50595  -0.50320  -0.50152  -0.50073  -0.49989
 Alpha  occ. eigenvalues --   -0.49885  -0.49615  -0.49479  -0.49438  -0.49357
 Alpha  occ. eigenvalues --   -0.49217  -0.49084  -0.48919  -0.48859  -0.48716
 Alpha  occ. eigenvalues --   -0.48631  -0.48425  -0.48071  -0.47816  -0.47767
 Alpha  occ. eigenvalues --   -0.47428  -0.47053  -0.46954  -0.46845  -0.46682
 Alpha  occ. eigenvalues --   -0.46672  -0.46620  -0.46516  -0.46281  -0.46243
 Alpha  occ. eigenvalues --   -0.46099  -0.45971  -0.45831  -0.45729  -0.45662
 Alpha  occ. eigenvalues --   -0.45299  -0.45213  -0.44964  -0.44836  -0.44708
 Alpha  occ. eigenvalues --   -0.44584  -0.44522  -0.44483  -0.44129  -0.43953
 Alpha  occ. eigenvalues --   -0.43943  -0.43776  -0.43475  -0.43447  -0.43202
 Alpha  occ. eigenvalues --   -0.43201  -0.42704  -0.42649  -0.42548  -0.42325
 Alpha  occ. eigenvalues --   -0.42192  -0.42012  -0.41796  -0.41343  -0.41249
 Alpha  occ. eigenvalues --   -0.40564  -0.40455  -0.40111  -0.39824  -0.39386
 Alpha  occ. eigenvalues --   -0.39273  -0.39264  -0.38983  -0.38463  -0.38122
 Alpha  occ. eigenvalues --   -0.37788  -0.37452  -0.36580  -0.36472  -0.36332
 Alpha  occ. eigenvalues --   -0.35928  -0.35566  -0.35192  -0.33867  -0.33800
 Alpha  occ. eigenvalues --   -0.33178  -0.32907  -0.32767  -0.32538  -0.32420
 Alpha  occ. eigenvalues --   -0.31765  -0.31611  -0.31443  -0.26160  -0.25759
 Alpha  occ. eigenvalues --   -0.23404  -0.23053
 Alpha virt. eigenvalues --   -0.07433  -0.07286   0.00130   0.00237   0.02224
 Alpha virt. eigenvalues --    0.02232   0.04209   0.04472   0.06621   0.06824
 Alpha virt. eigenvalues --    0.06846   0.06881   0.07783   0.07872   0.07962

 Mulliken charges:
               1
     1  Mg   0.981454
     2  C   -0.071140
     3  C   -0.108172
     4  C   -0.077215
     5  C   -0.077085
     6  N   -0.334271
     7  C    0.003554
     8  C   -0.040057
     9  C   -0.140237
    10  C    0.073052
    11  C    0.018677
    12  C    0.018223
    13  C   -0.105814
    14  H    0.036561
    15  N   -0.531961
    16  C    0.234474
    17  C   -0.151243
    18  C   -0.045530
    19  C    0.152421
    20  C    0.052262
    21  C    0.017299
    22  O   -0.224840
    23  C   -0.005539
    24  N   -0.321179
    25  C    0.055738
    26  C   -0.094111
    27  C   -0.043700
    28  C    0.027598
    29  C    0.014739
    30  C   -0.005371
    31  C   -0.042812
    32  N   -0.449229
    33  C    0.125238
    34  C   -0.138980
    35  C   -0.084613
    36  C    0.187569
    37  C    0.059666
    38  C    0.113499
    39  O   -0.211628
    40  C   -0.083666
    41  C    0.288648
    42  O   -0.260433
    43  O   -0.404806
    44  C    0.141018
    45  H    0.004111
    46  H    0.032127
    47  H    0.000463
    48  H    0.043824
    49  H    0.038824
    50  H    0.033344
    51  H    0.049289
    52  H    0.023064
    53  H    0.024358
    54  H    0.025333
    55  H    0.048811
    56  H    0.067366
    57  H    0.063450
    58  H    0.049871
    59  H    0.030807
    60  H    0.053396
    61  H    0.056053
    62  H    0.038263
    63  H    0.048287
    64  H    0.027397
    65  H    0.030084
    66  H    0.045681
    67  H    0.051219
    68  H    0.026124
    69  H    0.026644
    70  H    0.037038
    71  H    0.054561
    72  H    0.027436
    73  H    0.054072
    74  H    0.037494
    75  H    0.064159
    76  H    0.072186
    77  H    0.058618
    78  H    0.054451
    79  H    0.053733
    80  Mg   0.990498
    81  C   -0.017375
    82  C   -0.078508
    83  C   -0.086435
    84  C   -0.079874
    85  N   -0.298184
    86  C   -0.020049
    87  C   -0.052796
    88  C   -0.107273
    89  C    0.010993
    90  C    0.015702
    91  C    0.042931
    92  C   -0.139027
    93  H   -0.009693
    94  N   -0.512306
    95  C    0.177333
    96  C   -0.130149
    97  C   -0.071040
    98  C    0.182202
    99  C    0.070214
   100  C    0.029680
   101  O   -0.236725
   102  C   -0.016483
   103  N   -0.420583
   104  C    0.093800
   105  C   -0.078901
   106  C   -0.074170
   107  C    0.102034
   108  C    0.012654
   109  C   -0.031790
   110  C   -0.079633
   111  N   -0.424415
   112  C    0.112502
   113  C   -0.186331
   114  C   -0.110923
   115  C    0.145441
   116  C    0.092653
   117  C    0.193577
   118  O   -0.247743
   119  C   -0.086748
   120  C    0.237257
   121  O   -0.214918
   122  O   -0.372228
   123  C    0.133746
   124  H   -0.004427
   125  H    0.020905
   126  H   -0.003369
   127  H    0.041612
   128  H    0.042886
   129  H    0.048380
   130  H    0.034640
   131  H    0.041369
   132  H    0.049050
   133  H    0.046114
   134  H    0.054659
   135  H    0.060388
   136  H    0.047057
   137  H    0.063073
   138  H    0.044793
   139  H    0.052904
   140  H    0.053643
   141  H    0.038445
   142  H    0.046196
   143  H    0.048464
   144  H    0.040217
   145  H    0.042167
   146  H    0.029151
   147  H    0.043014
   148  H    0.034610
   149  H    0.027544
   150  H    0.051938
   151  H    0.040864
   152  H    0.063873
   153  H    0.026387
   154  H    0.068734
   155  H    0.067024
   156  H    0.050246
   157  H    0.052075
   158  H    0.076464
 Sum of Mulliken charges =  -0.00000

 Dipole moment (field-independent basis, Debye):
    X=              6.9242    Y=              0.0510    Z=              5.8339  Tot=              9.0543
 Quadrupole moment (field-independent basis, Debye-Ang):
   XX=           -368.7912   YY=           -480.2764   ZZ=           -506.6058
   XY=             67.1107   XZ=            -38.1788   YZ=             38.4357

 Normal termination of Gaussian 16 at Mon Sep 20 11:20:23 2021.
