 Gaussian 16, Revision A.03,
 Gaussian 16:  ES64L-G16RevA.03 25-Dec-2016

 --------------------------------
 #p wB97XD/Def2SVP td=(nstates=5)
 --------------------------------

 --------------------------------
 TDDFT excited states in gaussian
 --------------------------------
 Symbolic Z-matrix:
 Charge =  0 Multiplicity = 1

                         Standard orientation:
 ---------------------------------------------------------------------
 Center     Atomic      Atomic             Coordinates (Angstroms)
 Number     Number       Type             X           Y           Z
 ---------------------------------------------------------------------
      1         12           0      -13.236820    0.693967    0.097455
      2          6           0      -12.020948   -2.159586   -1.391335
      3          6           0      -15.329576   -1.333106    2.039087
      4          6           0      -14.551720    3.446372    1.543030
      5          6           0      -11.461087    2.608030   -2.070583
      6          7           0      -13.801256   -1.516304    0.089135
      7          6           0      -12.967127   -2.497493   -0.461100
      8          6           0      -13.255221   -3.895449    0.121077
      9          6           0      -14.407302   -3.554973    1.136674
     10          6           0      -14.527291   -2.046340    1.161430
     11          6           0      -15.726926   -4.234409    0.793301
     12          6           0      -12.093428   -4.709272    0.793379
     13          6           0      -11.607916   -6.064668    0.041805
     14          1           0      -11.775720   -7.290432    0.945045
     15          7           0      -14.770326    1.029246    1.477631
     16          6           0      -15.414766    0.053375    2.255010
     17          6           0      -16.177878    0.661289    3.350037
     18          6           0      -16.045775    2.146342    3.203026
     19          6           0      -15.038925    2.295378    2.077645
     20          6           0      -16.962069   -0.146814    4.360272
     21          6           0      -16.645900    3.246356    3.943913
     22          8           0      -16.459813    4.413742    3.569937
     23          6           0      -17.563296    3.039501    5.136352
     24          7           0      -13.080612    2.655109   -0.291912
     25          6           0      -13.613637    3.671025    0.522944
     26          6           0      -13.121033    5.133970    0.176272
     27          6           0      -12.127083    4.782848   -1.047372
     28          6           0      -12.219125    3.242164   -1.126559
     29          6           0      -14.294961    6.157008   -0.224392
     30          6           0      -10.673000    5.304141   -0.781364
     31          6           0       -9.902046    5.855035   -1.939857
     32          7           0      -12.050606    0.282428   -1.518676
     33          6           0      -11.329112    1.192321   -2.296797
     34          6           0      -10.435385    0.515572   -3.173311
     35          6           0      -10.612504   -0.859561   -2.770035
     36          6           0      -11.651274   -0.907029   -1.831703
     37          6           0       -9.459581    1.024926   -4.149210
     38          6           0      -10.243298   -2.200665   -3.099308
     39          8           0       -9.425054   -2.719272   -3.866853
     40          6           0      -11.276669   -3.113401   -2.295545
     41          6           0      -12.112402   -3.862042   -3.271253
     42          8           0      -13.194428   -3.621795   -3.639499
     43          8           0      -11.472209   -5.040397   -3.647913
     44          6           0      -12.352177   -6.100886   -4.093063
     45          1           0      -15.913292   -1.975452    2.701795
     46          1           0      -14.845178    4.406461    1.972493
     47          1           0      -10.777578    3.217009   -2.665845
     48          1           0      -13.678109   -4.517984   -0.666678
     49          1           0      -14.196839   -3.946925    2.132139
     50          1           0      -16.454422   -3.468917    0.524677
     51          1           0      -16.005380   -4.701856    1.737017
     52          1           0      -15.672870   -5.029321    0.049766
     53          1           0      -12.412137   -4.972212    1.802346
     54          1           0      -11.182527   -4.114481    0.862509
     55          1           0      -10.539177   -5.886241   -0.078091
     56          1           0      -12.152363   -6.197336   -0.892850
     57          1           0      -17.843439   -0.523269    3.839598
     58          1           0      -17.264046    0.523162    5.163814
     59          1           0      -16.443179   -1.045174    4.695336
     60          1           0      -18.094945    3.983204    5.260017
     61          1           0      -17.041383    2.749222    6.048788
     62          1           0      -18.415599    2.373692    5.002231
     63          1           0      -12.491380    5.511367    0.981354
     64          1           0      -12.386320    5.248777   -1.998333
     65          1           0      -13.936994    6.787567   -1.038511
     66          1           0      -14.565824    6.907105    0.517639
     67          1           0      -15.215676    5.654473   -0.521444
     68          1           0      -10.030253    4.583201   -0.276432
     69          1           0      -10.655394    6.170211   -0.120043
     70          1           0       -9.094288    5.139821   -2.094269
     71          1           0       -9.307042    6.761414   -1.827801
     72          1           0      -10.544166    5.904086   -2.819884
     73          1           0       -9.140060    2.016819   -3.828412
     74          1           0      -10.033965    1.118176   -5.070807
     75          1           0       -8.707308    0.255332   -4.323200
     76          1           0      -10.738081   -3.829630   -1.675535
     77          1           0      -12.629559   -5.801172   -5.103098
     78          1           0      -13.218730   -6.057417   -3.433486
     79          1           0      -11.839317   -7.062689   -4.121894
     80         12           0       13.444812    0.500512   -0.102559
     81          6           0       11.456910   -2.322929    0.596960
     82          6           0       16.209966   -1.464628    0.048571
     83          6           0       15.313222    3.264256   -0.659972
     84          6           0       10.614802    2.488951    0.206793
     85          7           0       13.803037   -1.590932    0.368460
     86          6           0       12.833908   -2.587946    0.509586
     87          6           0       13.501416   -3.930100    0.534679
     88          6           0       14.971887   -3.565142    0.848196
     89          6           0       15.003843   -2.086041    0.384269
     90          6           0       15.436933   -3.658448    2.335749
     91          6           0       13.347298   -4.799232   -0.769856
     92          6           0       12.956304   -6.221634   -0.523476
     93          1           0       13.727042   -7.294083   -1.315816
     94          7           0       15.422183    0.803488   -0.376351
     95          6           0       16.439859   -0.164933   -0.369971
     96          6           0       17.678096    0.433965   -0.673361
     97          6           0       17.456716    1.872767   -0.903935
     98          6           0       16.049682    2.028926   -0.668528
     99          6           0       19.016462   -0.243126   -0.621922
    100          6           0       18.445879    3.076841   -1.221191
    101          8           0       18.025188    4.196033   -1.394764
    102          6           0       19.935987    2.836179   -1.416713
    103          7           0       13.030659    2.596684   -0.100710
    104          6           0       13.996135    3.521085   -0.341208
    105          6           0       13.377654    4.998325   -0.266357
    106          6           0       11.809717    4.727773   -0.288476
    107          6           0       11.793566    3.159526   -0.039593
    108          6           0       13.798548    5.860293    0.955927
    109          6           0       11.103522    5.134362   -1.630722
    110          6           0        9.956666    6.022345   -1.385977
    111          7           0       11.452506    0.187053    0.361173
    112          6           0       10.388008    1.086976    0.342114
    113          6           0        9.156286    0.391715    0.599268
    114          6           0        9.531953   -0.929555    0.731524
    115          6           0       10.876988   -1.024446    0.559923
    116          6           0        7.778984    1.104855    0.594257
    117          6           0        9.049147   -2.270179    1.007482
    118          8           0        7.934511   -2.607656    1.340605
    119          6           0       10.321266   -3.253594    0.952094
    120          6           0       10.465813   -3.922283    2.258167
    121          8           0       10.613674   -3.321316    3.354559
    122          8           0       10.370468   -5.269181    2.064275
    123          6           0       10.115362   -6.049890    3.303805
    124          1           0       17.054526   -2.148624    0.154620
    125          1           0       15.841454    4.206409   -0.819465
    126          1           0        9.749431    3.133615    0.371071
    127          1           0       13.211440   -4.554214    1.380825
    128          1           0       15.696281   -4.171279    0.303910
    129          1           0       14.957214   -4.459459    2.899720
    130          1           0       15.239505   -2.687048    2.789813
    131          1           0       16.512227   -3.741494    2.491619
    132          1           0       14.306026   -4.710972   -1.280531
    133          1           0       12.643894   -4.349043   -1.470931
    134          1           0       11.896400   -6.191439   -0.776541
    135          1           0       13.157546   -6.480708    0.515905
    136          1           0       19.476663   -0.454387   -1.587411
    137          1           0       18.897175   -1.235268   -0.188443
    138          1           0       19.813159    0.227846   -0.046734
    139          1           0       20.342483    3.786714   -1.759998
    140          1           0       20.123664    1.969504   -2.051227
    141          1           0       20.366416    2.432626   -0.499743
    142          1           0       13.743606    5.595826   -1.101485
    143          1           0       11.361170    5.249779    0.558068
    144          1           0       14.418910    5.369265    1.706410
    145          1           0       12.949000    6.255075    1.513723
    146          1           0       14.351579    6.712376    0.559795
    147          1           0       10.701901    4.233920   -2.096978
    148          1           0       11.740296    5.669101   -2.335173
    149          1           0       10.267317    7.049687   -1.577963
    150          1           0        9.432572    5.962163   -0.432796
    151          1           0        9.139734    5.747502   -2.053289
    152          1           0        7.882588    2.068760    0.095435
    153          1           0        7.335238    1.125869    1.590673
    154          1           0        7.164069    0.485866   -0.058007
    155          1           0       10.218764   -3.999261    0.163287
    156          1           0        9.916662   -7.093174    3.059056
    157          1           0        9.165341   -5.671440    3.681703
    158          1           0       10.957474   -5.862977    3.970734
 ---------------------------------------------------------------------

 SCF Done:  E(RwB97XD) =  -4070.61562035     A.U. after   19 cycles

 Excitation energies and oscillator strengths:

 Excited State   1:      Singlet-A      1.6218 eV  764.49 nm  f=0.4312  <S**2>=0.000
     309 -> 315        0.16223
     312 -> 313        0.68570
     309 <- 315        0.10561
 This state for optimization and/or second-order correction.
 Total Energy, E(TD-HF/TD-DFT) =  -4070.55602105
 Copying the excited state density for this state as the 1-particle RhoCI density.

 Excited State   2:      Singlet-A      1.6894 eV  733.91 nm  f=0.3778  <S**2>=0.000
     310 -> 316        0.18331
     311 -> 314        0.68211
     310 <- 316        0.11549

 Excited State   3:      Singlet-A      2.1349 eV  580.75 nm  f=0.1027  <S**2>=0.000
     309 -> 313        0.64113
     312 -> 315       -0.25921

 Excited State   4:      Singlet-A      2.1432 eV  578.51 nm  f=0.1718  <S**2>=0.000
     310 -> 314        0.64983
     311 -> 316       -0.25185

 Excited State   5:      Singlet-A      3.2001 eV  387.43 nm  f=0.0020  <S**2>=0.000
     305 -> 314       -0.29792
     307 -> 314        0.62236

 The electronic state is 1-A.
 Alpha  occ. eigenvalues --  -46.94251 -46.93515 -19.30842 -19.27321 -19.24910
 Alpha  occ. eigenvalues --  -19.24445 -19.24388 -19.24035 -19.23897 -19.22905
 Alpha  occ. eigenvalues --  -14.47137 -14.46645 -14.46560 -14.46066 -14.44895
 Alpha  occ. eigenvalues --  -14.43942 -14.43121 -14.43085 -10.43249 -10.41837
 Alpha  occ. eigenvalues --  -10.40333 -10.39297 -10.39005 -10.38127 -10.35880
 Alpha  occ. eigenvalues --  -10.35872 -10.35300 -10.35117 -10.35103 -10.35042
 Alpha  occ. eigenvalues --  -10.34707 -10.34694 -10.34685 -10.34663 -10.34622
 Alpha  occ. eigenvalues --  -10.34396 -10.34283 -10.34171 -10.33978 -10.33456
 Alpha  occ. eigenvalues --  -10.33272 -10.33193 -10.33123 -10.33053 -10.32696
 Alpha  occ. eigenvalues --  -10.32577 -10.32256 -10.32255 -10.32153 -10.32119
 Alpha  occ. eigenvalues --  -10.32009 -10.31819 -10.31806 -10.31799 -10.31788
 Alpha  occ. eigenvalues --  -10.31752 -10.31676 -10.31650 -10.31597 -10.31559
 Alpha  occ. eigenvalues --  -10.31449 -10.31365 -10.31319 -10.31171 -10.31116
 Alpha  occ. eigenvalues --  -10.31000 -10.30606 -10.30535 -10.30448 -10.30386
 Alpha  occ. eigenvalues --  -10.30325 -10.30321 -10.30318 -10.30051 -10.29941
 Alpha  occ. eigenvalues --  -10.29930 -10.29826 -10.29824 -10.29745 -10.29693
 Alpha  occ. eigenvalues --  -10.29583 -10.29167 -10.29087 -10.28425 -10.28419
 Alpha  occ. eigenvalues --  -10.28310  -3.20420  -3.19650  -1.93984  -1.93558
 Alpha  occ. eigenvalues --   -1.93414  -1.93251  -1.92768  -1.92650  -1.18824
 Alpha  occ. eigenvalues --   -1.17902  -1.13933  -1.12511  -1.11774  -1.10240
 Alpha  occ. eigenvalues --   -1.09845  -1.08485  -1.06922  -1.06569  -1.05394
 Alpha  occ. eigenvalues --   -1.05321  -1.04544  -1.04012  -1.03481  -1.02653
 Alpha  occ. eigenvalues --   -0.94513  -0.94481  -0.91056  -0.91041  -0.90528
 Alpha  occ. eigenvalues --   -0.90443  -0.90334  -0.89912  -0.89223  -0.89079
 Alpha  occ. eigenvalues --   -0.88936  -0.88607  -0.88356  -0.87738  -0.86186
 Alpha  occ. eigenvalues --   -0.86094  -0.85678  -0.85302  -0.84784  -0.84286
 Alpha  occ. eigenvalues --   -0.84027  -0.83787  -0.83114  -0.82738  -0.82606
 Alpha  occ. eigenvalues --   -0.82131  -0.80719  -0.80205  -0.79272  -0.79213
 Alpha  occ. eigenvalues --   -0.78662  -0.78546  -0.77623  -0.77157  -0.77100
 Alpha  occ. eigenvalues --   -0.76804  -0.75004  -0.74837  -0.73623  -0.72889
 Alpha  occ. eigenvalues --   -0.71296  -0.70575  -0.70544  -0.70002  -0.69832
 Alpha  occ. eigenvalues --   -0.69492  -0.69490  -0.68499  -0.67542  -0.67432
 Alpha  occ. eigenvalues --   -0.67187  -0.67077  -0.66951  -0.66558  -0.66024
 Alpha  occ. eigenvalues --   -0.65842  -0.63905  -0.62783  -0.62313  -0.62167
 Alpha  occ. eigenvalues --   -0.62069  -0.61288  -0.61226  -0.60946  -0.60376
 Alpha  occ. eigenvalues --   -0.60194  -0.60124  -0.59662  -0.59597  -0.59563
 Alpha  occ. eigenvalues --   -0.58459  -0.58161  -0.57616  -0.57441  -0.57391
 Alpha  occ. eigenvalues --   -0.57194  -0.56861  -0.55798  -0.55696  -0.55517
 Alpha  occ. eigenvalues --   -0.55509  -0.55358  -0.55195  -0.54872  -0.54543
 Alpha  occ. eigenvalues --   -0.54537  -0.54472  -0.54202  -0.54026  -0.53802
 Alpha  occ. eigenvalues --   -0.53720  -0.53490  -0.53456  -0.53212  -0.53034
 Alpha  occ. eigenvalues --   -0.52943  -0.52783  -0.52611  -0.52443  -0.52422
 Alpha  occ. eigenvalues --   -0.52080  -0.52030  -0.51900  -0.51719  -0.51631
 Alpha  occ. eigenvalues --   -0.51519  -0.51332  -0.51326  -0.51085  -0.50879
 Alpha  occ. eigenvalues --   -0.50617  -0.50510  -0.50403  -0.49947  -0.49882
 Alpha  occ. eigenvalues --   -0.49863  -0.49559  -0.49172  -0.49143  -0.48898
 Alpha  occ. eigenvalues --   -0.48731  -0.48707  -0.48545  -0.48359  -0.48342
 Alpha  occ. eigenvalues --   -0.48039  -0.48002  -0.47857  -0.47752  -0.47648
 Alpha  occ. eigenvalues --   -0.47293  -0.47275  -0.47152  -0.46962  -0.46829
 Alpha  occ. eigenvalues --   -0.46664  -0.46565  -0.46560  -0.46379  -0.46260
 Alpha  occ. eigenvalues --   -0.46024  -0.45565  -0.45420  -0.45327  -0.45237
 Alpha  occ. eigenvalues --   -0.45226  -0.44946  -0.44836  -0.44800  -0.44759
 Alpha  occ. eigenvalues --   -0.44548  -0.44491  -0.44278  -0.43921  -0.43847
 Alpha  occ. eigenvalues --   -0.43764  -0.43564  -0.43256  -0.43113  -0.43014
 Alpha  occ. eigenvalues --   -0.42856  -0.42853  -0.42528  -0.42328  -0.41996
 Alpha  occ. eigenvalues --   -0.41941  -0.41768  -0.41021  -0.40955  -0.40707
 Alpha  occ. eigenvalues --   -0.40562  -0.40250  -0.39871  -0.39732  -0.39730
 Alpha  occ. eigenvalues --   -0.39554  -0.39187  -0.38739  -0.38378  -0.37971
 Alpha  occ. eigenvalues --   -0.37894  -0.36814  -0.36381  -0.36211  -0.36076
 Alpha  occ. eigenvalues --   -0.35997  -0.35351  -0.35339  -0.33722  -0.33615
 Alpha  occ. eigenvalues --   -0.33459  -0.33458  -0.32800  -0.32147  -0.32135
 Alpha  occ. eigenvalues --   -0.31777  -0.31724  -0.31316  -0.26253  -0.25858
 Alpha  occ. eigenvalues --   -0.23315  -0.23217
 Alpha virt. eigenvalues --   -0.07586  -0.07346  -0.00179   0.00664   0.01845
 Alpha virt. eigenvalues --    0.02808   0.04366   0.04898   0.05312   0.06503
 Alpha virt. eigenvalues --    0.06724   0.07605   0.07968   0.08080   0.08623

 Mulliken charges:
               1
     1  Mg   0.967440
     2  C    0.011814
     3  C   -0.103261
     4  C   -0.069814
     5  C   -0.098406
     6  N   -0.364193
     7  C   -0.034130
     8  C   -0.002734
     9  C   -0.138120
    10  C    0.093134
    11  C    0.019377
    12  C   -0.009225
    13  C   -0.148512
    14  H    0.036367
    15  N   -0.481804
    16  C    0.200853
    17  C   -0.180036
    18  C   -0.027883
    19  C    0.193706
    20  C    0.079703
    21  C    0.021665
    22  O   -0.252915
    23  C   -0.034259
    24  N   -0.411018
    25  C    0.038752
    26  C   -0.045282
    27  C   -0.088437
    28  C    0.134128
    29  C   -0.000904
    30  C   -0.040885
    31  C   -0.058107
    32  N   -0.418866
    33  C    0.119527
    34  C   -0.179097
    35  C   -0.042421
    36  C    0.138854
    37  C    0.103245
    38  C    0.093111
    39  O   -0.217526
    40  C   -0.114430
    41  C    0.257083
    42  O   -0.187563
    43  O   -0.389558
    44  C    0.148336
    45  H   -0.010913
    46  H    0.025910
    47  H   -0.021884
    48  H    0.032247
    49  H    0.032514
    50  H    0.050053
    51  H    0.027166
    52  H    0.046151
    53  H    0.042880
    54  H    0.040830
    55  H    0.074423
    56  H    0.060324
    57  H    0.058438
    58  H    0.036751
    59  H    0.054146
    60  H    0.050690
    61  H    0.073268
    62  H    0.053502
    63  H    0.052044
    64  H    0.039532
    65  H    0.033907
    66  H    0.046008
    67  H    0.057293
    68  H    0.033859
    69  H    0.029667
    70  H    0.026333
    71  H    0.038796
    72  H    0.035005
    73  H    0.041511
    74  H    0.054271
    75  H    0.067296
    76  H    0.052360
    77  H    0.050761
    78  H    0.036973
    79  H    0.060183
    80  Mg   0.978696
    81  C   -0.032776
    82  C   -0.099718
    83  C   -0.063600
    84  C   -0.089524
    85  N   -0.322106
    86  C    0.015248
    87  C   -0.082521
    88  C   -0.128331
    89  C    0.030532
    90  C    0.020675
    91  C    0.044949
    92  C   -0.121244
    93  H    0.030865
    94  N   -0.523078
    95  C    0.241986
    96  C   -0.149238
    97  C   -0.081355
    98  C    0.154456
    99  C    0.041824
   100  C    0.076174
   101  O   -0.213800
   102  C   -0.007619
   103  N   -0.359249
   104  C    0.071721
   105  C   -0.108295
   106  C   -0.079737
   107  C    0.063581
   108  C    0.008337
   109  C    0.027458
   110  C   -0.074062
   111  N   -0.443813
   112  C    0.130168
   113  C   -0.214672
   114  C    0.007963
   115  C    0.121435
   116  C    0.094232
   117  C    0.108493
   118  O   -0.190683
   119  C   -0.042012
   120  C    0.275626
   121  O   -0.282058
   122  O   -0.371978
   123  C    0.141510
   124  H   -0.011145
   125  H    0.021621
   126  H   -0.003690
   127  H    0.026673
   128  H    0.025664
   129  H    0.045014
   130  H    0.043191
   131  H    0.033095
   132  H    0.030099
   133  H    0.030202
   134  H    0.065402
   135  H    0.054022
   136  H    0.051111
   137  H    0.023035
   138  H    0.045317
   139  H    0.070805
   140  H    0.046659
   141  H    0.048626
   142  H    0.037840
   143  H    0.037671
   144  H    0.044123
   145  H    0.029643
   146  H    0.036980
   147  H    0.035487
   148  H    0.037559
   149  H    0.038824
   150  H    0.028099
   151  H    0.026760
   152  H    0.030833
   153  H    0.066337
   154  H    0.049669
   155  H    0.057772
   156  H    0.060504
   157  H    0.064164
   158  H    0.067574
 Sum of Mulliken charges =  -0.00000

 Dipole moment (field-independent basis, Debye):
    X=              2.3836    Y=             -0.6200    Z=              3.9980  Tot=              4.6958
 Quadrupole moment (field-independent basis, Debye-Ang):
   XX=           -360.8442   YY=           -468.2852   ZZ=           -519.0786
   XY=            -20.1315   XZ=            -81.4630   YZ=            -27.9697

 Normal termination of Gaussian 16 at Mon Sep 20 12:18:26 2021.
