 Gaussian 16, Revision A.03,
 Gaussian 16:  ES64L-G16RevA.03 25-Dec-2016

 --------------------------------
 #p wB97XD/Def2SVP td=(nstates=5)
 --------------------------------

 --------------------------------
 TDDFT excited states in gaussian
 --------------------------------
 Symbolic Z-matrix:
 Charge =  0 Multiplicity = 1

                         Standard orientation:
 ---------------------------------------------------------------------
 Center     Atomic      Atomic             Coordinates (Angstroms)
 Number     Number       Type             X           Y           Z
 ---------------------------------------------------------------------
      1         12           0      -21.295610   -0.766452   -0.106106
      2          6           0      -22.190389    2.542441    0.466564
      3          6           0      -18.371067    0.269207   -1.419105
      4          6           0      -20.788968   -3.869360   -1.352864
      5          6           0      -24.660314   -1.698155    0.497584
      6          7           0      -20.446155    1.173969   -0.312516
      7          6           0      -20.858158    2.420296    0.106346
      8          6           0      -19.801794    3.496498   -0.266985
      9          6           0      -18.945589    2.728461   -1.320648
     10          6           0      -19.183870    1.277997   -0.927299
     11          6           0      -19.367012    2.971332   -2.812631
     12          6           0      -19.187128    4.026909    1.041238
     13          6           0      -18.995749    5.495493    1.072693
     14          1           0      -18.858216    6.071089    2.409065
     15          7           0      -19.692948   -1.685190   -1.021311
     16          6           0      -18.546705   -1.077936   -1.423625
     17          6           0      -17.566768   -2.096547   -1.705817
     18          6           0      -18.293530   -3.341278   -1.681405
     19          6           0      -19.690403   -2.981854   -1.420196
     20          6           0      -16.157075   -1.804629   -2.077255
     21          6           0      -17.850967   -4.800283   -2.027773
     22          8           0      -18.610951   -5.767226   -1.944508
     23          6           0      -16.418510   -5.125257   -2.347189
     24          7           0      -22.680737   -2.425160   -0.692259
     25          6           0      -22.135862   -3.680657   -1.076740
     26          6           0      -23.138652   -4.786630   -1.082994
     27          6           0      -24.271301   -4.071385   -0.277099
     28          6           0      -23.813667   -2.628739   -0.078913
     29          6           0      -23.546679   -5.276725   -2.513577
     30          6           0      -24.561435   -4.736131    1.118065
     31          6           0      -23.325377   -4.958780    2.026340
     32          7           0      -23.055905    0.163586    0.483534
     33          6           0      -24.337190   -0.349055    0.738926
     34          6           0      -25.136280    0.746355    1.143595
     35          6           0      -24.321788    1.869694    1.073257
     36          6           0      -23.095800    1.461594    0.662242
     37          6           0      -26.556746    0.661378    1.603714
     38          6           0      -24.331656    3.251467    1.198572
     39          8           0      -25.266770    4.010565    1.511906
     40          6           0      -22.935713    3.838085    0.829730
     41          6           0      -22.485906    4.552690    2.142200
     42          8           0      -22.175258    3.983673    3.203808
     43          8           0      -22.500977    5.924029    1.911581
     44          6           0      -22.354124    6.843606    3.084341
     45          1           0      -17.508064    0.731249   -1.903204
     46          1           0      -20.773644   -4.939214   -1.574357
     47          1           0      -25.643860   -1.956195    0.895859
     48          1           0      -20.289647    4.375528   -0.686836
     49          1           0      -17.891934    2.949596   -1.152913
     50          1           0      -20.156319    3.705662   -2.975945
     51          1           0      -19.811497    2.071322   -3.235574
     52          1           0      -18.504763    3.350118   -3.361019
     53          1           0      -18.178091    3.618417    1.074771
     54          1           0      -19.812592    3.679765    1.864112
     55          1           0      -19.907392    5.918329    0.650213
     56          1           0      -18.175104    5.751136    0.402692
     57          1           0      -15.866533   -0.797384   -1.779293
     58          1           0      -16.010624   -2.104785   -3.115374
     59          1           0      -15.494038   -2.447832   -1.498556
     60          1           0      -16.475954   -6.032157   -2.949561
     61          1           0      -15.862402   -5.361363   -1.439649
     62          1           0      -15.944125   -4.344648   -2.942734
     63          1           0      -22.827923   -5.668452   -0.520941
     64          1           0      -25.182473   -4.076967   -0.876162
     65          1           0      -23.308888   -4.495060   -3.235578
     66          1           0      -24.597393   -5.523366   -2.666932
     67          1           0      -23.043056   -6.174933   -2.872069
     68          1           0      -25.112442   -5.651227    0.900389
     69          1           0      -25.295886   -4.066483    1.565436
     70          1           0      -23.407629   -4.440493    2.981910
     71          1           0      -22.458992   -4.608729    1.464454
     72          1           0      -23.163376   -6.009379    2.265513
     73          1           0      -27.116596    1.336514    0.956583
     74          1           0      -26.580672    0.940473    2.657096
     75          1           0      -27.032902   -0.311082    1.477820
     76          1           0      -23.077812    4.587111    0.051165
     77          1           0      -23.191510    6.623346    3.746049
     78          1           0      -22.359042    7.916335    2.891384
     79          1           0      -21.394081    6.460129    3.429943
     80         12           0       22.351701    0.447632    0.438405
     81          6           0       18.854522    1.048707    0.355321
     82          6           0       21.791028   -1.545290    3.245723
     83          6           0       25.243728   -0.976207   -0.228686
     84          6           0       22.517893    2.337125   -2.693075
     85          7           0       20.420633   -0.375378    1.524427
     86          6           0       19.209560    0.231227    1.457750
     87          6           0       18.357298   -0.218252    2.630983
     88          6           0       19.371218   -0.497723    3.740525
     89          6           0       20.612411   -0.888712    2.786812
     90          6           0       19.777204    0.651215    4.665434
     91          6           0       17.424593   -1.425943    2.181112
     92          6           0       16.033969   -1.270430    2.657463
     93          1           0       15.319840   -2.525148    3.196604
     94          7           0       23.417095   -1.125614    1.350665
     95          6           0       23.042045   -1.763671    2.559058
     96          6           0       24.107374   -2.678772    2.882841
     97          6           0       25.184614   -2.508854    1.973164
     98          6           0       24.666860   -1.533001    0.949196
     99          6           0       23.999314   -3.601446    4.092770
    100          6           0       26.456415   -3.261235    1.974057
    101          8           0       26.638457   -4.111257    2.836873
    102          6           0       27.554103   -3.175548    0.964956
    103          7           0       23.669002    0.619722   -1.361309
    104          6           0       24.877773    0.045777   -1.199364
    105          6           0       25.841783    0.483455   -2.316936
    106          6           0       25.032035    1.690049   -3.057622
    107          6           0       23.667789    1.601697   -2.325809
    108          6           0       27.322644    0.811804   -1.824182
    109          6           0       24.946848    1.587651   -4.612726
    110          6           0       23.634722    0.998434   -5.234017
    111          7           0       21.057822    1.457030   -0.868056
    112          6           0       21.296299    2.219259   -2.047037
    113          6           0       20.018045    2.977200   -2.401106
    114          6           0       19.090809    2.476465   -1.501256
    115          6           0       19.773080    1.585896   -0.597082
    116          6           0       19.686273    4.005516   -3.499614
    117          6           0       17.730996    2.571466   -1.074079
    118          8           0       16.820748    3.303792   -1.465539
    119          6           0       17.575956    1.550629   -0.003988
    120          6           0       16.726055    0.456281   -0.689311
    121          8           0       17.113746   -0.401054   -1.480286
    122          8           0       15.375549    0.665669   -0.294384
    123          6           0       14.378279   -0.133045   -0.882473
    124          1           0       21.701773   -2.105834    4.178751
    125          1           0       26.257990   -1.378849   -0.262973
    126          1           0       22.500193    3.039538   -3.528166
    127          1           0       17.729097    0.574699    3.036530
    128          1           0       19.185395   -1.281173    4.474324
    129          1           0       19.072560    1.482315    4.670030
    130          1           0       20.830444    0.907803    4.549035
    131          1           0       19.685068    0.193710    5.651157
    132          1           0       17.809942   -2.344774    2.623236
    133          1           0       17.490288   -1.671561    1.121127
    134          1           0       15.544401   -0.867664    1.771505
    135          1           0       16.028693   -0.530830    3.457988
    136          1           0       24.617405   -3.277909    4.930032
    137          1           0       24.211176   -4.620805    3.773420
    138          1           0       22.975663   -3.614944    4.467291
    139          1           0       28.024901   -2.196544    1.057723
    140          1           0       27.259256   -3.330182   -0.073675
    141          1           0       28.402800   -3.799733    1.241964
    142          1           0       25.837624   -0.374282   -2.989184
    143          1           0       25.462177    2.639562   -2.740819
    144          1           0       27.550074    0.293717   -0.892639
    145          1           0       27.647550    1.851844   -1.776628
    146          1           0       27.924165    0.519840   -2.686437
    147          1           0       25.785858    1.038580   -5.039369
    148          1           0       25.004537    2.634133   -4.911160
    149          1           0       24.120183    0.548693   -6.100452
    150          1           0       22.867391    1.695720   -5.571025
    151          1           0       23.261954    0.235088   -4.550739
    152          1           0       19.328472    4.938771   -3.066142
    153          1           0       18.795579    3.503374   -3.876054
    154          1           0       20.513278    4.005729   -4.209324
    155          1           0       17.006023    1.974858    0.822715
    156          1           0       13.363758    0.085518   -0.546875
    157          1           0       14.597977   -1.168330   -0.624735
    158          1           0       14.462717    0.057286   -1.952777
 ---------------------------------------------------------------------

 SCF Done:  E(RwB97XD) =  -4070.57018233     A.U. after   19 cycles

 Excitation energies and oscillator strengths:

 Excited State   1:      Singlet-A      1.6039 eV  773.03 nm  f=0.3864  <S**2>=0.000
     309 -> 316       -0.16814
     311 -> 313        0.68654
     309 <- 316       -0.11351
 This state for optimization and/or second-order correction.
 Total Energy, E(TD-HF/TD-DFT) =  -4070.51124131
 Copying the excited state density for this state as the 1-particle RhoCI density.

 Excited State   2:      Singlet-A      1.6240 eV  763.47 nm  f=0.3453  <S**2>=0.000
     310 -> 315       -0.20431
     312 -> 314        0.67787
     310 <- 315       -0.12287

 Excited State   3:      Singlet-A      2.1336 eV  581.10 nm  f=0.0542  <S**2>=0.000
     310 -> 314        0.61275
     312 -> 315        0.34223

 Excited State   4:      Singlet-A      2.1620 eV  573.48 nm  f=0.1247  <S**2>=0.000
     309 -> 313        0.64150
     311 -> 316        0.27560

 Excited State   5:      Singlet-A      3.2512 eV  381.34 nm  f=0.0002  <S**2>=0.000
     305 -> 313       -0.18387
     305 -> 318        0.10940
     305 -> 321        0.12650
     306 -> 313        0.55383
     308 -> 313       -0.31640

 The electronic state is 1-A.
 Alpha  occ. eigenvalues --  -46.97685 -46.94657 -19.29986 -19.29980 -19.26378
 Alpha  occ. eigenvalues --  -19.24973 -19.24024 -19.23727 -19.22744 -19.22598
 Alpha  occ. eigenvalues --  -14.47020 -14.46547 -14.46546 -14.46063 -14.44864
 Alpha  occ. eigenvalues --  -14.44374 -14.43906 -14.43104 -10.44535 -10.43932
 Alpha  occ. eigenvalues --  -10.39225 -10.38616 -10.38086 -10.37660 -10.35879
 Alpha  occ. eigenvalues --  -10.35720 -10.35488 -10.35487 -10.35388 -10.35076
 Alpha  occ. eigenvalues --  -10.35002 -10.34893 -10.34810 -10.34546 -10.34326
 Alpha  occ. eigenvalues --  -10.34221 -10.34204 -10.34145 -10.33601 -10.33520
 Alpha  occ. eigenvalues --  -10.33358 -10.33151 -10.32862 -10.32601 -10.32486
 Alpha  occ. eigenvalues --  -10.32472 -10.32395 -10.32331 -10.32327 -10.32289
 Alpha  occ. eigenvalues --  -10.32201 -10.32198 -10.31974 -10.31963 -10.31809
 Alpha  occ. eigenvalues --  -10.31808 -10.31791 -10.31674 -10.31641 -10.31593
 Alpha  occ. eigenvalues --  -10.31578 -10.31487 -10.31236 -10.31203 -10.31101
 Alpha  occ. eigenvalues --  -10.31068 -10.31045 -10.30900 -10.30776 -10.30693
 Alpha  occ. eigenvalues --  -10.30517 -10.30319 -10.30252 -10.30234 -10.30200
 Alpha  occ. eigenvalues --  -10.29952 -10.29769 -10.29677 -10.29659 -10.29650
 Alpha  occ. eigenvalues --  -10.29628 -10.29538 -10.29389 -10.29207 -10.29070
 Alpha  occ. eigenvalues --  -10.27806  -3.23389  -3.20686  -1.96905  -1.96551
 Alpha  occ. eigenvalues --   -1.96301  -1.94255  -1.93815  -1.93660  -1.18023
 Alpha  occ. eigenvalues --   -1.16589  -1.11880  -1.11649  -1.11572  -1.10892
 Alpha  occ. eigenvalues --   -1.10181  -1.08858  -1.06849  -1.06237  -1.05911
 Alpha  occ. eigenvalues --   -1.05511  -1.05471  -1.04895  -1.04223  -1.03324
 Alpha  occ. eigenvalues --   -0.96435  -0.94537  -0.91061  -0.91005  -0.90905
 Alpha  occ. eigenvalues --   -0.90651  -0.90443  -0.89709  -0.89695  -0.89234
 Alpha  occ. eigenvalues --   -0.89064  -0.88816  -0.88460  -0.87533  -0.86722
 Alpha  occ. eigenvalues --   -0.86478  -0.85598  -0.85432  -0.84639  -0.84044
 Alpha  occ. eigenvalues --   -0.83584  -0.83505  -0.82927  -0.82836  -0.82336
 Alpha  occ. eigenvalues --   -0.82265  -0.80138  -0.80013  -0.79222  -0.78974
 Alpha  occ. eigenvalues --   -0.78847  -0.78830  -0.77994  -0.77947  -0.77379
 Alpha  occ. eigenvalues --   -0.77178  -0.75230  -0.74772  -0.73989  -0.73855
 Alpha  occ. eigenvalues --   -0.71864  -0.71693  -0.70746  -0.70737  -0.69506
 Alpha  occ. eigenvalues --   -0.69281  -0.68848  -0.68474  -0.67336  -0.67315
 Alpha  occ. eigenvalues --   -0.66942  -0.66723  -0.66578  -0.66577  -0.66440
 Alpha  occ. eigenvalues --   -0.66028  -0.64249  -0.63585  -0.61951  -0.61860
 Alpha  occ. eigenvalues --   -0.61793  -0.61745  -0.61298  -0.61121  -0.60892
 Alpha  occ. eigenvalues --   -0.60422  -0.60295  -0.59548  -0.59038  -0.58951
 Alpha  occ. eigenvalues --   -0.58126  -0.57963  -0.57932  -0.57646  -0.57551
 Alpha  occ. eigenvalues --   -0.57254  -0.56958  -0.56881  -0.56713  -0.56539
 Alpha  occ. eigenvalues --   -0.55665  -0.55428  -0.55326  -0.55002  -0.54952
 Alpha  occ. eigenvalues --   -0.54882  -0.54755  -0.54598  -0.54367  -0.54120
 Alpha  occ. eigenvalues --   -0.53917  -0.53842  -0.53635  -0.53622  -0.53382
 Alpha  occ. eigenvalues --   -0.53360  -0.53276  -0.52506  -0.52405  -0.52262
 Alpha  occ. eigenvalues --   -0.52112  -0.51929  -0.51545  -0.51427  -0.51322
 Alpha  occ. eigenvalues --   -0.51191  -0.51082  -0.50931  -0.50805  -0.50672
 Alpha  occ. eigenvalues --   -0.50450  -0.50437  -0.50203  -0.50014  -0.49891
 Alpha  occ. eigenvalues --   -0.49730  -0.49624  -0.49426  -0.49309  -0.49141
 Alpha  occ. eigenvalues --   -0.48989  -0.48800  -0.48504  -0.48192  -0.48038
 Alpha  occ. eigenvalues --   -0.47925  -0.47877  -0.47856  -0.47823  -0.47631
 Alpha  occ. eigenvalues --   -0.47388  -0.47378  -0.47257  -0.47089  -0.46532
 Alpha  occ. eigenvalues --   -0.46514  -0.46393  -0.46392  -0.46063  -0.46051
 Alpha  occ. eigenvalues --   -0.45827  -0.45670  -0.45469  -0.45367  -0.45362
 Alpha  occ. eigenvalues --   -0.45237  -0.45104  -0.45015  -0.44987  -0.44585
 Alpha  occ. eigenvalues --   -0.44371  -0.44289  -0.43995  -0.43845  -0.43739
 Alpha  occ. eigenvalues --   -0.43519  -0.43496  -0.43331  -0.43043  -0.42993
 Alpha  occ. eigenvalues --   -0.42900  -0.42795  -0.42594  -0.42352  -0.42142
 Alpha  occ. eigenvalues --   -0.41979  -0.41851  -0.41087  -0.41042  -0.40527
 Alpha  occ. eigenvalues --   -0.40202  -0.40168  -0.39955  -0.39909  -0.39654
 Alpha  occ. eigenvalues --   -0.39273  -0.38875  -0.38626  -0.38527  -0.38344
 Alpha  occ. eigenvalues --   -0.38072  -0.37749  -0.37209  -0.36252  -0.36153
 Alpha  occ. eigenvalues --   -0.36091  -0.35639  -0.35456  -0.33559  -0.33523
 Alpha  occ. eigenvalues --   -0.33009  -0.32739  -0.32722  -0.32166  -0.32036
 Alpha  occ. eigenvalues --   -0.31902  -0.31655  -0.31524  -0.26145  -0.25989
 Alpha  occ. eigenvalues --   -0.22986  -0.22858
 Alpha virt. eigenvalues --   -0.07341  -0.06907  -0.00754   0.00446   0.01827
 Alpha virt. eigenvalues --    0.02619   0.02903   0.04291   0.04478   0.05414
 Alpha virt. eigenvalues --    0.06822   0.07148   0.07440   0.07544   0.08383

 Mulliken charges:
               1
     1  Mg   0.955995
     2  C   -0.066797
     3  C   -0.119133
     4  C   -0.021029
     5  C   -0.102796
     6  N   -0.406800
     7  C    0.019921
     8  C   -0.101661
     9  C   -0.087743
    10  C    0.033981
    11  C    0.034855
    12  C    0.039863
    13  C   -0.123660
    14  H    0.052805
    15  N   -0.463904
    16  C    0.229591
    17  C   -0.175564
    18  C   -0.078301
    19  C    0.188315
    20  C    0.069145
    21  C    0.055782
    22  O   -0.248565
    23  C   -0.006173
    24  N   -0.316717
    25  C   -0.057185
    26  C   -0.058075
    27  C   -0.099748
    28  C    0.111965
    29  C    0.018209
    30  C   -0.021924
    31  C   -0.053882
    32  N   -0.435109
    33  C    0.116993
    34  C   -0.197861
    35  C    0.053940
    36  C    0.194330
    37  C    0.092949
    38  C    0.016651
    39  O   -0.242799
    40  C   -0.028724
    41  C    0.287648
    42  O   -0.268780
    43  O   -0.389807
    44  C    0.142344
    45  H   -0.000932
    46  H    0.018638
    47  H    0.002539
    48  H    0.020111
    49  H    0.019464
    50  H    0.035603
    51  H    0.053068
    52  H    0.043487
    53  H    0.021641
    54  H    0.065554
    55  H    0.039926
    56  H    0.040171
    57  H    0.041120
    58  H    0.067735
    59  H    0.043157
    60  H    0.054707
    61  H    0.075057
    62  H    0.027214
    63  H    0.045782
    64  H    0.030911
    65  H    0.039600
    66  H    0.032770
    67  H    0.042663
    68  H    0.031238
    69  H    0.022899
    70  H    0.046443
    71  H    0.045758
    72  H    0.042276
    73  H    0.058135
    74  H    0.067986
    75  H    0.019621
    76  H    0.066926
    77  H    0.068308
    78  H    0.069547
    79  H    0.058336
    80  Mg   0.936359
    81  C    0.010889
    82  C   -0.075278
    83  C   -0.029826
    84  C   -0.064575
    85  N   -0.298247
    86  C   -0.021571
    87  C   -0.052054
    88  C   -0.134049
    89  C    0.044066
    90  C    0.038264
    91  C    0.033721
    92  C   -0.117036
    93  H    0.034869
    94  N   -0.490256
    95  C    0.145875
    96  C   -0.165588
    97  C   -0.024980
    98  C    0.111620
    99  C    0.096298
   100  C   -0.007013
   101  O   -0.246421
   102  C    0.014062
   103  N   -0.325620
   104  C    0.062934
   105  C   -0.098317
   106  C   -0.020537
   107  C    0.007597
   108  C    0.005967
   109  C   -0.047082
   110  C   -0.048095
   111  N   -0.422748
   112  C    0.106804
   113  C   -0.210773
   114  C   -0.023497
   115  C    0.161923
   116  C    0.090958
   117  C    0.075741
   118  O   -0.216331
   119  C   -0.055022
   120  C    0.276457
   121  O   -0.229436
   122  O   -0.374857
   123  C    0.144831
   124  H    0.004539
   125  H   -0.047357
   126  H   -0.000866
   127  H    0.012662
   128  H    0.029580
   129  H    0.042130
   130  H    0.047041
   131  H    0.028413
   132  H    0.032676
   133  H    0.056464
   134  H    0.045282
   135  H    0.046273
   136  H    0.058357
   137  H    0.061366
   138  H    0.009469
   139  H    0.040881
   140  H    0.071634
   141  H    0.046934
   142  H    0.050780
   143  H    0.037840
   144  H    0.052421
   145  H    0.033882
   146  H    0.031544
   147  H    0.040241
   148  H    0.030990
   149  H    0.035614
   150  H    0.046441
   151  H    0.060475
   152  H    0.072913
   153  H    0.067963
   154  H    0.038973
   155  H    0.061001
   156  H    0.057977
   157  H    0.041812
   158  H    0.053621
 Sum of Mulliken charges =  -0.00000

 Dipole moment (field-independent basis, Debye):
    X=              5.3731    Y=              3.0198    Z=             -1.7492  Tot=              6.4069
 Quadrupole moment (field-independent basis, Debye-Ang):
   XX=           -535.0853   YY=           -520.2750   ZZ=           -497.6977
   XY=            133.5548   XZ=              1.4701   YZ=             -2.9538

 Normal termination of Gaussian 16 at Sun Sep 19 09:14:35 2021.
