 Gaussian 16, Revision A.03,
 Gaussian 16:  ES64L-G16RevA.03 25-Dec-2016

 --------------------------------
 #p wB97XD/Def2SVP td=(nstates=5)
 --------------------------------

 --------------------------------
 TDDFT excited states in gaussian
 --------------------------------
 Symbolic Z-matrix:
 Charge =  0 Multiplicity = 1

                         Standard orientation:
 ---------------------------------------------------------------------
 Center     Atomic      Atomic             Coordinates (Angstroms)
 Number     Number       Type             X           Y           Z
 ---------------------------------------------------------------------
      1         12           0      -24.946406    0.624358    0.406065
      2          6           0      -25.586931   -2.275974   -1.515848
      3          6           0      -24.492926   -1.386932    3.173869
      4          6           0      -24.626764    3.429163    2.280237
      5          6           0      -25.625720    2.635874   -2.383513
      6          7           0      -25.153642   -1.559915    0.702744
      7          6           0      -25.201939   -2.575532   -0.249217
      8          6           0      -25.046576   -4.002566    0.419250
      9          6           0      -24.981468   -3.641424    1.927180
     10          6           0      -24.922318   -2.098227    1.976623
     11          6           0      -26.119462   -4.184306    2.870251
     12          6           0      -23.915800   -4.943251   -0.167400
     13          6           0      -24.396667   -6.249385   -0.723410
     14          1           0      -23.452011   -7.493831   -0.487889
     15          7           0      -24.623935    0.913060    2.401474
     16          6           0      -24.391165   -0.017213    3.394025
     17          6           0      -24.203475    0.667002    4.663797
     18          6           0      -24.230831    2.075602    4.459120
     19          6           0      -24.482577    2.206847    2.976854
     20          6           0      -23.849618   -0.046207    5.984322
     21          6           0      -24.017767    3.217397    5.447759
     22          8           0      -23.979478    4.388306    5.130139
     23          6           0      -23.713595    3.016145    6.988850
     24          7           0      -25.202523    2.757835    0.010826
     25          6           0      -25.013507    3.686876    0.938746
     26          6           0      -25.187473    5.137860    0.363859
     27          6           0      -25.317454    4.873736   -1.188421
     28          6           0      -25.362752    3.316074   -1.218789
     29          6           0      -26.339809    5.910212    1.068871
     30          6           0      -24.196764    5.524027   -1.975255
     31          6           0      -24.651238    6.190754   -3.272427
     32          7           0      -25.630110    0.360271   -1.543839
     33          6           0      -25.768247    1.245635   -2.595600
     34          6           0      -26.258186    0.502790   -3.715712
     35          6           0      -26.171153   -0.872708   -3.386838
     36          6           0      -25.781245   -0.939260   -2.020121
     37          6           0      -26.682270    1.068148   -5.017981
     38          6           0      -26.287765   -2.240465   -3.921944
     39          8           0      -26.704976   -2.686384   -4.986833
     40          6           0      -25.833923   -3.244507   -2.608330
     41          6           0      -26.891785   -4.160368   -2.315037
     42          8           0      -27.643773   -4.065744   -1.369347
     43          8           0      -26.858311   -5.236822   -3.172415
     44          6           0      -27.974366   -6.187470   -2.941351
     45          1           0      -24.220450   -1.987244    4.044625
     46          1           0      -24.581889    4.363178    2.843279
     47          1           0      -25.733916    3.330424   -3.219965
     48          1           0      -26.037896   -4.445377    0.328999
     49          1           0      -24.050038   -3.997194    2.367698
     50          1           0      -25.634098   -4.489162    3.797914
     51          1           0      -26.612839   -5.017309    2.370066
     52          1           0      -26.886499   -3.450335    3.118107
     53          1           0      -23.197740   -5.082372    0.640887
     54          1           0      -23.457891   -4.402179   -0.995623
     55          1           0      -24.517290   -6.166141   -1.804312
     56          1           0      -25.367965   -6.383360   -0.248084
     57          1           0      -22.832424    0.271439    6.210723
     58          1           0      -23.760975   -1.116369    5.795743
     59          1           0      -24.480073    0.196931    6.840508
     60          1           0      -22.823062    2.392654    7.075309
     61          1           0      -24.603493    2.763920    7.566294
     62          1           0      -23.596594    4.028504    7.374392
     63          1           0      -24.298812    5.758809    0.475225
     64          1           0      -26.308812    5.231427   -1.467270
     65          1           0      -26.994552    6.323268    0.301013
     66          1           0      -25.988044    6.661791    1.776071
     67          1           0      -26.929361    5.218502    1.668358
     68          1           0      -23.396890    4.822002   -2.208474
     69          1           0      -23.636460    6.276415   -1.418043
     70          1           0      -25.684812    5.938436   -3.509634
     71          1           0      -24.016312    5.785232   -4.060659
     72          1           0      -24.456351    7.263275   -3.280565
     73          1           0      -26.636812    2.151030   -5.133331
     74          1           0      -27.608916    0.556535   -5.280918
     75          1           0      -25.841365    0.824704   -5.667817
     76          1           0      -24.934234   -3.797159   -2.880451
     77          1           0      -28.928369   -5.678131   -3.079338
     78          1           0      -27.809942   -6.607624   -1.949147
     79          1           0      -27.987996   -7.008241   -3.657404
     80         12           0       24.808249    0.713409   -0.292953
     81          6           0       26.065300   -2.002261    1.676763
     82          6           0       23.600033   -1.750763   -2.509175
     83          6           0       24.231788    3.018987   -2.541546
     84          6           0       26.369109    2.893195    1.798629
     85          7           0       24.804813   -1.599793   -0.343001
     86          6           0       25.289347   -2.400746    0.636284
     87          6           0       24.884307   -3.834341    0.335308
     88          6           0       24.062059   -3.834177   -0.984188
     89          6           0       24.117492   -2.326577   -1.297636
     90          6           0       24.676331   -4.809399   -2.139028
     91          6           0       24.026318   -4.488617    1.501328
     92          6           0       24.449210   -5.884025    1.961702
     93          1           0       25.064947   -6.926229    0.944097
     94          7           0       24.064409    0.634644   -2.295508
     95          6           0       23.626352   -0.417646   -2.953653
     96          6           0       23.201338    0.033235   -4.248844
     97          6           0       23.212405    1.450408   -4.294851
     98          6           0       23.875837    1.749337   -3.052823
     99          6           0       22.528788   -0.889034   -5.264352
    100          6           0       22.642908    2.487674   -5.249911
    101          8           0       22.836668    3.682770   -5.122557
    102          6           0       21.759672    1.961246   -6.347503
    103          7           0       25.561537    2.607370   -0.498758
    104          6           0       24.985508    3.451400   -1.450021
    105          6           0       25.211638    4.957118   -1.144767
    106          6           0       25.750989    4.835074    0.330211
    107          6           0       25.908613    3.335409    0.580981
    108          6           0       26.175222    5.583301   -2.163276
    109          6           0       24.734482    5.398071    1.432493
    110          6           0       25.042531    6.705123    2.082667
    111          7           0       25.860869    0.537800    1.420080
    112          6           0       26.469528    1.535131    2.150975
    113          6           0       27.276228    1.017839    3.253199
    114          6           0       27.145898   -0.410157    3.115285
    115          6           0       26.396104   -0.638712    1.937384
    116          6           0       27.854666    1.859558    4.332484
    117          6           0       27.437314   -1.696803    3.728600
    118          8           0       28.056711   -1.900164    4.788703
    119          6           0       26.753742   -2.834685    2.777098
    120          6           0       27.867311   -3.642146    2.304748
    121          8           0       28.821751   -3.190769    1.710401
    122          8           0       27.694770   -4.936185    2.599130
    123          6           0       28.723704   -5.973478    2.274981
    124          1           0       23.141245   -2.468403   -3.192393
    125          1           0       23.722319    3.867401   -3.004576
    126          1           0       26.780989    3.633806    2.486936
    127          1           0       25.803252   -4.396328    0.168463
    128          1           0       23.065577   -4.253422   -0.844022
    129          1           0       25.300542   -5.586958   -1.698624
    130          1           0       25.238315   -4.143138   -2.794042
    131          1           0       23.863912   -5.257061   -2.711223
    132          1           0       22.951472   -4.512262    1.327047
    133          1           0       24.121234   -3.878647    2.399595
    134          1           0       23.632276   -6.407708    2.458612
    135          1           0       25.158945   -5.665638    2.759636
    136          1           0       21.439482   -0.848795   -5.251308
    137          1           0       22.916484   -1.906310   -5.202283
    138          1           0       22.869518   -0.554630   -6.243977
    139          1           0       21.069978    1.170662   -6.050334
    140          1           0       22.291058    1.567726   -7.212906
    141          1           0       21.029303    2.727072   -6.608734
    142          1           0       24.241644    5.449130   -1.211045
    143          1           0       26.689293    5.386867    0.388369
    144          1           0       26.397707    4.951171   -3.022823
    145          1           0       27.145389    5.800665   -1.717858
    146          1           0       25.757802    6.526140   -2.518228
    147          1           0       24.575403    4.740038    2.286750
    148          1           0       23.713120    5.472491    1.060975
    149          1           0       24.275029    7.437928    1.836889
    150          1           0       26.003777    6.974253    1.644466
    151          1           0       25.077850    6.593601    3.166330
    152          1           0       27.847475    1.338535    5.289266
    153          1           0       27.319410    2.808276    4.297909
    154          1           0       28.892518    2.049251    4.055263
    155          1           0       26.065627   -3.468045    3.335347
    156          1           0       29.696871   -5.642563    2.638142
    157          1           0       28.812757   -6.155723    1.203738
    158          1           0       28.462483   -6.973088    2.621220
 ---------------------------------------------------------------------

 SCF Done:  E(RwB97XD) =  -4070.60396281     A.U. after   19 cycles

 Excitation energies and oscillator strengths:

 Excited State   1:      Singlet-A      1.6235 eV  763.67 nm  f=0.4016  <S**2>=0.000
     310 -> 316       -0.17886
     312 -> 313        0.68453
     310 <- 316       -0.11640
 This state for optimization and/or second-order correction.
 Total Energy, E(TD-HF/TD-DFT) =  -4070.54429879
 Copying the excited state density for this state as the 1-particle RhoCI density.

 Excited State   2:      Singlet-A      1.7609 eV  704.11 nm  f=0.3731  <S**2>=0.000
     309 -> 315       -0.17860
     311 -> 314        0.68335
     309 <- 315       -0.10772

 Excited State   3:      Singlet-A      2.1424 eV  578.72 nm  f=0.1281  <S**2>=0.000
     310 -> 313        0.64797
     312 -> 316        0.26647

 Excited State   4:      Singlet-A      2.2096 eV  561.12 nm  f=0.1120  <S**2>=0.000
     309 -> 314        0.63747
     311 -> 315        0.28426

 Excited State   5:      Singlet-A      3.3487 eV  370.24 nm  f=0.0016  <S**2>=0.000
     305 -> 313       -0.11142
     307 -> 313        0.67183

 The electronic state is 1-A.
 Alpha  occ. eigenvalues --  -46.94986 -46.94603 -19.30478 -19.29507 -19.24986
 Alpha  occ. eigenvalues --  -19.24567 -19.24380 -19.24125 -19.24101 -19.23464
 Alpha  occ. eigenvalues --  -14.46921 -14.46507 -14.46361 -14.46325 -14.45039
 Alpha  occ. eigenvalues --  -14.44014 -14.43671 -14.43299 -10.42325 -10.42092
 Alpha  occ. eigenvalues --  -10.40478 -10.39990 -10.39766 -10.39550 -10.36690
 Alpha  occ. eigenvalues --  -10.36294 -10.36195 -10.35389 -10.35384 -10.35308
 Alpha  occ. eigenvalues --  -10.34982 -10.34808 -10.34521 -10.34484 -10.34287
 Alpha  occ. eigenvalues --  -10.34170 -10.33769 -10.33691 -10.33625 -10.33223
 Alpha  occ. eigenvalues --  -10.33102 -10.33037 -10.32759 -10.32688 -10.32645
 Alpha  occ. eigenvalues --  -10.32611 -10.32409 -10.32349 -10.32279 -10.32179
 Alpha  occ. eigenvalues --  -10.32112 -10.32037 -10.32009 -10.31931 -10.31879
 Alpha  occ. eigenvalues --  -10.31870 -10.31854 -10.31693 -10.31688 -10.31662
 Alpha  occ. eigenvalues --  -10.31418 -10.31191 -10.31168 -10.30984 -10.30906
 Alpha  occ. eigenvalues --  -10.30716 -10.30679 -10.30672 -10.30622 -10.30616
 Alpha  occ. eigenvalues --  -10.30325 -10.30323 -10.30273 -10.30152 -10.29965
 Alpha  occ. eigenvalues --  -10.29941 -10.29899 -10.29759 -10.29706 -10.29662
 Alpha  occ. eigenvalues --  -10.29637 -10.29323 -10.29104 -10.28938 -10.28866
 Alpha  occ. eigenvalues --  -10.28828  -3.21051  -3.20568  -1.94605  -1.94183
 Alpha  occ. eigenvalues --   -1.94166  -1.94028  -1.93683  -1.93546  -1.18740
 Alpha  occ. eigenvalues --   -1.17976  -1.13818  -1.13074  -1.11457  -1.10711
 Alpha  occ. eigenvalues --   -1.09577  -1.09572  -1.06699  -1.06105  -1.05537
 Alpha  occ. eigenvalues --   -1.05160  -1.04565  -1.03986  -1.03945  -1.02963
 Alpha  occ. eigenvalues --   -0.94156  -0.93777  -0.91008  -0.90525  -0.90317
 Alpha  occ. eigenvalues --   -0.90172  -0.90033  -0.89984  -0.89283  -0.89073
 Alpha  occ. eigenvalues --   -0.88969  -0.88845  -0.88379  -0.87494  -0.86301
 Alpha  occ. eigenvalues --   -0.86167  -0.86028  -0.85523  -0.84577  -0.84436
 Alpha  occ. eigenvalues --   -0.83764  -0.83243  -0.83020  -0.82683  -0.82676
 Alpha  occ. eigenvalues --   -0.82077  -0.80474  -0.80241  -0.79620  -0.78851
 Alpha  occ. eigenvalues --   -0.78817  -0.78376  -0.78198  -0.77678  -0.76804
 Alpha  occ. eigenvalues --   -0.76701  -0.74498  -0.74234  -0.73415  -0.73311
 Alpha  occ. eigenvalues --   -0.71116  -0.70763  -0.70761  -0.69769  -0.69627
 Alpha  occ. eigenvalues --   -0.69451  -0.69169  -0.68941  -0.67551  -0.67491
 Alpha  occ. eigenvalues --   -0.67115  -0.66765  -0.66645  -0.66626  -0.66507
 Alpha  occ. eigenvalues --   -0.66370  -0.64427  -0.63146  -0.62510  -0.62111
 Alpha  occ. eigenvalues --   -0.61192  -0.61177  -0.60839  -0.60792  -0.60483
 Alpha  occ. eigenvalues --   -0.60049  -0.59964  -0.59770  -0.59479  -0.59029
 Alpha  occ. eigenvalues --   -0.58105  -0.57968  -0.57686  -0.57683  -0.57163
 Alpha  occ. eigenvalues --   -0.56737  -0.56304  -0.56151  -0.55638  -0.55462
 Alpha  occ. eigenvalues --   -0.55272  -0.55257  -0.55189  -0.54971  -0.54956
 Alpha  occ. eigenvalues --   -0.54868  -0.54561  -0.54519  -0.54269  -0.54070
 Alpha  occ. eigenvalues --   -0.54019  -0.53634  -0.53337  -0.53226  -0.53128
 Alpha  occ. eigenvalues --   -0.53063  -0.52797  -0.52556  -0.52523  -0.52483
 Alpha  occ. eigenvalues --   -0.52067  -0.52015  -0.51944  -0.51542  -0.51474
 Alpha  occ. eigenvalues --   -0.51376  -0.51187  -0.51022  -0.50720  -0.50654
 Alpha  occ. eigenvalues --   -0.50585  -0.50504  -0.50342  -0.50046  -0.49983
 Alpha  occ. eigenvalues --   -0.49934  -0.49696  -0.49689  -0.49495  -0.49372
 Alpha  occ. eigenvalues --   -0.48713  -0.48674  -0.48547  -0.48353  -0.48178
 Alpha  occ. eigenvalues --   -0.48144  -0.48064  -0.47937  -0.47840  -0.47486
 Alpha  occ. eigenvalues --   -0.47242  -0.47119  -0.47053  -0.46772  -0.46679
 Alpha  occ. eigenvalues --   -0.46475  -0.46434  -0.46207  -0.45982  -0.45896
 Alpha  occ. eigenvalues --   -0.45769  -0.45556  -0.45497  -0.45281  -0.45212
 Alpha  occ. eigenvalues --   -0.45177  -0.45002  -0.44989  -0.44706  -0.44616
 Alpha  occ. eigenvalues --   -0.44458  -0.44320  -0.44212  -0.43912  -0.43784
 Alpha  occ. eigenvalues --   -0.43497  -0.43424  -0.43355  -0.43212  -0.43154
 Alpha  occ. eigenvalues --   -0.42926  -0.42484  -0.42450  -0.42222  -0.42201
 Alpha  occ. eigenvalues --   -0.41957  -0.41629  -0.41585  -0.41331  -0.41277
 Alpha  occ. eigenvalues --   -0.40621  -0.40300  -0.39868  -0.39672  -0.39226
 Alpha  occ. eigenvalues --   -0.39071  -0.38916  -0.38550  -0.38245  -0.38243
 Alpha  occ. eigenvalues --   -0.38136  -0.37858  -0.36465  -0.36185  -0.35801
 Alpha  occ. eigenvalues --   -0.35718  -0.35352  -0.35250  -0.33936  -0.33710
 Alpha  occ. eigenvalues --   -0.33515  -0.33417  -0.32902  -0.32799  -0.32283
 Alpha  occ. eigenvalues --   -0.32201  -0.31598  -0.30771  -0.26039  -0.25767
 Alpha  occ. eigenvalues --   -0.23174  -0.22781
 Alpha virt. eigenvalues --   -0.07096  -0.06857   0.00131   0.00785   0.02073
 Alpha virt. eigenvalues --    0.02197   0.04139   0.04192   0.04918   0.05996
 Alpha virt. eigenvalues --    0.06901   0.07352   0.07850   0.07892   0.08142

 Mulliken charges:
               1
     1  Mg   0.955422
     2  C    0.013800
     3  C   -0.100477
     4  C   -0.065437
     5  C   -0.067028
     6  N   -0.380865
     7  C   -0.011948
     8  C   -0.051910
     9  C   -0.156854
    10  C    0.113178
    11  C    0.022935
    12  C    0.049746
    13  C   -0.135417
    14  H    0.029587
    15  N   -0.510043
    16  C    0.184536
    17  C   -0.168121
    18  C   -0.051390
    19  C    0.184680
    20  C    0.065896
    21  C    0.037461
    22  O   -0.218193
    23  C   -0.019117
    24  N   -0.317851
    25  C    0.037510
    26  C   -0.121219
    27  C   -0.060582
    28  C    0.021316
    29  C    0.018086
    30  C    0.000710
    31  C   -0.057005
    32  N   -0.463992
    33  C    0.166546
    34  C   -0.208659
    35  C   -0.042137
    36  C    0.161298
    37  C    0.091206
    38  C    0.152394
    39  O   -0.199079
    40  C   -0.162787
    41  C    0.269555
    42  O   -0.250504
    43  O   -0.372326
    44  C    0.150422
    45  H   -0.008624
    46  H    0.020402
    47  H   -0.018264
    48  H    0.051659
    49  H    0.032764
    50  H    0.036889
    51  H    0.043467
    52  H    0.050807
    53  H    0.038815
    54  H    0.034440
    55  H    0.066027
    56  H    0.050654
    57  H    0.052518
    58  H    0.034064
    59  H    0.066413
    60  H    0.061609
    61  H    0.055666
    62  H    0.047384
    63  H    0.040342
    64  H    0.034412
    65  H    0.035230
    66  H    0.050599
    67  H    0.041490
    68  H    0.030935
    69  H    0.027954
    70  H    0.041074
    71  H    0.031077
    72  H    0.041234
    73  H    0.019059
    74  H    0.070184
    75  H    0.044818
    76  H    0.079886
    77  H    0.060111
    78  H    0.049460
    79  H    0.052103
    80  Mg   0.966326
    81  C   -0.049051
    82  C   -0.089656
    83  C   -0.059790
    84  C   -0.106193
    85  N   -0.317416
    86  C    0.011264
    87  C   -0.040445
    88  C   -0.105332
    89  C    0.050254
    90  C   -0.005197
    91  C   -0.008572
    92  C   -0.109747
    93  H    0.017147
    94  N   -0.387969
    95  C    0.163940
    96  C   -0.188165
    97  C   -0.059154
    98  C    0.115244
    99  C    0.051715
   100  C    0.080749
   101  O   -0.219430
   102  C   -0.036912
   103  N   -0.403569
   104  C    0.019076
   105  C   -0.074861
   106  C   -0.053992
   107  C    0.103441
   108  C    0.032752
   109  C   -0.056504
   110  C   -0.031340
   111  N   -0.481480
   112  C    0.161571
   113  C   -0.187067
   114  C   -0.019266
   115  C    0.159881
   116  C    0.089868
   117  C    0.119884
   118  O   -0.226479
   119  C   -0.061889
   120  C    0.258044
   121  O   -0.245665
   122  O   -0.357594
   123  C    0.146436
   124  H   -0.009390
   125  H    0.024559
   126  H    0.000991
   127  H    0.044144
   128  H    0.046793
   129  H    0.047930
   130  H    0.045200
   131  H    0.037817
   132  H    0.030165
   133  H    0.028291
   134  H    0.044343
   135  H    0.052384
   136  H    0.066467
   137  H    0.038135
   138  H    0.031202
   139  H    0.036058
   140  H    0.074690
   141  H    0.049272
   142  H    0.043683
   143  H    0.035671
   144  H    0.053049
   145  H    0.026345
   146  H    0.041768
   147  H    0.029345
   148  H    0.020472
   149  H    0.036574
   150  H    0.025301
   151  H    0.038910
   152  H    0.066618
   153  H    0.037265
   154  H    0.055621
   155  H    0.057942
   156  H    0.070429
   157  H    0.046847
   158  H    0.060253
 Sum of Mulliken charges =  -0.00000

 Dipole moment (field-independent basis, Debye):
    X=             -2.0386    Y=             -0.8433    Z=              2.8098  Tot=              3.5724
 Quadrupole moment (field-independent basis, Debye-Ang):
   XX=           -864.5400   YY=           -462.9112   ZZ=           -515.2965
   XY=            -41.7209   XZ=           -159.0523   YZ=             -3.9165

 Normal termination of Gaussian 16 at Mon Sep 20 13:23:29 2021.
