 Gaussian 16, Revision A.03,
 Gaussian 16:  ES64L-G16RevA.03 25-Dec-2016

 --------------------------------
 #p wB97XD/Def2SVP td=(nstates=5)
 --------------------------------

 --------------------------------
 TDDFT excited states in gaussian
 --------------------------------
 Symbolic Z-matrix:
 Charge =  0 Multiplicity = 1

                         Standard orientation:
 ---------------------------------------------------------------------
 Center     Atomic      Atomic             Coordinates (Angstroms)
 Number     Number       Type             X           Y           Z
 ---------------------------------------------------------------------
      1         12           0        3.890152   -0.815106   -0.947041
      2          6           0        5.909311    1.795698    0.141104
      3          6           0        1.159092    1.040458   -0.277937
      4          6           0        1.969876   -3.582522   -1.252134
      5          6           0        6.717644   -2.946945   -0.827448
      6          7           0        3.674557    1.185098   -0.252697
      7          6           0        4.586888    2.185333    0.003638
      8          6           0        3.859081    3.487672    0.436885
      9          6           0        2.440950    2.940498    0.787139
     10          6           0        2.369961    1.677518   -0.058549
     11          6           0        2.223898    2.601208    2.303836
     12          6           0        4.069170    4.535629   -0.671377
     13          6           0        4.370031    5.897629   -0.172588
     14          1           0        5.010351    6.782621   -1.143617
     15          7           0        1.853765   -1.131915   -1.001472
     16          6           0        0.893755   -0.203002   -0.756547
     17          6           0       -0.370608   -0.724109   -1.211861
     18          6           0       -0.125188   -2.113236   -1.508892
     19          6           0        1.281564   -2.350117   -1.171833
     20          6           0       -1.636843    0.054918   -1.198359
     21          6           0       -1.096971   -3.266353   -1.921796
     22          8           0       -0.712847   -4.415316   -2.149433
     23          6           0       -2.548620   -2.998321   -2.205424
     24          7           0        4.301292   -2.999989   -0.681113
     25          6           0        3.288541   -3.941563   -1.010905
     26          6           0        3.796908   -5.339022   -1.143088
     27          6           0        5.325394   -5.019167   -1.216313
     28          6           0        5.465231   -3.522238   -0.952533
     29          6           0        3.370941   -6.291535    0.025037
     30          6           0        5.974055   -5.380123   -2.602493
     31          6           0        5.253574   -4.809346   -3.850491
     32          7           0        5.922053   -0.637166   -0.558448
     33          6           0        6.961557   -1.579292   -0.597751
     34          6           0        8.149445   -0.882599   -0.272535
     35          6           0        7.772613    0.428696   -0.010358
     36          6           0        6.430627    0.511999   -0.185452
     37          6           0        9.526655   -1.465628   -0.277415
     38          6           0        8.258177    1.650420    0.433169
     39          8           0        9.418706    1.974261    0.744849
     40          6           0        7.094880    2.679012    0.565688
     41          6           0        7.502818    3.815166   -0.423407
     42          8           0        7.526904    3.718544   -1.663317
     43          8           0        7.834926    4.938542    0.326068
     44          6           0        8.501493    6.085189   -0.369233
     45          1           0        0.359045    1.699712    0.065455
     46          1           0        1.533328   -4.555529   -1.489964
     47          1           0        7.644920   -3.503487   -0.979069
     48          1           0        4.358827    3.931831    1.297086
     49          1           0        1.688953    3.634229    0.412358
     50          1           0        3.046211    2.850909    2.974931
     51          1           0        2.141272    1.524517    2.446586
     52          1           0        1.371081    3.172384    2.670092
     53          1           0        3.104019    4.632301   -1.166639
     54          1           0        4.850366    4.162642   -1.334285
     55          1           0        5.088053    5.760902    0.636191
     56          1           0        3.461934    6.314313    0.262669
     57          1           0       -1.445315    1.126403   -1.143799
     58          1           0       -2.303847   -0.394489   -0.461900
     59          1           0       -2.143807   -0.069661   -2.155275
     60          1           0       -3.039183   -3.955361   -2.026426
     61          1           0       -2.697557   -2.737121   -3.253385
     62          1           0       -2.970436   -2.260901   -1.521795
     63          1           0        3.508142   -5.828385   -2.074326
     64          1           0        5.835208   -5.569505   -0.424884
     65          1           0        3.094913   -5.687732    0.889943
     66          1           0        4.118891   -7.002529    0.376332
     67          1           0        2.513740   -6.935720   -0.172857
     68          1           0        6.066246   -6.466314   -2.611591
     69          1           0        6.995483   -5.013017   -2.502974
     70          1           0        5.897060   -4.163304   -4.448031
     71          1           0        4.382597   -4.264519   -3.485200
     72          1           0        4.898850   -5.588810   -4.524147
     73          1           0        9.926244   -1.284971    0.720439
     74          1           0       10.090057   -0.977055   -1.072369
     75          1           0        9.577774   -2.546224   -0.411408
     76          1           0        7.106088    3.074389    1.581043
     77          1           0        9.430992    5.689756   -0.778197
     78          1           0        8.750008    6.963888    0.225857
     79          1           0        7.721107    6.258362   -1.110305
     80         12           0       -4.082170   -0.475374    0.935422
     81          6           0       -5.310912    2.659576   -0.357676
     82          6           0       -1.541620    1.371956    2.494366
     83          6           0       -3.016581   -3.302607    2.220400
     84          6           0       -6.503689   -2.149906   -0.949602
     85          7           0       -3.516695    1.816563    0.999931
     86          6           0       -4.262637    2.877962    0.594648
     87          6           0       -3.762044    4.185124    1.187251
     88          6           0       -2.317437    3.795708    1.832694
     89          6           0       -2.438846    2.246274    1.756201
     90          6           0       -1.092921    4.431401    1.127961
     91          6           0       -4.761972    4.801952    2.222744
     92          6           0       -5.210867    6.246601    1.881926
     93          1           0       -4.738677    7.359955    2.983732
     94          7           0       -2.549796   -0.890095    2.151597
     95          6           0       -1.541558   -0.032278    2.708160
     96          6           0       -0.571934   -0.746626    3.571907
     97          6           0       -1.069348   -2.089567    3.511848
     98          6           0       -2.239628   -2.130054    2.618993
     99          6           0        0.623683   -0.098515    4.272924
    100          6           0       -0.497663   -3.311279    4.124080
    101          8           0       -1.073406   -4.387510    4.242415
    102          6           0        0.884784   -3.200867    4.796656
    103          7           0       -4.786946   -2.379146    0.797639
    104          6           0       -4.153731   -3.408471    1.405141
    105          6           0       -4.637361   -4.753218    0.938148
    106          6           0       -5.788979   -4.426982   -0.044378
    107          6           0       -5.757230   -2.881971   -0.047794
    108          6           0       -3.554355   -5.665032    0.400722
    109          6           0       -7.218672   -4.985600    0.534403
    110          6           0       -8.058148   -5.946537   -0.470659
    111          7           0       -5.443408    0.076958   -0.601828
    112          6           0       -6.422058   -0.747179   -1.207871
    113          6           0       -7.275909    0.111306   -2.036776
    114          6           0       -6.941084    1.421385   -1.604030
    115          6           0       -5.770452    1.348211   -0.847565
    116          6           0       -8.336374   -0.264166   -3.067441
    117          6           0       -7.212608    2.848843   -1.934801
    118          8           0       -7.983399    3.457371   -2.727908
    119          6           0       -6.225186    3.672033   -1.020335
    120          6           0       -5.474148    4.641332   -1.884768
    121          8           0       -4.993238    4.366623   -2.947618
    122          8           0       -5.532834    5.889367   -1.329424
    123          6           0       -5.116246    6.953458   -2.277432
    124          1           0       -0.699931    1.972953    2.844231
    125          1           0       -2.710215   -4.275144    2.612009
    126          1           0       -7.292032   -2.647798   -1.517578
    127          1           0       -3.581808    4.847842    0.340795
    128          1           0       -2.257848    4.031359    2.895586
    129          1           0       -0.475434    3.666140    0.656741
    130          1           0       -0.496579    5.001927    1.841174
    131          1           0       -1.316009    5.196938    0.384764
    132          1           0       -4.330937    4.845649    3.223280
    133          1           0       -5.680143    4.217988    2.291730
    134          1           0       -6.289692    6.387562    1.952960
    135          1           0       -4.972620    6.581309    0.872806
    136          1           0        0.606770    0.986374    4.381689
    137          1           0        1.602452   -0.364581    3.873899
    138          1           0        0.605165   -0.504506    5.284827
    139          1           0        1.640742   -2.914792    4.065415
    140          1           0        1.166825   -4.116226    5.318015
    141          1           0        0.823686   -2.420457    5.555142
    142          1           0       -4.987807   -5.304431    1.811808
    143          1           0       -5.571777   -4.797678   -1.045698
    144          1           0       -3.312429   -6.492984    1.067672
    145          1           0       -2.579990   -5.195839    0.264927
    146          1           0       -3.879019   -6.030800   -0.573616
    147          1           0       -7.913721   -4.200497    0.830305
    148          1           0       -7.098146   -5.580260    1.439532
    149          1           0       -7.326752   -6.330405   -1.182132
    150          1           0       -8.857352   -5.404499   -0.977872
    151          1           0       -8.409812   -6.843361    0.038712
    152          1           0       -9.144034    0.466195   -3.111912
    153          1           0       -8.836846   -1.162351   -2.703781
    154          1           0       -7.751802   -0.488057   -3.959885
    155          1           0       -6.861246    4.282325   -0.379687
    156          1           0       -4.128730    6.684875   -2.652144
    157          1           0       -4.980415    7.823384   -1.635062
    158          1           0       -5.726519    7.150726   -3.158725
 ---------------------------------------------------------------------

 SCF Done:  E(RwB97XD) =  -4070.62853250     A.U. after   20 cycles

 Excitation energies and oscillator strengths:

 Excited State   1:      Singlet-A      1.5809 eV  784.25 nm  f=0.6923  <S**2>=0.000
     309 -> 316        0.13766
     311 -> 313        0.17679
     311 -> 314        0.31255
     312 -> 313        0.43809
     312 -> 314       -0.38930
 This state for optimization and/or second-order correction.
 Total Energy, E(TD-HF/TD-DFT) =  -4070.57043447
 Copying the excited state density for this state as the 1-particle RhoCI density.

 Excited State   2:      Singlet-A      1.6112 eV  769.53 nm  f=0.0930  <S**2>=0.000
     310 -> 315       -0.15350
     311 -> 313        0.50220
     311 -> 314        0.28062
     312 -> 314        0.35680

 Excited State   3:      Singlet-A      2.0943 eV  592.02 nm  f=0.0542  <S**2>=0.000
     309 -> 314       -0.21698
     310 -> 313        0.51013
     310 -> 314        0.33472
     311 -> 315        0.24335

 Excited State   4:      Singlet-A      2.1610 eV  573.74 nm  f=0.1527  <S**2>=0.000
     309 -> 313       -0.40293
     309 -> 314        0.43988
     310 -> 314        0.22939
     312 -> 316        0.25620

 Excited State   5:      Singlet-A      2.3792 eV  521.11 nm  f=0.0005  <S**2>=0.000
     311 -> 313       -0.14308
     311 -> 314       -0.11500
     312 -> 313        0.52218
     312 -> 314        0.42646

 The electronic state is 1-A.
 Alpha  occ. eigenvalues --  -46.95138 -46.94953 -19.31222 -19.30248 -19.25240
 Alpha  occ. eigenvalues --  -19.25046 -19.24126 -19.24064 -19.23963 -19.23023
 Alpha  occ. eigenvalues --  -14.47586 -14.46874 -14.46810 -14.46352 -14.45636
 Alpha  occ. eigenvalues --  -14.44184 -14.44179 -14.43402 -10.44204 -10.43027
 Alpha  occ. eigenvalues --  -10.39506 -10.39420 -10.39226 -10.37944 -10.36350
 Alpha  occ. eigenvalues --  -10.36000 -10.35983 -10.35969 -10.35963 -10.35677
 Alpha  occ. eigenvalues --  -10.35336 -10.35185 -10.35164 -10.35059 -10.34889
 Alpha  occ. eigenvalues --  -10.34591 -10.34475 -10.34473 -10.34301 -10.33746
 Alpha  occ. eigenvalues --  -10.33667 -10.33638 -10.33416 -10.33312 -10.33262
 Alpha  occ. eigenvalues --  -10.33203 -10.32896 -10.32764 -10.32699 -10.32689
 Alpha  occ. eigenvalues --  -10.32669 -10.32529 -10.32496 -10.32457 -10.32413
 Alpha  occ. eigenvalues --  -10.32342 -10.32214 -10.32170 -10.32098 -10.31871
 Alpha  occ. eigenvalues --  -10.31786 -10.31672 -10.31493 -10.31485 -10.31322
 Alpha  occ. eigenvalues --  -10.31297 -10.31263 -10.31241 -10.31201 -10.31056
 Alpha  occ. eigenvalues --  -10.31019 -10.30766 -10.30504 -10.30449 -10.30215
 Alpha  occ. eigenvalues --  -10.30213 -10.30025 -10.29974 -10.29871 -10.29848
 Alpha  occ. eigenvalues --  -10.29835 -10.29825 -10.29550 -10.29540 -10.29148
 Alpha  occ. eigenvalues --  -10.28090  -3.21264  -3.20984  -1.94873  -1.94554
 Alpha  occ. eigenvalues --   -1.94383  -1.94250  -1.94113  -1.93956  -1.19486
 Alpha  occ. eigenvalues --   -1.16857  -1.12312  -1.11860  -1.11242  -1.10462
 Alpha  occ. eigenvalues --   -1.09611  -1.09124  -1.07140  -1.06287  -1.06176
 Alpha  occ. eigenvalues --   -1.05787  -1.05657  -1.04947  -1.04565  -1.04397
 Alpha  occ. eigenvalues --   -0.94839  -0.93898  -0.91346  -0.91275  -0.90880
 Alpha  occ. eigenvalues --   -0.90683  -0.90520  -0.90476  -0.89988  -0.89608
 Alpha  occ. eigenvalues --   -0.89364  -0.89293  -0.88717  -0.87860  -0.86923
 Alpha  occ. eigenvalues --   -0.86382  -0.85694  -0.85325  -0.84349  -0.83979
 Alpha  occ. eigenvalues --   -0.83645  -0.83508  -0.83181  -0.82913  -0.82584
 Alpha  occ. eigenvalues --   -0.81935  -0.81336  -0.80399  -0.79374  -0.79204
 Alpha  occ. eigenvalues --   -0.79159  -0.79117  -0.78459  -0.78387  -0.77666
 Alpha  occ. eigenvalues --   -0.77364  -0.75523  -0.74864  -0.74321  -0.73747
 Alpha  occ. eigenvalues --   -0.71979  -0.71446  -0.71044  -0.70837  -0.69900
 Alpha  occ. eigenvalues --   -0.69824  -0.69369  -0.68753  -0.68083  -0.68004
 Alpha  occ. eigenvalues --   -0.67620  -0.66969  -0.66773  -0.66688  -0.66341
 Alpha  occ. eigenvalues --   -0.66262  -0.64678  -0.63853  -0.63064  -0.62151
 Alpha  occ. eigenvalues --   -0.62103  -0.61596  -0.61377  -0.61091  -0.60749
 Alpha  occ. eigenvalues --   -0.60623  -0.60260  -0.59839  -0.59473  -0.59238
 Alpha  occ. eigenvalues --   -0.58464  -0.58177  -0.57886  -0.57559  -0.57493
 Alpha  occ. eigenvalues --   -0.57302  -0.57226  -0.57004  -0.56794  -0.56118
 Alpha  occ. eigenvalues --   -0.55930  -0.55757  -0.55422  -0.55277  -0.55147
 Alpha  occ. eigenvalues --   -0.54958  -0.54831  -0.54662  -0.54356  -0.54078
 Alpha  occ. eigenvalues --   -0.53986  -0.53903  -0.53670  -0.53579  -0.53416
 Alpha  occ. eigenvalues --   -0.53256  -0.52789  -0.52658  -0.52538  -0.52310
 Alpha  occ. eigenvalues --   -0.52207  -0.52053  -0.51821  -0.51716  -0.51578
 Alpha  occ. eigenvalues --   -0.51514  -0.51344  -0.51194  -0.51059  -0.51024
 Alpha  occ. eigenvalues --   -0.50827  -0.50547  -0.50475  -0.50324  -0.50169
 Alpha  occ. eigenvalues --   -0.50083  -0.49948  -0.49852  -0.49671  -0.49409
 Alpha  occ. eigenvalues --   -0.49280  -0.49127  -0.49038  -0.49001  -0.48886
 Alpha  occ. eigenvalues --   -0.48419  -0.48400  -0.48158  -0.48020  -0.47968
 Alpha  occ. eigenvalues --   -0.47819  -0.47653  -0.47253  -0.47200  -0.46892
 Alpha  occ. eigenvalues --   -0.46793  -0.46662  -0.46593  -0.46349  -0.46258
 Alpha  occ. eigenvalues --   -0.46120  -0.46016  -0.45909  -0.45677  -0.45622
 Alpha  occ. eigenvalues --   -0.45519  -0.45438  -0.45245  -0.45050  -0.44867
 Alpha  occ. eigenvalues --   -0.44793  -0.44579  -0.44456  -0.44185  -0.44114
 Alpha  occ. eigenvalues --   -0.43956  -0.43808  -0.43767  -0.43569  -0.43319
 Alpha  occ. eigenvalues --   -0.43064  -0.43023  -0.42884  -0.42660  -0.42569
 Alpha  occ. eigenvalues --   -0.42424  -0.42231  -0.42121  -0.41482  -0.41421
 Alpha  occ. eigenvalues --   -0.40959  -0.40546  -0.40451  -0.40222  -0.39760
 Alpha  occ. eigenvalues --   -0.39637  -0.39489  -0.39199  -0.38842  -0.38783
 Alpha  occ. eigenvalues --   -0.38345  -0.37830  -0.37008  -0.36754  -0.36421
 Alpha  occ. eigenvalues --   -0.36376  -0.35779  -0.35515  -0.34074  -0.33787
 Alpha  occ. eigenvalues --   -0.33103  -0.32943  -0.32898  -0.32754  -0.32317
 Alpha  occ. eigenvalues --   -0.32189  -0.31876  -0.31739  -0.26449  -0.26090
 Alpha  occ. eigenvalues --   -0.23467  -0.23256
 Alpha virt. eigenvalues --   -0.07699  -0.07593  -0.00334   0.00180   0.01907
 Alpha virt. eigenvalues --    0.02299   0.03843   0.04180   0.05174   0.06241
 Alpha virt. eigenvalues --    0.06528   0.06808   0.06937   0.07491   0.07552

 Mulliken charges:
               1
     1  Mg   0.952272
     2  C   -0.069088
     3  C   -0.101826
     4  C   -0.019649
     5  C   -0.102348
     6  N   -0.408659
     7  C    0.021845
     8  C   -0.103326
     9  C   -0.085999
    10  C    0.045300
    11  C    0.038400
    12  C    0.039831
    13  C   -0.124282
    14  H    0.055084
    15  N   -0.465168
    16  C    0.236680
    17  C   -0.172893
    18  C   -0.066769
    19  C    0.186464
    20  C    0.110708
    21  C    0.057581
    22  O   -0.251419
    23  C   -0.000008
    24  N   -0.317408
    25  C   -0.058404
    26  C   -0.058357
    27  C   -0.099828
    28  C    0.111711
    29  C    0.018682
    30  C   -0.022039
    31  C   -0.054024
    32  N   -0.434952
    33  C    0.116545
    34  C   -0.197922
    35  C    0.054222
    36  C    0.194345
    37  C    0.093052
    38  C    0.016433
    39  O   -0.242268
    40  C   -0.028950
    41  C    0.287633
    42  O   -0.267973
    43  O   -0.390134
    44  C    0.142151
    45  H   -0.039920
    46  H    0.019311
    47  H    0.003276
    48  H    0.018598
    49  H    0.014633
    50  H    0.034466
    51  H    0.039362
    52  H    0.044408
    53  H    0.023444
    54  H    0.066825
    55  H    0.039966
    56  H    0.038557
    57  H    0.055039
    58  H    0.051263
    59  H    0.058817
    60  H    0.038451
    61  H    0.078361
    62  H    0.042429
    63  H    0.046475
    64  H    0.031004
    65  H    0.038865
    66  H    0.033299
    67  H    0.043919
    68  H    0.031827
    69  H    0.022995
    70  H    0.046880
    71  H    0.045645
    72  H    0.042923
    73  H    0.058013
    74  H    0.068656
    75  H    0.020050
    76  H    0.065870
    77  H    0.068879
    78  H    0.069761
    79  H    0.058427
    80  Mg   0.883760
    81  C   -0.013581
    82  C   -0.048279
    83  C   -0.078342
    84  C   -0.076743
    85  N   -0.292392
    86  C   -0.024461
    87  C   -0.051878
    88  C   -0.098068
    89  C   -0.007421
    90  C    0.014191
    91  C    0.043055
    92  C   -0.140044
    93  H   -0.008411
    94  N   -0.504459
    95  C    0.175696
    96  C   -0.122928
    97  C   -0.067915
    98  C    0.185110
    99  C    0.065122
   100  C    0.031695
   101  O   -0.235664
   102  C   -0.019355
   103  N   -0.414438
   104  C    0.087361
   105  C   -0.076316
   106  C   -0.073110
   107  C    0.097069
   108  C    0.002207
   109  C   -0.030733
   110  C   -0.080149
   111  N   -0.418474
   112  C    0.111858
   113  C   -0.189389
   114  C   -0.107376
   115  C    0.139845
   116  C    0.094014
   117  C    0.193729
   118  O   -0.246785
   119  C   -0.087677
   120  C    0.236184
   121  O   -0.215694
   122  O   -0.372046
   123  C    0.133706
   124  H   -0.037411
   125  H    0.022774
   126  H   -0.002970
   127  H    0.040230
   128  H    0.044499
   129  H    0.038110
   130  H    0.040722
   131  H    0.044009
   132  H    0.049592
   133  H    0.047713
   134  H    0.055761
   135  H    0.060284
   136  H    0.047836
   137  H    0.075106
   138  H    0.044788
   139  H    0.058429
   140  H    0.053743
   141  H    0.037772
   142  H    0.046429
   143  H    0.047384
   144  H    0.040182
   145  H    0.053804
   146  H    0.035362
   147  H    0.043028
   148  H    0.035278
   149  H    0.028841
   150  H    0.051632
   151  H    0.041511
   152  H    0.064366
   153  H    0.027401
   154  H    0.068023
   155  H    0.067792
   156  H    0.049422
   157  H    0.052597
   158  H    0.077473
 Sum of Mulliken charges =  -0.00000

 Dipole moment (field-independent basis, Debye):
    X=              0.1874    Y=              0.0083    Z=              3.4035  Tot=              3.4086
 Quadrupole moment (field-independent basis, Debye-Ang):
   XX=           -558.5334   YY=           -471.6472   ZZ=           -521.2295
   XY=              6.4889   XZ=            -14.2878   YZ=             24.6840

 Normal termination of Gaussian 16 at Sun Sep 19 10:34:12 2021.
