 Gaussian 16, Revision A.03,
 Gaussian 16:  ES64L-G16RevA.03 25-Dec-2016

 --------------------------------
 #p wB97XD/Def2SVP td=(nstates=5)
 --------------------------------

 --------------------------------
 TDDFT excited states in gaussian
 --------------------------------
 Symbolic Z-matrix:
 Charge =  0 Multiplicity = 1

                         Standard orientation:
 ---------------------------------------------------------------------
 Center     Atomic      Atomic             Coordinates (Angstroms)
 Number     Number       Type             X           Y           Z
 ---------------------------------------------------------------------
      1         12           0       29.666981   -0.356962    0.016487
      2          6           0       26.731579    1.478372    0.532470
      3          6           0       27.615291   -2.858926   -1.204749
      4          6           0       32.417850   -2.044252   -0.836611
      5          6           0       31.543546    2.556193    0.477375
      6          7           0       27.297988   -0.530486   -0.479177
      7          6           0       26.334844    0.308944   -0.053052
      8          6           0       24.937443   -0.156944   -0.384481
      9          6           0       25.309951   -1.664091   -0.657019
     10          6           0       26.821059   -1.735477   -0.851427
     11          6           0       24.931802   -2.533608    0.571695
     12          6           0       24.312007    0.697812   -1.494075
     13          6           0       25.175544    1.159258   -2.686489
     14          1           0       24.579060    0.929153   -4.070015
     15          7           0       29.978902   -2.173615   -0.870774
     16          6           0       29.000812   -3.082014   -1.177807
     17          6           0       29.611347   -4.411313   -1.309474
     18          6           0       31.047228   -4.202018   -1.366910
     19          6           0       31.183621   -2.759395   -0.999940
     20          6           0       28.786941   -5.693446   -1.712205
     21          6           0       32.114613   -5.241447   -1.718118
     22          8           0       31.821413   -6.396899   -1.851239
     23          6           0       33.551405   -4.826762   -1.852801
     24          7           0       31.705595    0.300453   -0.354202
     25          6           0       32.737099   -0.624114   -0.602234
     26          6           0       34.176612    0.044269   -0.621064
     27          6           0       33.837098    1.529648   -0.124100
     28          6           0       32.251647    1.462674    0.056980
     29          6           0       35.401207   -0.638367    0.170255
     30          6           0       34.322838    2.742369   -1.041896
     31          6           0       34.714153    4.013799   -0.138378
     32          7           0       29.289529    1.645579    0.479965
     33          6           0       30.163604    2.685720    0.722231
     34          6           0       29.408662    3.850247    1.168564
     35          6           0       28.044438    3.461350    1.193179
     36          6           0       28.015181    2.113528    0.682628
     37          6           0       29.978532    5.144163    1.688093
     38          6           0       26.611412    3.851086    1.399005
     39          8           0       26.122871    4.929286    1.653783
     40          6           0       25.772296    2.555749    1.026328
     41          6           0       25.034072    2.149971    2.272294
     42          8           0       24.002311    2.727693    2.697154
     43          8           0       25.576771    0.975401    2.772924
     44          6           0       24.833594    0.352627    3.816884
     45          1           0       26.966095   -3.684315   -1.504588
     46          1           0       33.387899   -2.543184   -0.891221
     47          1           0       32.156925    3.396417    0.809789
     48          1           0       24.297875   -0.174513    0.497783
     49          1           0       24.861024   -2.152354   -1.520923
     50          1           0       25.680883   -3.324493    0.617186
     51          1           0       23.896769   -2.865208    0.502016
     52          1           0       25.049424   -2.118541    1.573180
     53          1           0       24.021009    1.631493   -1.013749
     54          1           0       23.428814    0.176891   -1.864018
     55          1           0       26.111886    0.601849   -2.679511
     56          1           0       25.321158    2.235702   -2.600825
     57          1           0       28.525560   -5.761922   -2.768534
     58          1           0       27.875358   -5.741681   -1.116467
     59          1           0       29.234771   -6.651803   -1.451863
     60          1           0       34.171910   -5.629073   -2.253346
     61          1           0       33.992688   -4.495816   -0.912459
     62          1           0       33.492686   -4.083673   -2.648526
     63          1           0       34.366850    0.021059   -1.693425
     64          1           0       34.241186    1.709996    0.871619
     65          1           0       35.890426   -1.319290   -0.525269
     66          1           0       35.057301   -1.171468    1.056183
     67          1           0       36.075191    0.149894    0.506276
     68          1           0       33.502908    3.127490   -1.648006
     69          1           0       35.130945    2.433902   -1.705614
     70          1           0       34.081178    4.869599   -0.373357
     71          1           0       35.751018    4.288232   -0.330323
     72          1           0       34.564883    3.962879    0.939602
     73          1           0       30.599295    5.583149    0.907772
     74          1           0       30.603768    4.944545    2.558606
     75          1           0       29.204154    5.874011    1.923658
     76          1           0       25.012699    2.927466    0.338982
     77          1           0       25.295152   -0.603046    4.064329
     78          1           0       23.772290    0.305030    3.572407
     79          1           0       24.929638    0.886604    4.762227
     80         12           0      -28.981706    0.338924   -0.571166
     81          6           0      -28.591453   -1.845268    2.038924
     82          6           0      -28.086067    2.885427    1.406844
     83          6           0      -29.645323    2.386703   -3.165269
     84          6           0      -30.437581   -2.377118   -2.500626
     85          7           0      -28.656465    0.505566    1.614774
     86          6           0      -28.428883   -0.507708    2.459192
     87          6           0      -27.949722    0.046020    3.897762
     88          6           0      -27.813568    1.578875    3.564896
     89          6           0      -28.251619    1.715342    2.092727
     90          6           0      -28.542762    2.497169    4.564877
     91          6           0      -26.631579   -0.599533    4.411642
     92          6           0      -25.878613    0.092938    5.594199
     93          1           0      -26.010191   -0.554425    7.024898
     94          7           0      -28.923701    2.385059   -0.825978
     95          6           0      -28.441150    3.245940    0.045801
     96          6           0      -28.457365    4.571898   -0.553161
     97          6           0      -29.012323    4.505406   -1.866505
     98          6           0      -29.215134    3.046626   -2.006465
     99          6           0      -28.108077    5.867084    0.161081
    100          6           0      -29.360666    5.610790   -2.857897
    101          8           0      -30.096059    5.393023   -3.816440
    102          6           0      -28.794581    6.970513   -2.641479
    103          7           0      -29.957428    0.041954   -2.541983
    104          6           0      -30.055341    1.032480   -3.420669
    105          6           0      -30.533379    0.539437   -4.796492
    106          6           0      -30.554151   -0.969645   -4.567697
    107          6           0      -30.335125   -1.095263   -3.106198
    108          6           0      -31.841048    1.118956   -5.356151
    109          6           0      -29.690123   -1.750253   -5.525538
    110          6           0      -30.438249   -2.750851   -6.476926
    111          7           0      -29.378382   -1.654194   -0.348292
    112          6           0      -29.891124   -2.667918   -1.225472
    113          6           0      -29.815010   -3.976067   -0.613092
    114          6           0      -29.286170   -3.642698    0.664873
    115          6           0      -29.061457   -2.263712    0.762229
    116          6           0      -30.038567   -5.340056   -1.164327
    117          6           0      -28.738860   -4.313162    1.817195
    118          8           0      -28.475751   -5.494645    2.086870
    119          6           0      -28.379651   -3.247505    2.822284
    120          6           0      -29.408484   -3.296899    3.973349
    121          8           0      -30.638088   -3.435494    3.884514
    122          8           0      -28.723408   -3.149948    5.142802
    123          6           0      -29.504925   -3.201142    6.418951
    124          1           0      -27.696677    3.775918    1.904718
    125          1           0      -30.071860    2.987612   -3.971144
    126          1           0      -30.758289   -3.163828   -3.185872
    127          1           0      -28.803937   -0.147424    4.545590
    128          1           0      -26.750980    1.821503    3.574368
    129          1           0      -27.873140    3.330834    4.773506
    130          1           0      -28.726685    1.999092    5.516880
    131          1           0      -29.484952    2.854829    4.149418
    132          1           0      -25.920323   -0.475067    3.595126
    133          1           0      -26.817061   -1.627722    4.722118
    134          1           0      -26.346998    1.067320    5.736869
    135          1           0      -24.814544    0.118864    5.361822
    136          1           0      -27.801662    5.683251    1.190823
    137          1           0      -28.977438    6.524054    0.171602
    138          1           0      -27.304702    6.404026   -0.341685
    139          1           0      -27.728781    6.810876   -2.475733
    140          1           0      -29.123785    7.630417   -1.839402
    141          1           0      -28.928986    7.625575   -3.501576
    142          1           0      -29.756738    0.783828   -5.520397
    143          1           0      -31.570259   -1.310039   -4.766300
    144          1           0      -31.638144    1.244554   -6.419422
    145          1           0      -32.116066    2.029939   -4.824772
    146          1           0      -32.722292    0.506246   -5.166416
    147          1           0      -29.091396   -2.383008   -4.871140
    148          1           0      -29.077561   -1.122999   -6.172524
    149          1           0      -31.507667   -2.737429   -6.264850
    150          1           0      -30.061687   -3.749539   -6.253614
    151          1           0      -30.236894   -2.624794   -7.540820
    152          1           0      -30.166243   -5.291433   -2.245410
    153          1           0      -31.011999   -5.644626   -0.781654
    154          1           0      -29.156287   -5.907846   -0.865354
    155          1           0      -27.379835   -3.524541    3.157064
    156          1           0      -30.416020   -2.602398    6.429380
    157          1           0      -28.925805   -2.964965    7.311056
    158          1           0      -29.858033   -4.229181    6.498084
 ---------------------------------------------------------------------

 SCF Done:  E(RwB97XD) =  -4070.60796667     A.U. after   20 cycles

 Excitation energies and oscillator strengths:

 Excited State   1:      Singlet-A      1.6636 eV  745.29 nm  f=0.3974  <S**2>=0.000
     310 -> 316       -0.18170
     312 -> 314        0.68163
     310 <- 316       -0.11252
 This state for optimization and/or second-order correction.
 Total Energy, E(TD-HF/TD-DFT) =  -4070.54683146
 Copying the excited state density for this state as the 1-particle RhoCI density.

 Excited State   2:      Singlet-A      1.6941 eV  731.87 nm  f=0.3600  <S**2>=0.000
     309 -> 315       -0.19922
     311 -> 313        0.67861
     309 <- 315       -0.11862

 Excited State   3:      Singlet-A      2.1842 eV  567.65 nm  f=0.1018  <S**2>=0.000
     309 -> 313        0.63333
     311 -> 315        0.30093

 Excited State   4:      Singlet-A      2.2222 eV  557.94 nm  f=0.1095  <S**2>=0.000
     310 -> 314        0.63694
     312 -> 316        0.28923

 Excited State   5:      Singlet-A      3.4915 eV  355.11 nm  f=0.1740  <S**2>=0.000
     307 -> 313        0.53191
     307 -> 317       -0.10504
     309 -> 313        0.15410
     311 -> 315       -0.39164

 The electronic state is 1-A.
 Alpha  occ. eigenvalues --  -46.96750 -46.95522 -19.31257 -19.30823 -19.24997
 Alpha  occ. eigenvalues --  -19.24579 -19.24566 -19.24381 -19.24084 -19.22729
 Alpha  occ. eigenvalues --  -14.46853 -14.46655 -14.46421 -14.46259 -14.45141
 Alpha  occ. eigenvalues --  -14.44675 -14.44053 -14.43867 -10.43860 -10.43398
 Alpha  occ. eigenvalues --  -10.40067 -10.39817 -10.39297 -10.37341 -10.36965
 Alpha  occ. eigenvalues --  -10.35960 -10.35911 -10.35715 -10.35712 -10.35192
 Alpha  occ. eigenvalues --  -10.34990 -10.34969 -10.34570 -10.34476 -10.34424
 Alpha  occ. eigenvalues --  -10.34338 -10.34207 -10.34015 -10.33969 -10.33966
 Alpha  occ. eigenvalues --  -10.33810 -10.33568 -10.33330 -10.33260 -10.33029
 Alpha  occ. eigenvalues --  -10.32779 -10.32724 -10.32600 -10.32513 -10.32493
 Alpha  occ. eigenvalues --  -10.32458 -10.32422 -10.32175 -10.32173 -10.32152
 Alpha  occ. eigenvalues --  -10.32145 -10.32115 -10.32048 -10.31915 -10.31825
 Alpha  occ. eigenvalues --  -10.31794 -10.31741 -10.31653 -10.31635 -10.31565
 Alpha  occ. eigenvalues --  -10.31039 -10.30961 -10.30828 -10.30712 -10.30703
 Alpha  occ. eigenvalues --  -10.30598 -10.30395 -10.30339 -10.30289 -10.30233
 Alpha  occ. eigenvalues --  -10.30177 -10.30163 -10.30126 -10.30122 -10.30107
 Alpha  occ. eigenvalues --  -10.30027 -10.29942 -10.29794 -10.29530 -10.29498
 Alpha  occ. eigenvalues --  -10.28420  -3.22595  -3.21489  -1.96138  -1.95728
 Alpha  occ. eigenvalues --   -1.95546  -1.95070  -1.94604  -1.94472  -1.18639
 Alpha  occ. eigenvalues --   -1.17711  -1.13759  -1.12894  -1.12604  -1.10176
 Alpha  occ. eigenvalues --   -1.09259  -1.08710  -1.07722  -1.06807  -1.06398
 Alpha  occ. eigenvalues --   -1.05971  -1.05895  -1.04973  -1.04961  -1.03916
 Alpha  occ. eigenvalues --   -0.94476  -0.93227  -0.91767  -0.90905  -0.90574
 Alpha  occ. eigenvalues --   -0.90308  -0.90090  -0.89597  -0.89488  -0.89273
 Alpha  occ. eigenvalues --   -0.89072  -0.88938  -0.87989  -0.87679  -0.86771
 Alpha  occ. eigenvalues --   -0.86096  -0.85258  -0.85210  -0.84624  -0.84274
 Alpha  occ. eigenvalues --   -0.84049  -0.83815  -0.83022  -0.82762  -0.82353
 Alpha  occ. eigenvalues --   -0.81992  -0.80483  -0.79505  -0.79463  -0.79231
 Alpha  occ. eigenvalues --   -0.78656  -0.78643  -0.78333  -0.78001  -0.77291
 Alpha  occ. eigenvalues --   -0.77274  -0.74802  -0.74619  -0.74050  -0.73651
 Alpha  occ. eigenvalues --   -0.71869  -0.71352  -0.71345  -0.71051  -0.70233
 Alpha  occ. eigenvalues --   -0.69686  -0.69566  -0.69217  -0.67836  -0.67762
 Alpha  occ. eigenvalues --   -0.66881  -0.66863  -0.66854  -0.66631  -0.66402
 Alpha  occ. eigenvalues --   -0.65892  -0.65703  -0.64608  -0.62720  -0.62090
 Alpha  occ. eigenvalues --   -0.61609  -0.61279  -0.60952  -0.60858  -0.60605
 Alpha  occ. eigenvalues --   -0.60165  -0.59969  -0.59725  -0.59355  -0.59346
 Alpha  occ. eigenvalues --   -0.58299  -0.58276  -0.58031  -0.57630  -0.57488
 Alpha  occ. eigenvalues --   -0.57068  -0.57014  -0.56453  -0.56221  -0.56049
 Alpha  occ. eigenvalues --   -0.55671  -0.55664  -0.55334  -0.55148  -0.55028
 Alpha  occ. eigenvalues --   -0.54772  -0.54726  -0.54470  -0.54103  -0.53859
 Alpha  occ. eigenvalues --   -0.53633  -0.53611  -0.53363  -0.53113  -0.53039
 Alpha  occ. eigenvalues --   -0.53035  -0.52656  -0.52635  -0.52488  -0.52439
 Alpha  occ. eigenvalues --   -0.52021  -0.51916  -0.51849  -0.51722  -0.51690
 Alpha  occ. eigenvalues --   -0.51588  -0.51508  -0.51263  -0.50982  -0.50896
 Alpha  occ. eigenvalues --   -0.50870  -0.50604  -0.50467  -0.50308  -0.50114
 Alpha  occ. eigenvalues --   -0.49745  -0.49607  -0.49517  -0.49280  -0.49225
 Alpha  occ. eigenvalues --   -0.49185  -0.48892  -0.48721  -0.48640  -0.48310
 Alpha  occ. eigenvalues --   -0.48269  -0.48061  -0.48016  -0.47867  -0.47632
 Alpha  occ. eigenvalues --   -0.47463  -0.47258  -0.47124  -0.46898  -0.46840
 Alpha  occ. eigenvalues --   -0.46663  -0.46423  -0.46315  -0.46187  -0.46050
 Alpha  occ. eigenvalues --   -0.45921  -0.45906  -0.45819  -0.45761  -0.45611
 Alpha  occ. eigenvalues --   -0.45522  -0.45400  -0.45242  -0.44941  -0.44828
 Alpha  occ. eigenvalues --   -0.44710  -0.44702  -0.44253  -0.44179  -0.44162
 Alpha  occ. eigenvalues --   -0.43962  -0.43937  -0.43882  -0.43745  -0.43644
 Alpha  occ. eigenvalues --   -0.43439  -0.43135  -0.43089  -0.42710  -0.42336
 Alpha  occ. eigenvalues --   -0.42273  -0.41831  -0.41175  -0.41016  -0.40977
 Alpha  occ. eigenvalues --   -0.40863  -0.40169  -0.40088  -0.39771  -0.39362
 Alpha  occ. eigenvalues --   -0.39240  -0.39167  -0.38802  -0.38671  -0.38255
 Alpha  occ. eigenvalues --   -0.38195  -0.37873  -0.36685  -0.36413  -0.36258
 Alpha  occ. eigenvalues --   -0.35981  -0.35558  -0.35397  -0.33911  -0.33568
 Alpha  occ. eigenvalues --   -0.33319  -0.33235  -0.32938  -0.32825  -0.32778
 Alpha  occ. eigenvalues --   -0.31942  -0.31869  -0.31804  -0.25967  -0.25826
 Alpha  occ. eigenvalues --   -0.23224  -0.22908
 Alpha virt. eigenvalues --   -0.06997  -0.06891  -0.00186   0.00164   0.02173
 Alpha virt. eigenvalues --    0.02637   0.03917   0.04136   0.04625   0.05082
 Alpha virt. eigenvalues --    0.06648   0.07491   0.07840   0.07890   0.08637

 Mulliken charges:
               1
     1  Mg   0.954709
     2  C    0.126763
     3  C   -0.086852
     4  C   -0.102705
     5  C   -0.086783
     6  N   -0.280239
     7  C   -0.106113
     8  C    0.024702
     9  C   -0.115387
    10  C    0.019732
    11  C    0.018051
    12  C    0.021111
    13  C   -0.133117
    14  H    0.032696
    15  N   -0.458764
    16  C    0.175448
    17  C   -0.148347
    18  C   -0.099944
    19  C    0.211589
    20  C    0.047883
    21  C    0.038185
    22  O   -0.200604
    23  C   -0.012829
    24  N   -0.368154
    25  C    0.007539
    26  C   -0.062982
    27  C   -0.084160
    28  C    0.069915
    29  C    0.005022
    30  C   -0.009900
    31  C   -0.094041
    32  N   -0.439721
    33  C    0.138730
    34  C   -0.213528
    35  C   -0.016286
    36  C    0.078947
    37  C    0.071697
    38  C    0.139930
    39  O   -0.173457
    40  C   -0.210998
    41  C    0.295881
    42  O   -0.266950
    43  O   -0.352058
    44  C    0.141311
    45  H    0.007246
    46  H   -0.025079
    47  H   -0.020895
    48  H    0.029471
    49  H    0.028319
    50  H    0.024573
    51  H    0.050165
    52  H    0.027405
    53  H    0.036962
    54  H    0.046187
    55  H    0.070680
    56  H    0.060462
    57  H    0.063279
    58  H    0.025802
    59  H    0.056075
    60  H    0.047005
    61  H    0.080163
    62  H    0.053733
    63  H    0.053707
    64  H    0.040274
    65  H    0.049445
    66  H    0.047511
    67  H    0.050482
    68  H    0.049737
    69  H    0.043981
    70  H    0.038420
    71  H    0.044447
    72  H    0.040039
    73  H    0.037448
    74  H    0.051959
    75  H    0.058877
    76  H    0.085113
    77  H    0.049513
    78  H    0.054965
    79  H    0.046602
    80  Mg   0.970176
    81  C   -0.075066
    82  C   -0.078820
    83  C   -0.049426
    84  C   -0.066333
    85  N   -0.355677
    86  C   -0.025892
    87  C   -0.008758
    88  C   -0.153554
    89  C    0.119968
    90  C    0.024372
    91  C   -0.009686
    92  C   -0.131292
    93  H    0.015020
    94  N   -0.438365
    95  C    0.116852
    96  C   -0.186998
    97  C   -0.059040
    98  C    0.130807
    99  C    0.069556
   100  C    0.087578
   101  O   -0.227305
   102  C   -0.033092
   103  N   -0.274169
   104  C   -0.007298
   105  C   -0.114754
   106  C   -0.055400
   107  C    0.009732
   108  C    0.036084
   109  C    0.000438
   110  C   -0.068113
   111  N   -0.456815
   112  C    0.123364
   113  C   -0.170441
   114  C   -0.076974
   115  C    0.206206
   116  C    0.109180
   117  C    0.102765
   118  O   -0.239427
   119  C   -0.055627
   120  C    0.293579
   121  O   -0.266035
   122  O   -0.365186
   123  C    0.138545
   124  H   -0.019840
   125  H    0.029517
   126  H    0.004086
   127  H    0.040443
   128  H    0.037125
   129  H    0.034018
   130  H    0.041465
   131  H    0.049646
   132  H    0.031948
   133  H    0.073385
   134  H    0.048323
   135  H    0.065659
   136  H    0.031767
   137  H    0.051475
   138  H    0.041251
   139  H    0.048728
   140  H    0.063139
   141  H    0.052446
   142  H    0.038876
   143  H    0.021327
   144  H    0.046528
   145  H    0.044290
   146  H    0.029767
   147  H    0.030508
   148  H    0.036923
   149  H    0.033082
   150  H    0.033429
   151  H    0.041973
   152  H    0.019308
   153  H    0.065404
   154  H    0.081071
   155  H    0.069628
   156  H    0.058567
   157  H    0.063586
   158  H    0.056471
 Sum of Mulliken charges =  -0.00000

 Dipole moment (field-independent basis, Debye):
    X=              6.9780    Y=              1.7045    Z=              0.0648  Tot=              7.1834
 Quadrupole moment (field-independent basis, Debye-Ang):
   XX=           -374.8283   YY=           -563.0737   ZZ=           -484.4618
   XY=           -160.9024   XZ=             41.1026   YZ=             10.3405

 Normal termination of Gaussian 16 at Sun Sep 19 19:08:18 2021.
