 Gaussian 16, Revision A.03,
 Gaussian 16:  ES64L-G16RevA.03 25-Dec-2016

 --------------------------------
 #p wB97XD/Def2SVP td=(nstates=5)
 --------------------------------

 --------------------------------
 TDDFT excited states in gaussian
 --------------------------------
 Symbolic Z-matrix:
 Charge =  0 Multiplicity = 1

                         Standard orientation:
 ---------------------------------------------------------------------
 Center     Atomic      Atomic             Coordinates (Angstroms)
 Number     Number       Type             X           Y           Z
 ---------------------------------------------------------------------
      1         12           0      -28.281096   -0.224636   -0.532064
      2          6           0      -25.139530    1.101742    0.571426
      3          6           0      -27.327477   -3.280214    0.975626
      4          6           0      -31.453914   -1.269545   -0.850934
      5          6           0      -29.256551    2.989545   -1.326361
      6          7           0      -26.430451   -1.031924    0.644005
      7          6           0      -25.353643   -0.248424    0.951884
      8          6           0      -24.479102   -0.961303    1.971113
      9          6           0      -25.081159   -2.420670    1.818918
     10          6           0      -26.376347   -2.303829    1.109798
     11          6           0      -24.190474   -3.493185    1.106431
     12          6           0      -24.561912   -0.234713    3.351819
     13          6           0      -23.239618    0.039179    4.179649
     14          1           0      -23.066204   -0.594477    5.571689
     15          7           0      -29.207408   -2.002777   -0.211930
     16          6           0      -28.665807   -3.162708    0.402243
     17          6           0      -29.644892   -4.233842    0.417050
     18          6           0      -30.852724   -3.623714   -0.115348
     19          6           0      -30.510796   -2.247074   -0.420444
     20          6           0      -29.357342   -5.539083    1.033350
     21          6           0      -32.167856   -4.401195   -0.297848
     22          8           0      -32.181211   -5.588859    0.139351
     23          6           0      -33.448296   -3.853030   -0.962887
     24          7           0      -30.234138    0.742742   -0.771134
     25          6           0      -31.344785    0.085933   -1.045707
     26          6           0      -32.423596    1.078536   -1.336809
     27          6           0      -31.663302    2.416605   -1.538422
     28          6           0      -30.275523    2.062976   -1.099791
     29          6           0      -33.459898    0.803404   -2.508844
     30          6           0      -32.263957    3.680114   -0.731147
     31          6           0      -32.841391    4.867168   -1.540419
     32          7           0      -27.382956    1.604532   -0.608338
     33          6           0      -27.882730    2.805808   -0.944119
     34          6           0      -26.904442    3.825336   -0.837353
     35          6           0      -25.796568    3.177486   -0.286022
     36          6           0      -26.142454    1.812973   -0.116526
     37          6           0      -26.952479    5.256320   -1.195438
     38          6           0      -24.474709    3.457680    0.183283
     39          8           0      -23.910031    4.526341    0.251473
     40          6           0      -23.977282    2.021875    0.845047
     41          6           0      -22.758505    1.558056    0.171468
     42          8           0      -22.559962    1.577006   -1.049900
     43          8           0      -21.919737    1.082336    1.156698
     44          6           0      -20.625824    0.565296    0.714250
     45          1           0      -27.090644   -4.248846    1.418458
     46          1           0      -32.515742   -1.521880   -0.875382
     47          1           0      -29.437618    3.968830   -1.774736
     48          1           0      -23.481091   -1.009743    1.534779
     49          1           0      -25.312295   -2.594237    2.870551
     50          1           0      -24.763584   -3.882379    0.263683
     51          1           0      -23.939875   -4.351305    1.729681
     52          1           0      -23.271205   -3.118300    0.655386
     53          1           0      -25.190547   -0.946893    3.885881
     54          1           0      -25.108528    0.707994    3.362320
     55          1           0      -23.180167    1.125106    4.250311
     56          1           0      -22.388167   -0.167712    3.532035
     57          1           0      -28.994868   -5.328059    2.039697
     58          1           0      -28.529228   -6.020966    0.514036
     59          1           0      -30.136145   -6.301475    1.001574
     60          1           0      -33.894453   -3.126707   -0.283348
     61          1           0      -33.952938   -4.742943   -1.337604
     62          1           0      -33.057926   -3.337765   -1.841153
     63          1           0      -33.055179    1.117744   -0.450166
     64          1           0      -31.608170    2.477149   -2.625416
     65          1           0      -34.364934    1.323671   -2.194266
     66          1           0      -33.589466   -0.274112   -2.609001
     67          1           0      -33.045715    1.271499   -3.402009
     68          1           0      -31.430833    4.001713   -0.106402
     69          1           0      -32.980364    3.292347   -0.007043
     70          1           0      -32.457239    5.830863   -1.208691
     71          1           0      -33.927949    4.851041   -1.451352
     72          1           0      -32.685963    4.780926   -2.615990
     73          1           0      -25.954271    5.681461   -1.295103
     74          1           0      -27.478087    5.607915   -0.307432
     75          1           0      -27.722007    5.386161   -1.956298
     76          1           0      -23.919322    2.085602    1.931048
     77          1           0      -20.104291    1.276862    0.073709
     78          1           0      -20.766124   -0.384825    0.196698
     79          1           0      -19.998966    0.400786    1.590688
     80         12           0       28.136354    0.427737   -0.330347
     81          6           0       26.162355   -2.418679   -0.022691
     82          6           0       25.295449    2.327415    0.256304
     83          6           0       29.961565    3.169143   -0.050159
     84          6           0       30.960843   -1.571098   -0.404190
     85          7           0       26.025193    0.013692    0.228102
     86          6           0       25.413910   -1.221299    0.157223
     87          6           0       23.921825   -1.141033    0.289683
     88          6           0       23.656933    0.400864   -0.006423
     89          6           0       25.048540    0.982531    0.204171
     90          6           0       22.843416    0.891598   -1.296564
     91          6           0       23.324450   -1.704946    1.661235
     92          6           0       24.194858   -1.559402    2.944842
     93          1           0       23.420749   -1.159453    4.177886
     94          7           0       27.713934    2.463588    0.168046
     95          6           0       26.456149    3.048545    0.360454
     96          6           0       26.568194    4.440539    0.700214
     97          6           0       27.953733    4.723129    0.640985
     98          6           0       28.636754    3.447455    0.272077
     99          6           0       25.319720    5.321958    0.762255
    100          6           0       28.506324    6.143805    0.896821
    101          8           0       27.779354    7.074739    1.258260
    102          6           0       29.939966    6.334549    0.629574
    103          7           0       30.177766    0.678556   -0.122602
    104          6           0       30.682339    1.955328   -0.303544
    105          6           0       32.215510    1.976567   -0.489674
    106          6           0       32.482931    0.421468   -0.354256
    107          6           0       31.161632   -0.197979   -0.238230
    108          6           0       32.796969    2.564968   -1.736322
    109          6           0       33.362116    0.046106    0.943652
    110          6           0       34.460081   -0.923990    0.593125
    111          7           0       28.541048   -1.613829   -0.432774
    112          6           0       29.752225   -2.280093   -0.458165
    113          6           0       29.522504   -3.742922   -0.471317
    114          6           0       28.097722   -3.844334   -0.302453
    115          6           0       27.588163   -2.540771   -0.283166
    116          6           0       30.475391   -4.862620   -0.356711
    117          6           0       26.936324   -4.732828   -0.084508
    118          8           0       26.906695   -5.932319    0.066252
    119          6           0       25.651407   -3.855626    0.061576
    120          6           0       24.649237   -4.253841   -0.927661
    121          8           0       23.517077   -4.710814   -0.768275
    122          8           0       25.309434   -4.300376   -2.183524
    123          6           0       24.449841   -4.630794   -3.340345
    124          1           0       24.357963    2.884192    0.188449
    125          1           0       30.644275    4.012674   -0.170910
    126          1           0       31.905843   -2.107284   -0.507847
    127          1           0       23.442161   -1.761344   -0.467361
    128          1           0       23.058681    0.665662    0.865764
    129          1           0       22.402458    0.104077   -1.907428
    130          1           0       23.452605    1.432665   -2.020488
    131          1           0       21.946357    1.420828   -0.973984
    132          1           0       23.000946   -2.738418    1.541637
    133          1           0       22.383738   -1.176984    1.817313
    134          1           0       25.010509   -0.854892    2.779274
    135          1           0       24.659095   -2.515428    3.185341
    136          1           0       25.397693    6.146468    1.471624
    137          1           0       24.487353    4.734662    1.149119
    138          1           0       25.192266    5.723581   -0.243286
    139          1           0       30.100788    6.281702   -0.446789
    140          1           0       30.518679    5.589107    1.175920
    141          1           0       30.160655    7.339619    0.988948
    142          1           0       32.647028    2.390597    0.421927
    143          1           0       32.836542    0.159302   -1.351397
    144          1           0       33.848763    2.278438   -1.735688
    145          1           0       32.795983    3.647336   -1.607422
    146          1           0       32.233575    2.239488   -2.611627
    147          1           0       32.663723   -0.344918    1.683437
    148          1           0       33.786159    0.874356    1.512767
    149          1           0       34.218262   -1.881186    1.054455
    150          1           0       35.390672   -0.705160    1.117833
    151          1           0       34.468822   -1.098709   -0.482552
    152          1           0       31.528978   -4.586065   -0.295189
    153          1           0       30.371655   -5.435847   -1.277332
    154          1           0       30.214698   -5.237763    0.632735
    155          1           0       25.305870   -4.047742    1.077080
    156          1           0       24.769611   -3.891085   -4.075187
    157          1           0       23.363314   -4.586466   -3.265032
    158          1           0       24.869718   -5.558049   -3.730662
 ---------------------------------------------------------------------

 SCF Done:  E(RwB97XD) =  -4070.59202121     A.U. after   20 cycles

 Excitation energies and oscillator strengths:

 Excited State   1:      Singlet-A      1.6376 eV  757.09 nm  f=0.3839  <S**2>=0.000
     309 -> 316       -0.19098
     311 -> 313        0.68322
     309 <- 316       -0.12122
 This state for optimization and/or second-order correction.
 Total Energy, E(TD-HF/TD-DFT) =  -4070.53183916
 Copying the excited state density for this state as the 1-particle RhoCI density.

 Excited State   2:      Singlet-A      1.6615 eV  746.21 nm  f=0.3752  <S**2>=0.000
     310 -> 315        0.18778
     312 -> 314        0.68148
     310 <- 315        0.11477

 Excited State   3:      Singlet-A      2.1479 eV  577.24 nm  f=0.0866  <S**2>=0.000
     310 -> 314        0.62831
     312 -> 315       -0.30700

 Excited State   4:      Singlet-A      2.1990 eV  563.83 nm  f=0.1290  <S**2>=0.000
     309 -> 313        0.63864
     311 -> 316        0.29228

 Excited State   5:      Singlet-A      3.3069 eV  374.92 nm  f=0.0054  <S**2>=0.000
     308 -> 313        0.66958
     308 -> 317        0.10681

 The electronic state is 1-A.
 Alpha  occ. eigenvalues --  -46.95456 -46.95245 -19.31501 -19.29580 -19.25521
 Alpha  occ. eigenvalues --  -19.25490 -19.24808 -19.24060 -19.23876 -19.23177
 Alpha  occ. eigenvalues --  -14.46842 -14.46784 -14.46541 -14.45963 -14.44550
 Alpha  occ. eigenvalues --  -14.44420 -14.44265 -14.43774 -10.43947 -10.43601
 Alpha  occ. eigenvalues --  -10.39493 -10.39243 -10.39144 -10.39077 -10.36191
 Alpha  occ. eigenvalues --  -10.35688 -10.35211 -10.35209 -10.35024 -10.34782
 Alpha  occ. eigenvalues --  -10.34733 -10.34669 -10.34666 -10.34393 -10.34387
 Alpha  occ. eigenvalues --  -10.34320 -10.34139 -10.34084 -10.33770 -10.33397
 Alpha  occ. eigenvalues --  -10.33093 -10.32953 -10.32947 -10.32798 -10.32784
 Alpha  occ. eigenvalues --  -10.32715 -10.32616 -10.32570 -10.32379 -10.32376
 Alpha  occ. eigenvalues --  -10.32317 -10.32276 -10.32250 -10.32113 -10.31843
 Alpha  occ. eigenvalues --  -10.31721 -10.31664 -10.31627 -10.31618 -10.31553
 Alpha  occ. eigenvalues --  -10.31541 -10.31431 -10.31426 -10.31231 -10.31207
 Alpha  occ. eigenvalues --  -10.31189 -10.31102 -10.31093 -10.31013 -10.30868
 Alpha  occ. eigenvalues --  -10.30827 -10.30742 -10.30664 -10.30553 -10.30475
 Alpha  occ. eigenvalues --  -10.30272 -10.30122 -10.30079 -10.30067 -10.29905
 Alpha  occ. eigenvalues --  -10.29899 -10.29893 -10.29567 -10.29445 -10.28975
 Alpha  occ. eigenvalues --  -10.28613  -3.21424  -3.21242  -1.94995  -1.94820
 Alpha  occ. eigenvalues --   -1.94563  -1.94386  -1.94354  -1.94226  -1.18725
 Alpha  occ. eigenvalues --   -1.16972  -1.13083  -1.12609  -1.11593  -1.10368
 Alpha  occ. eigenvalues --   -1.09450  -1.09112  -1.07465  -1.07060  -1.06751
 Alpha  occ. eigenvalues --   -1.05748  -1.05724  -1.05219  -1.04392  -1.04390
 Alpha  occ. eigenvalues --   -0.95157  -0.94432  -0.91508  -0.91239  -0.91167
 Alpha  occ. eigenvalues --   -0.90201  -0.89999  -0.89884  -0.89884  -0.89561
 Alpha  occ. eigenvalues --   -0.89412  -0.88815  -0.88158  -0.87967  -0.86731
 Alpha  occ. eigenvalues --   -0.86584  -0.86363  -0.85757  -0.84661  -0.84604
 Alpha  occ. eigenvalues --   -0.84275  -0.83914  -0.83328  -0.82796  -0.82440
 Alpha  occ. eigenvalues --   -0.82106  -0.80237  -0.80184  -0.79587  -0.79457
 Alpha  occ. eigenvalues --   -0.78818  -0.78761  -0.78218  -0.78142  -0.77705
 Alpha  occ. eigenvalues --   -0.77282  -0.75196  -0.74631  -0.74191  -0.74124
 Alpha  occ. eigenvalues --   -0.71725  -0.71377  -0.71357  -0.71241  -0.70428
 Alpha  occ. eigenvalues --   -0.70082  -0.68825  -0.68741  -0.68344  -0.68065
 Alpha  occ. eigenvalues --   -0.67617  -0.67111  -0.66901  -0.66774  -0.66513
 Alpha  occ. eigenvalues --   -0.65989  -0.64952  -0.64530  -0.62252  -0.62140
 Alpha  occ. eigenvalues --   -0.61924  -0.61502  -0.61401  -0.60938  -0.60896
 Alpha  occ. eigenvalues --   -0.60396  -0.60274  -0.59591  -0.59511  -0.59197
 Alpha  occ. eigenvalues --   -0.58297  -0.58176  -0.57897  -0.57767  -0.57595
 Alpha  occ. eigenvalues --   -0.57345  -0.57046  -0.56847  -0.56547  -0.56466
 Alpha  occ. eigenvalues --   -0.55795  -0.55659  -0.55287  -0.54888  -0.54862
 Alpha  occ. eigenvalues --   -0.54652  -0.54571  -0.54559  -0.54110  -0.54054
 Alpha  occ. eigenvalues --   -0.53915  -0.53640  -0.53542  -0.53346  -0.53176
 Alpha  occ. eigenvalues --   -0.53044  -0.52748  -0.52522  -0.52369  -0.52245
 Alpha  occ. eigenvalues --   -0.52232  -0.51987  -0.51894  -0.51551  -0.51522
 Alpha  occ. eigenvalues --   -0.51495  -0.51345  -0.51254  -0.50757  -0.50724
 Alpha  occ. eigenvalues --   -0.50500  -0.50400  -0.50187  -0.50097  -0.49851
 Alpha  occ. eigenvalues --   -0.49681  -0.49651  -0.49598  -0.49538  -0.49393
 Alpha  occ. eigenvalues --   -0.49203  -0.48979  -0.48872  -0.48571  -0.48463
 Alpha  occ. eigenvalues --   -0.48382  -0.48214  -0.48142  -0.48084  -0.47887
 Alpha  occ. eigenvalues --   -0.47658  -0.47538  -0.47375  -0.47319  -0.47057
 Alpha  occ. eigenvalues --   -0.46960  -0.46908  -0.46858  -0.46632  -0.46574
 Alpha  occ. eigenvalues --   -0.46470  -0.45861  -0.45679  -0.45568  -0.45529
 Alpha  occ. eigenvalues --   -0.45357  -0.45206  -0.45166  -0.45045  -0.45015
 Alpha  occ. eigenvalues --   -0.44904  -0.44766  -0.44747  -0.44448  -0.44241
 Alpha  occ. eigenvalues --   -0.44063  -0.43958  -0.43673  -0.43580  -0.43487
 Alpha  occ. eigenvalues --   -0.43140  -0.43122  -0.43076  -0.42778  -0.42371
 Alpha  occ. eigenvalues --   -0.42237  -0.42136  -0.41878  -0.41012  -0.40860
 Alpha  occ. eigenvalues --   -0.40657  -0.40433  -0.40211  -0.39962  -0.39764
 Alpha  occ. eigenvalues --   -0.39586  -0.39401  -0.38905  -0.38548  -0.38544
 Alpha  occ. eigenvalues --   -0.37749  -0.37657  -0.37146  -0.37143  -0.36772
 Alpha  occ. eigenvalues --   -0.36098  -0.35571  -0.35288  -0.33551  -0.33499
 Alpha  occ. eigenvalues --   -0.33145  -0.33141  -0.32796  -0.32321  -0.32235
 Alpha  occ. eigenvalues --   -0.32170  -0.31832  -0.31548  -0.26081  -0.26018
 Alpha  occ. eigenvalues --   -0.23111  -0.23022
 Alpha virt. eigenvalues --   -0.07288  -0.07008  -0.00315   0.00182   0.02389
 Alpha virt. eigenvalues --    0.02722   0.04504   0.04561   0.04857   0.05481
 Alpha virt. eigenvalues --    0.06210   0.06406   0.07462   0.07580   0.08518

 Mulliken charges:
               1
     1  Mg   0.980736
     2  C   -0.124122
     3  C   -0.080742
     4  C   -0.101656
     5  C   -0.096398
     6  N   -0.314509
     7  C   -0.024837
     8  C   -0.047785
     9  C   -0.085423
    10  C    0.060994
    11  C    0.030230
    12  C   -0.009402
    13  C   -0.101173
    14  H    0.050340
    15  N   -0.481316
    16  C    0.127725
    17  C   -0.142767
    18  C   -0.097921
    19  C    0.230258
    20  C    0.077138
    21  C    0.025783
    22  O   -0.277720
    23  C    0.020322
    24  N   -0.347168
    25  C    0.019034
    26  C   -0.090704
    27  C   -0.108916
    28  C    0.094291
    29  C    0.033645
    30  C    0.010073
    31  C   -0.047583
    32  N   -0.436832
    33  C    0.106304
    34  C   -0.206213
    35  C   -0.066832
    36  C    0.192952
    37  C    0.118115
    38  C    0.144217
    39  O   -0.188424
    40  C   -0.050636
    41  C    0.292282
    42  O   -0.254428
    43  O   -0.371182
    44  C    0.136611
    45  H   -0.000070
    46  H   -0.036572
    47  H    0.002963
    48  H    0.018572
    49  H    0.029567
    50  H    0.037169
    51  H    0.045346
    52  H    0.037061
    53  H    0.031081
    54  H    0.053651
    55  H    0.048089
    56  H    0.042420
    57  H    0.047734
    58  H    0.033295
    59  H    0.069378
    60  H    0.083914
    61  H    0.065079
    62  H    0.043282
    63  H    0.038405
    64  H    0.032673
    65  H    0.040660
    66  H    0.041131
    67  H    0.031825
    68  H    0.033602
    69  H    0.025547
    70  H    0.046667
    71  H    0.035584
    72  H    0.033272
    73  H    0.080987
    74  H    0.046769
    75  H    0.029894
    76  H    0.059577
    77  H    0.065660
    78  H    0.052751
    79  H    0.056678
    80  Mg   0.956643
    81  C   -0.040628
    82  C   -0.109722
    83  C   -0.099790
    84  C   -0.098532
    85  N   -0.351129
    86  C    0.005605
    87  C   -0.079493
    88  C   -0.050005
    89  C    0.025444
    90  C    0.014881
    91  C   -0.013898
    92  C   -0.131314
    93  H    0.040649
    94  N   -0.438474
    95  C    0.180570
    96  C   -0.147204
    97  C   -0.106979
    98  C    0.207104
    99  C    0.079837
   100  C    0.051312
   101  O   -0.236308
   102  C   -0.010440
   103  N   -0.368901
   104  C    0.022410
   105  C   -0.081700
   106  C   -0.120609
   107  C    0.043089
   108  C    0.052825
   109  C   -0.004580
   110  C   -0.029200
   111  N   -0.431064
   112  C    0.160596
   113  C   -0.200469
   114  C   -0.051356
   115  C    0.127571
   116  C    0.085786
   117  C    0.113372
   118  O   -0.186407
   119  C   -0.041115
   120  C    0.283613
   121  O   -0.239867
   122  O   -0.406697
   123  C    0.140518
   124  H   -0.005329
   125  H   -0.020470
   126  H   -0.017671
   127  H    0.039127
   128  H    0.033395
   129  H    0.033388
   130  H    0.047820
   131  H    0.043642
   132  H    0.053315
   133  H    0.034473
   134  H    0.067875
   135  H    0.053320
   136  H    0.060291
   137  H    0.036793
   138  H    0.064868
   139  H    0.070850
   140  H    0.065197
   141  H    0.051355
   142  H    0.031709
   143  H    0.032437
   144  H    0.042842
   145  H    0.037342
   146  H    0.047645
   147  H    0.039931
   148  H    0.030707
   149  H    0.027375
   150  H    0.038725
   151  H    0.043353
   152  H    0.019165
   153  H    0.066785
   154  H    0.074749
   155  H    0.069340
   156  H    0.037398
   157  H    0.075529
   158  H    0.056786
 Sum of Mulliken charges =  -0.00000

 Dipole moment (field-independent basis, Debye):
    X=              2.3252    Y=              3.0985    Z=             -3.3544  Tot=              5.1244
 Quadrupole moment (field-independent basis, Debye-Ang):
   XX=           -182.9224   YY=           -592.8789   ZZ=           -501.4922
   XY=              9.0320   XZ=            -75.1469   YZ=             -5.8654

 Normal termination of Gaussian 16 at Sun Sep 19 04:08:23 2021.
