 Gaussian 16, Revision A.03,
 Gaussian 16:  ES64L-G16RevA.03 25-Dec-2016

 --------------------------------
 #p wB97XD/Def2SVP td=(nstates=5)
 --------------------------------

 --------------------------------
 TDDFT excited states in gaussian
 --------------------------------
 Symbolic Z-matrix:
 Charge =  0 Multiplicity = 1

                         Standard orientation:
 ---------------------------------------------------------------------
 Center     Atomic      Atomic             Coordinates (Angstroms)
 Number     Number       Type             X           Y           Z
 ---------------------------------------------------------------------
      1         12           0      -28.745393   -0.153916   -0.643078
      2          6           0      -25.365062    0.639495    0.544138
      3          6           0      -28.084670   -3.347012    0.517640
      4          6           0      -31.900784   -0.615671   -0.655547
      5          6           0      -29.058869    3.371066   -1.265975
      6          7           0      -26.875257   -1.181938    0.581887
      7          6           0      -25.639265   -0.682101    0.929374
      8          6           0      -24.852478   -1.765865    1.753507
      9          6           0      -25.609052   -3.078537    1.485749
     10          6           0      -26.926899   -2.517653    0.828055
     11          6           0      -24.950186   -4.150146    0.521159
     12          6           0      -24.683549   -1.405221    3.269187
     13          6           0      -23.350279   -1.748688    3.897860
     14          1           0      -23.303713   -3.029341    4.789107
     15          7           0      -29.834262   -1.763687   -0.268502
     16          6           0      -29.413492   -3.015495    0.089903
     17          6           0      -30.585437   -3.924219    0.218581
     18          6           0      -31.700753   -3.107473   -0.102756
     19          6           0      -31.171241   -1.762846   -0.316150
     20          6           0      -30.577456   -5.389852    0.682878
     21          6           0      -33.190946   -3.443308    0.005274
     22          8           0      -33.485960   -4.596289    0.308109
     23          6           0      -34.242800   -2.539521   -0.247635
     24          7           0      -30.292881    1.296463   -0.667422
     25          6           0      -31.525801    0.729873   -0.923145
     26          6           0      -32.522772    1.887425   -1.317396
     27          6           0      -31.646886    3.185768   -1.196735
     28          6           0      -30.229595    2.567201   -1.137024
     29          6           0      -33.216790    1.737299   -2.698998
     30          6           0      -31.939977    4.198896   -0.017754
     31          6           0      -33.116862    5.176609   -0.179865
     32          7           0      -27.525509    1.689310   -0.487124
     33          6           0      -27.768538    2.983949   -0.900432
     34          6           0      -26.582001    3.802083   -0.832628
     35          6           0      -25.594671    2.904614   -0.277551
     36          6           0      -26.182974    1.619408   -0.009633
     37          6           0      -26.540812    5.256268   -1.188475
     38          6           0      -24.279022    2.848911    0.181005
     39          8           0      -23.452596    3.732792    0.362487
     40          6           0      -24.091433    1.454787    0.846542
     41          6           0      -22.902218    0.852630    0.135242
     42          8           0      -21.946091    0.341337    0.723452
     43          8           0      -23.020765    0.757985   -1.309752
     44          6           0      -22.027137   -0.141936   -1.893166
     45          1           0      -27.879218   -4.379086    0.807605
     46          1           0      -32.969242   -0.664787   -0.875617
     47          1           0      -29.287065    4.392928   -1.575826
     48          1           0      -23.897456   -1.948022    1.258643
     49          1           0      -25.932259   -3.556010    2.410760
     50          1           0      -24.609093   -4.943351    1.186093
     51          1           0      -24.065649   -3.746355    0.029419
     52          1           0      -25.587273   -4.512840   -0.285418
     53          1           0      -25.344140   -1.951342    3.943077
     54          1           0      -24.802705   -0.331869    3.418462
     55          1           0      -23.005543   -0.854130    4.416568
     56          1           0      -22.644326   -1.933043    3.087454
     57          1           0      -31.280516   -5.970002    0.084596
     58          1           0      -30.828813   -5.328059    1.741636
     59          1           0      -29.603168   -5.847445    0.516670
     60          1           0      -34.225631   -2.291923   -1.309482
     61          1           0      -34.254990   -1.658727    0.394433
     62          1           0      -35.098212   -3.124366    0.092220
     63          1           0      -33.349420    2.010789   -0.618531
     64          1           0      -31.646035    3.751663   -2.128012
     65          1           0      -32.954330    2.641687   -3.248079
     66          1           0      -34.293512    1.697416   -2.537110
     67          1           0      -32.795197    0.812454   -3.094625
     68          1           0      -31.012348    4.766904    0.059944
     69          1           0      -32.197115    3.667024    0.898502
     70          1           0      -33.430446    4.944529   -1.198064
     71          1           0      -32.769289    6.209839   -0.221934
     72          1           0      -33.948666    5.073116    0.516487
     73          1           0      -27.291276    5.727116   -0.554848
     74          1           0      -26.884432    5.466163   -2.201218
     75          1           0      -25.613714    5.741974   -0.883806
     76          1           0      -23.814069    1.636520    1.884700
     77          1           0      -22.612968   -0.385342   -2.780348
     78          1           0      -21.715204   -0.919160   -1.195546
     79          1           0      -21.204492    0.489580   -2.228867
     80         12           0       28.174487    0.612730   -0.340138
     81          6           0       27.022128   -2.696106    0.081829
     82          6           0       25.303496    1.757713    1.276682
     83          6           0       29.774368    3.583651    0.137761
     84          6           0       31.248263   -0.823354   -1.488799
     85          7           0       26.404293   -0.358616    0.516261
     86          6           0       26.166221   -1.684743    0.600109
     87          6           0       24.868327   -1.971607    1.423130
     88          6           0       24.206818   -0.517266    1.425821
     89          6           0       25.386595    0.417199    1.003924
     90          6           0       23.020475   -0.184360    0.492827
     91          6           0       25.276194   -2.504198    2.848690
     92          6           0       24.317234   -3.585780    3.418999
     93          1           0       23.995342   -3.467009    4.964292
     94          7           0       27.540829    2.537670    0.417533
     95          6           0       26.310385    2.757221    0.977722
     96          6           0       26.250084    4.133518    1.294535
     97          6           0       27.529088    4.719938    1.059181
     98          6           0       28.363249    3.625452    0.459008
     99          6           0       25.048178    4.834905    1.881842
    100          6           0       27.980393    6.078654    1.474456
    101          8           0       27.273397    6.818256    2.139955
    102          6           0       29.283312    6.630391    1.208342
    103          7           0       30.297182    1.227240   -0.550803
    104          6           0       30.616786    2.588130   -0.434778
    105          6           0       32.008565    2.845183   -0.921777
    106          6           0       32.534422    1.437848   -1.389559
    107          6           0       31.327656    0.548936   -1.143029
    108          6           0       31.961734    3.904296   -2.030537
    109          6           0       33.939180    1.054037   -0.789239
    110          6           0       35.030410    0.738645   -1.766858
    111          7           0       29.020549   -1.374678   -0.699531
    112          6           0       30.239446   -1.749310   -1.209315
    113          6           0       30.264913   -3.205660   -1.468411
    114          6           0       29.020696   -3.582541   -0.896796
    115          6           0       28.299938   -2.457647   -0.542054
    116          6           0       31.396423   -4.076413   -1.991722
    117          6           0       28.259799   -4.736431   -0.497115
    118          8           0       28.540805   -5.942417   -0.577672
    119          6           0       26.943507   -4.271161    0.125031
    120          6           0       25.784824   -4.861123   -0.571033
    121          8           0       24.989092   -5.531695   -0.019918
    122          8           0       25.617878   -4.399542   -1.844632
    123          6           0       24.308206   -4.821667   -2.386924
    124          1           0       24.383266    2.157377    1.708911
    125          1           0       30.193529    4.586578    0.232687
    126          1           0       32.101996   -1.437871   -1.783923
    127          1           0       24.282720   -2.714858    0.881792
    128          1           0       24.064689   -0.072799    2.410749
    129          1           0       23.035547   -0.830689   -0.385484
    130          1           0       22.939024    0.851240    0.162523
    131          1           0       22.124011   -0.437048    1.058042
    132          1           0       25.386137   -1.679297    3.553218
    133          1           0       26.267403   -2.934216    2.704534
    134          1           0       24.841083   -4.518842    3.210704
    135          1           0       23.455646   -3.513462    2.754901
    136          1           0       25.000297    5.914433    1.738346
    137          1           0       25.111088    4.595800    2.943088
    138          1           0       24.076642    4.377285    1.695187
    139          1           0       29.389736    6.674376    0.123685
    140          1           0       30.066174    6.042383    1.688235
    141          1           0       29.323560    7.635854    1.627402
    142          1           0       32.663896    3.104244   -0.090538
    143          1           0       32.558671    1.238141   -2.461060
    144          1           0       31.014349    4.442215   -2.072926
    145          1           0       32.088955    3.460801   -3.018073
    146          1           0       32.620703    4.731926   -1.769756
    147          1           0       33.735735    0.192957   -0.152633
    148          1           0       34.423194    1.863547   -0.244085
    149          1           0       35.413681   -0.248632   -1.510416
    150          1           0       35.869722    1.428262   -1.675045
    151          1           0       34.724099    0.857921   -2.806157
    152          1           0       32.106007   -4.357503   -1.213267
    153          1           0       31.910038   -3.644056   -2.851345
    154          1           0       30.854889   -4.991542   -2.230943
    155          1           0       26.847510   -4.683199    1.128754
    156          1           0       24.227846   -4.427465   -3.400299
    157          1           0       23.495059   -4.451162   -1.762883
    158          1           0       24.215816   -5.894257   -2.554029
 ---------------------------------------------------------------------

 SCF Done:  E(RwB97XD) =  -4070.53214179     A.U. after   20 cycles

 Excitation energies and oscillator strengths:

 Excited State   1:      Singlet-A      1.6192 eV  765.70 nm  f=0.4050  <S**2>=0.000
     309 -> 316        0.17888
     311 -> 313        0.68466
     309 <- 316        0.11647
 This state for optimization and/or second-order correction.
 Total Energy, E(TD-HF/TD-DFT) =  -4070.47263596
 Copying the excited state density for this state as the 1-particle RhoCI density.

 Excited State   2:      Singlet-A      1.6686 eV  743.05 nm  f=0.3544  <S**2>=0.000
     310 -> 315        0.20211
     312 -> 314        0.67713
     310 <- 315        0.11957

 Excited State   3:      Singlet-A      2.1452 eV  577.97 nm  f=0.1102  <S**2>=0.000
     309 -> 313        0.63984
     311 -> 316       -0.28464

 Excited State   4:      Singlet-A      2.1895 eV  566.27 nm  f=0.0673  <S**2>=0.000
     310 -> 314        0.61435
     312 -> 315       -0.33148

 Excited State   5:      Singlet-A      3.2204 eV  385.00 nm  f=0.0034  <S**2>=0.000
     304 -> 313       -0.13555
     306 -> 313       -0.11683
     307 -> 313        0.65576
     307 -> 318        0.10333

 The electronic state is 1-A.
 Alpha  occ. eigenvalues --  -46.97157 -46.97096 -19.30338 -19.28935 -19.25028
 Alpha  occ. eigenvalues --  -19.24844 -19.23942 -19.23830 -19.22896 -19.22302
 Alpha  occ. eigenvalues --  -14.47601 -14.47343 -14.47269 -14.46564 -14.45414
 Alpha  occ. eigenvalues --  -14.44472 -14.43889 -14.43737 -10.43269 -10.42562
 Alpha  occ. eigenvalues --  -10.38892 -10.38820 -10.37483 -10.37399 -10.36409
 Alpha  occ. eigenvalues --  -10.36298 -10.36006 -10.35962 -10.35877 -10.35643
 Alpha  occ. eigenvalues --  -10.35602 -10.35570 -10.35454 -10.35089 -10.35002
 Alpha  occ. eigenvalues --  -10.34996 -10.34490 -10.34236 -10.33870 -10.33858
 Alpha  occ. eigenvalues --  -10.33516 -10.33363 -10.33230 -10.33106 -10.33102
 Alpha  occ. eigenvalues --  -10.33066 -10.33062 -10.32976 -10.32897 -10.32752
 Alpha  occ. eigenvalues --  -10.32676 -10.32573 -10.32492 -10.32486 -10.32443
 Alpha  occ. eigenvalues --  -10.32369 -10.32296 -10.32273 -10.32269 -10.32188
 Alpha  occ. eigenvalues --  -10.32111 -10.31836 -10.31589 -10.31565 -10.31548
 Alpha  occ. eigenvalues --  -10.31395 -10.30969 -10.30900 -10.30867 -10.30846
 Alpha  occ. eigenvalues --  -10.30773 -10.30748 -10.30729 -10.30726 -10.30614
 Alpha  occ. eigenvalues --  -10.30510 -10.30382 -10.30243 -10.30117 -10.30033
 Alpha  occ. eigenvalues --  -10.29649 -10.29559 -10.29527 -10.29251 -10.29156
 Alpha  occ. eigenvalues --  -10.29124  -3.22999  -3.22801  -1.96523  -1.96395
 Alpha  occ. eigenvalues --   -1.96165  -1.95918  -1.95892  -1.95753  -1.20137
 Alpha  occ. eigenvalues --   -1.16079  -1.12684  -1.11719  -1.11257  -1.11216
 Alpha  occ. eigenvalues --   -1.11191  -1.08548  -1.07170  -1.07106  -1.05744
 Alpha  occ. eigenvalues --   -1.05436  -1.05360  -1.05351  -1.04555  -1.03086
 Alpha  occ. eigenvalues --   -0.94872  -0.94630  -0.91284  -0.90951  -0.90895
 Alpha  occ. eigenvalues --   -0.90820  -0.90405  -0.90116  -0.89953  -0.88990
 Alpha  occ. eigenvalues --   -0.88983  -0.88883  -0.87854  -0.87749  -0.86923
 Alpha  occ. eigenvalues --   -0.86779  -0.86594  -0.85767  -0.85598  -0.84628
 Alpha  occ. eigenvalues --   -0.84480  -0.84395  -0.83113  -0.82888  -0.82519
 Alpha  occ. eigenvalues --   -0.81846  -0.80608  -0.80239  -0.79551  -0.79278
 Alpha  occ. eigenvalues --   -0.78957  -0.78799  -0.78408  -0.77765  -0.77358
 Alpha  occ. eigenvalues --   -0.77229  -0.75152  -0.74826  -0.74494  -0.73920
 Alpha  occ. eigenvalues --   -0.71357  -0.71197  -0.71100  -0.70551  -0.69924
 Alpha  occ. eigenvalues --   -0.69711  -0.69001  -0.68844  -0.68289  -0.67648
 Alpha  occ. eigenvalues --   -0.67511  -0.67328  -0.67006  -0.67000  -0.66649
 Alpha  occ. eigenvalues --   -0.66032  -0.65310  -0.63886  -0.62415  -0.62088
 Alpha  occ. eigenvalues --   -0.62024  -0.61811  -0.61263  -0.60985  -0.60908
 Alpha  occ. eigenvalues --   -0.60868  -0.60276  -0.59187  -0.59050  -0.58999
 Alpha  occ. eigenvalues --   -0.58668  -0.58450  -0.58023  -0.57591  -0.57537
 Alpha  occ. eigenvalues --   -0.57076  -0.56749  -0.56508  -0.56298  -0.55837
 Alpha  occ. eigenvalues --   -0.55683  -0.55491  -0.55476  -0.55314  -0.55228
 Alpha  occ. eigenvalues --   -0.55092  -0.54850  -0.54768  -0.54567  -0.54440
 Alpha  occ. eigenvalues --   -0.54206  -0.53907  -0.53679  -0.53670  -0.53433
 Alpha  occ. eigenvalues --   -0.53420  -0.53277  -0.52970  -0.52821  -0.52523
 Alpha  occ. eigenvalues --   -0.51965  -0.51816  -0.51798  -0.51784  -0.51535
 Alpha  occ. eigenvalues --   -0.51510  -0.51234  -0.51103  -0.51027  -0.50900
 Alpha  occ. eigenvalues --   -0.50565  -0.50561  -0.50335  -0.50319  -0.50100
 Alpha  occ. eigenvalues --   -0.50087  -0.49898  -0.49664  -0.49455  -0.49253
 Alpha  occ. eigenvalues --   -0.49240  -0.48938  -0.48707  -0.48658  -0.48619
 Alpha  occ. eigenvalues --   -0.48469  -0.48264  -0.48244  -0.48044  -0.47853
 Alpha  occ. eigenvalues --   -0.47677  -0.47317  -0.47092  -0.47033  -0.46906
 Alpha  occ. eigenvalues --   -0.46795  -0.46632  -0.46608  -0.46440  -0.46318
 Alpha  occ. eigenvalues --   -0.46294  -0.46025  -0.45988  -0.45725  -0.45564
 Alpha  occ. eigenvalues --   -0.45524  -0.45299  -0.45155  -0.44922  -0.44811
 Alpha  occ. eigenvalues --   -0.44559  -0.44545  -0.44386  -0.44336  -0.44261
 Alpha  occ. eigenvalues --   -0.44043  -0.43908  -0.43693  -0.43425  -0.43296
 Alpha  occ. eigenvalues --   -0.43257  -0.42898  -0.42641  -0.42170  -0.42120
 Alpha  occ. eigenvalues --   -0.42059  -0.41832  -0.41535  -0.41216  -0.41124
 Alpha  occ. eigenvalues --   -0.40778  -0.40582  -0.39918  -0.39812  -0.39654
 Alpha  occ. eigenvalues --   -0.39617  -0.39236  -0.39164  -0.38932  -0.38329
 Alpha  occ. eigenvalues --   -0.38286  -0.37343  -0.36901  -0.36547  -0.36127
 Alpha  occ. eigenvalues --   -0.35938  -0.35748  -0.35268  -0.33841  -0.33708
 Alpha  occ. eigenvalues --   -0.33528  -0.33207  -0.32974  -0.32602  -0.32119
 Alpha  occ. eigenvalues --   -0.31905  -0.31324  -0.30868  -0.26422  -0.26402
 Alpha  occ. eigenvalues --   -0.23361  -0.23269
 Alpha virt. eigenvalues --   -0.07751  -0.07137  -0.00804  -0.00336   0.01877
 Alpha virt. eigenvalues --    0.02336   0.03640   0.04317   0.04418   0.04554
 Alpha virt. eigenvalues --    0.06815   0.06980   0.07282   0.08010   0.08150

 Mulliken charges:
               1
     1  Mg   0.966406
     2  C   -0.023698
     3  C   -0.063196
     4  C   -0.092006
     5  C   -0.100989
     6  N   -0.282699
     7  C   -0.034144
     8  C    0.018352
     9  C   -0.119643
    10  C   -0.008071
    11  C    0.015355
    12  C    0.017510
    13  C   -0.125796
    14  H    0.022218
    15  N   -0.499532
    16  C    0.163184
    17  C   -0.190117
    18  C   -0.055658
    19  C    0.215158
    20  C    0.096987
    21  C    0.017715
    22  O   -0.245753
    23  C    0.020213
    24  N   -0.384794
    25  C    0.048379
    26  C   -0.125738
    27  C   -0.090110
    28  C    0.045057
    29  C    0.037768
    30  C   -0.003812
    31  C   -0.042740
    32  N   -0.423533
    33  C    0.155275
    34  C   -0.159652
    35  C   -0.021029
    36  C    0.159138
    37  C    0.093618
    38  C    0.074480
    39  O   -0.216347
    40  C   -0.098785
    41  C    0.286639
    42  O   -0.256786
    43  O   -0.417817
    44  C    0.139139
    45  H   -0.001277
    46  H   -0.023764
    47  H   -0.001922
    48  H    0.034642
    49  H    0.044275
    50  H    0.048579
    51  H    0.036643
    52  H    0.049371
    53  H    0.048465
    54  H    0.043932
    55  H    0.057363
    56  H    0.052607
    57  H    0.068245
    58  H    0.069356
    59  H    0.030876
    60  H    0.075417
    61  H    0.063992
    62  H    0.054820
    63  H    0.035891
    64  H    0.019938
    65  H    0.037836
    66  H    0.042227
    67  H    0.042230
    68  H    0.028948
    69  H    0.036393
    70  H    0.015403
    71  H    0.040185
    72  H    0.050253
    73  H    0.034112
    74  H    0.047806
    75  H    0.062828
    76  H    0.072086
    77  H    0.050720
    78  H    0.068817
    79  H    0.052562
    80  Mg   0.930814
    81  C   -0.012354
    82  C   -0.078732
    83  C   -0.029746
    84  C   -0.055319
    85  N   -0.359345
    86  C   -0.011385
    87  C   -0.090435
    88  C   -0.100417
    89  C    0.079471
    90  C    0.033008
    91  C    0.011819
    92  C   -0.107024
    93  H    0.041732
    94  N   -0.446479
    95  C    0.131698
    96  C   -0.166304
    97  C   -0.071281
    98  C    0.121461
    99  C    0.092370
   100  C   -0.000440
   101  O   -0.245869
   102  C    0.011304
   103  N   -0.354413
   104  C    0.049211
   105  C   -0.068712
   106  C   -0.054112
   107  C    0.053434
   108  C    0.028801
   109  C   -0.008411
   110  C   -0.059106
   111  N   -0.368166
   112  C    0.038747
   113  C   -0.158734
   114  C   -0.038390
   115  C    0.117446
   116  C    0.062062
   117  C    0.094531
   118  O   -0.225725
   119  C   -0.017551
   120  C    0.221576
   121  O   -0.212638
   122  O   -0.366514
   123  C    0.140005
   124  H    0.006090
   125  H   -0.031092
   126  H   -0.001367
   127  H    0.038034
   128  H    0.035496
   129  H    0.032284
   130  H    0.046130
   131  H    0.040176
   132  H    0.042484
   133  H    0.036085
   134  H    0.065950
   135  H    0.053282
   136  H    0.070787
   137  H    0.039812
   138  H    0.017348
   139  H    0.051117
   140  H    0.064323
   141  H    0.052297
   142  H    0.047984
   143  H    0.037668
   144  H    0.035147
   145  H    0.041418
   146  H    0.037069
   147  H    0.041961
   148  H    0.039574
   149  H    0.042337
   150  H    0.030763
   151  H    0.032991
   152  H    0.064831
   153  H    0.051561
   154  H    0.065763
   155  H    0.062039
   156  H    0.046740
   157  H    0.053361
   158  H    0.057665
 Sum of Mulliken charges =  -0.00000

 Dipole moment (field-independent basis, Debye):
    X=             -2.4531    Y=              1.4927    Z=             -6.1857  Tot=              6.8197
 Quadrupole moment (field-independent basis, Debye-Ang):
   XX=            -93.9194   YY=           -573.4769   ZZ=           -503.1716
   XY=             69.9742   XZ=            -27.5020   YZ=            -11.5965

 Normal termination of Gaussian 16 at Mon Sep 20 05:34:33 2021.
