 Gaussian 16, Revision A.03,
 Gaussian 16:  ES64L-G16RevA.03 25-Dec-2016

 --------------------------------
 #p wB97XD/Def2SVP td=(nstates=5)
 --------------------------------

 --------------------------------
 TDDFT excited states in gaussian
 --------------------------------
 Symbolic Z-matrix:
 Charge =  0 Multiplicity = 1

                         Standard orientation:
 ---------------------------------------------------------------------
 Center     Atomic      Atomic             Coordinates (Angstroms)
 Number     Number       Type             X           Y           Z
 ---------------------------------------------------------------------
      1         12           0      -27.621993    0.118388   -0.090455
      2          6           0      -24.419943   -1.083814    0.277585
      3          6           0      -28.752066   -1.789630    2.519107
      4          6           0      -30.827817    1.504245   -0.361563
      5          6           0      -26.456945    2.661544   -2.115604
      6          7           0      -26.565645   -1.109395    1.351060
      7          6           0      -25.278001   -1.641943    1.244034
      8          6           0      -24.968859   -2.595810    2.400685
      9          6           0      -26.411434   -2.865182    2.899115
     10          6           0      -27.335143   -1.793188    2.285344
     11          6           0      -26.861799   -4.327541    2.689911
     12          6           0      -24.050270   -1.952523    3.458389
     13          6           0      -22.909506   -2.852937    4.046312
     14          1           0      -22.519037   -2.580525    5.446402
     15          7           0      -29.484919   -0.156612    0.887594
     16          6           0      -29.769089   -1.044550    1.867714
     17          6           0      -31.174200   -1.176918    2.111744
     18          6           0      -31.821636   -0.331881    1.195474
     19          6           0      -30.687770    0.388822    0.481425
     20          6           0      -31.792497   -2.192560    3.074660
     21          6           0      -33.370729   -0.134083    1.018171
     22          8           0      -34.143437   -0.720725    1.818468
     23          6           0      -34.024444    0.698429   -0.167244
     24          7           0      -28.463345    2.022195   -0.861449
     25          6           0      -29.794583    2.252862   -0.967788
     26          6           0      -30.119490    3.411705   -1.875017
     27          6           0      -28.735306    3.834191   -2.412902
     28          6           0      -27.822999    2.766020   -1.804549
     29          6           0      -31.194271    3.103609   -2.969715
     30          6           0      -28.372427    5.362831   -2.096284
     31          6           0      -28.469476    6.306148   -3.300886
     32          7           0      -25.835329    0.674004   -0.843988
     33          6           0      -25.463524    1.730498   -1.704304
     34          6           0      -24.078845    1.527082   -2.150207
     35          6           0      -23.684381    0.396694   -1.448095
     36          6           0      -24.741582    0.023666   -0.601891
     37          6           0      -23.247319    2.323603   -3.090823
     38          6           0      -22.546766   -0.504363   -1.214815
     39          8           0      -21.478341   -0.663492   -1.827836
     40          6           0      -22.994767   -1.540324   -0.107307
     41          6           0      -22.968353   -2.967144   -0.638712
     42          8           0      -23.399914   -3.377117   -1.720869
     43          8           0      -22.297703   -3.653815    0.329377
     44          6           0      -21.954421   -5.033224    0.026840
     45          1           0      -29.125838   -2.397559    3.345537
     46          1           0      -31.788811    1.965827   -0.598204
     47          1           0      -26.025763    3.430969   -2.759171
     48          1           0      -24.461070   -3.481577    2.017579
     49          1           0      -26.338201   -2.697752    3.973643
     50          1           0      -26.111373   -5.107897    2.563579
     51          1           0      -27.409201   -4.330521    1.747459
     52          1           0      -27.502793   -4.680741    3.497331
     53          1           0      -24.603679   -1.497600    4.279453
     54          1           0      -23.659164   -1.054970    2.978685
     55          1           0      -22.023134   -2.753647    3.419805
     56          1           0      -23.256676   -3.887095    4.052936
     57          1           0      -32.479947   -2.784987    2.471309
     58          1           0      -32.145219   -1.681744    3.970709
     59          1           0      -30.967292   -2.856758    3.331365
     60          1           0      -34.025183    1.737442    0.160137
     61          1           0      -35.048517    0.337709   -0.260588
     62          1           0      -33.516315    0.380799   -1.078150
     63          1           0      -30.534775    4.210924   -1.260971
     64          1           0      -28.547403    3.645190   -3.469560
     65          1           0      -30.889771    3.477063   -3.947036
     66          1           0      -32.165968    3.539318   -2.737915
     67          1           0      -31.391856    2.032522   -2.981158
     68          1           0      -27.342974    5.485499   -1.759963
     69          1           0      -28.972219    5.723006   -1.260518
     70          1           0      -28.886405    7.262679   -2.985241
     71          1           0      -29.117233    5.867775   -4.059751
     72          1           0      -27.514085    6.502424   -3.787164
     73          1           0      -23.889618    3.090849   -3.523171
     74          1           0      -22.672040    1.657590   -3.734233
     75          1           0      -22.555478    2.891408   -2.467763
     76          1           0      -22.394627   -1.464618    0.799837
     77          1           0      -22.766063   -5.601081   -0.429767
     78          1           0      -21.576859   -5.642068    0.848315
     79          1           0      -21.119956   -5.057692   -0.674464
     80         12           0       26.830900    0.709076    0.562211
     81          6           0       27.835603   -2.529801   -0.593243
     82          6           0       24.247445    0.512291   -1.831658
     83          6           0       26.210643    3.895443    0.970273
     84          6           0       29.599236    0.814295    2.533938
     85          7           0       26.124595   -0.869388   -0.974996
     86          6           0       26.662212   -2.103545   -1.127051
     87          6           0       25.771724   -2.909232   -2.058575
     88          6           0       24.577134   -2.007783   -2.479889
     89          6           0       24.962813   -0.729071   -1.711560
     90          6           0       24.426724   -1.832041   -4.094984
     91          6           0       25.226727   -4.242261   -1.387874
     92          6           0       25.350686   -5.523526   -2.213064
     93          1           0       25.230051   -5.492509   -3.789557
     94          7           0       25.441978    2.047493   -0.359343
     95          6           0       24.509416    1.761414   -1.243001
     96          6           0       23.809630    2.980043   -1.537433
     97          6           0       24.223300    4.002318   -0.646114
     98          6           0       25.338268    3.356899   -0.003918
     99          6           0       22.581581    3.028202   -2.445033
    100          6           0       23.688830    5.379765   -0.286437
    101          8           0       24.259917    6.132433    0.481267
    102          6           0       22.362162    5.752141   -0.889121
    103          7           0       27.988535    2.215691    1.328290
    104          6           0       27.392328    3.455263    1.567235
    105          6           0       28.146870    4.299185    2.630233
    106          6           0       29.108941    3.187308    3.195479
    107          6           0       28.892687    1.969677    2.296961
    108          6           0       28.829231    5.512538    1.982069
    109          6           0       28.761569    2.741181    4.694006
    110          6           0       29.651418    3.204154    5.798465
    111          7           0       28.316592   -0.584364    1.001597
    112          6           0       29.409939   -0.380003    1.815336
    113          6           0       30.360935   -1.487815    1.775188
    114          6           0       29.773409   -2.392242    0.820199
    115          6           0       28.625213   -1.747901    0.302172
    116          6           0       31.504019   -1.642502    2.711869
    117          6           0       29.866744   -3.713541    0.218539
    118          8           0       30.729674   -4.581664    0.443348
    119          6           0       28.587544   -3.862119   -0.785938
    120          6           0       29.170462   -4.031788   -2.107514
    121          8           0       29.942266   -3.243954   -2.609095
    122          8           0       28.737404   -5.153775   -2.694518
    123          6           0       29.229255   -5.593981   -4.037670
    124          1           0       23.386838    0.476584   -2.502748
    125          1           0       25.846760    4.792566    1.476753
    126          1           0       30.426799    0.860024    3.244546
    127          1           0       26.362205   -3.135746   -2.946353
    128          1           0       23.617587   -2.450781   -2.212662
    129          1           0       24.905504   -2.657764   -4.621429
    130          1           0       24.892444   -0.870736   -4.313549
    131          1           0       23.371294   -1.776554   -4.361109
    132          1           0       24.204130   -4.188495   -1.016887
    133          1           0       25.808118   -4.453718   -0.490530
    134          1           0       24.645210   -6.285245   -1.880447
    135          1           0       26.326494   -5.905478   -1.913024
    136          1           0       21.631051    2.991960   -1.912534
    137          1           0       22.646105    2.293615   -3.248295
    138          1           0       22.638204    3.978733   -2.975009
    139          1           0       21.620197    4.953341   -0.909513
    140          1           0       22.412511    6.122766   -1.911986
    141          1           0       21.848758    6.436289   -0.213452
    142          1           0       27.408231    4.640874    3.354815
    143          1           0       30.125969    3.578143    3.161193
    144          1           0       28.536686    5.696890    0.948463
    145          1           0       29.911798    5.394913    1.949202
    146          1           0       28.613115    6.402966    2.573343
    147          1           0       28.726139    1.663590    4.854040
    148          1           0       27.746061    3.007010    4.985249
    149          1           0       29.100703    3.852345    6.478929
    150          1           0       30.430235    3.753592    5.269307
    151          1           0       30.031340    2.353787    6.364631
    152          1           0       31.680144   -2.690084    2.953736
    153          1           0       31.297857   -0.982847    3.554551
    154          1           0       32.383988   -1.259653    2.193168
    155          1           0       27.985523   -4.737692   -0.546703
    156          1           0       30.319174   -5.573446   -4.047581
    157          1           0       28.877048   -4.951187   -4.844808
    158          1           0       28.822999   -6.552061   -4.360746
 ---------------------------------------------------------------------

 SCF Done:  E(RwB97XD) =  -4070.62142632     A.U. after   19 cycles

 Excitation energies and oscillator strengths:

 Excited State   1:      Singlet-A      1.6235 eV  763.67 nm  f=0.4055  <S**2>=0.000
     310 -> 316       -0.17886
     312 -> 313        0.68451
     310 <- 316       -0.11640
 This state for optimization and/or second-order correction.
 Total Energy, E(TD-HF/TD-DFT) =  -4070.56176258
 Copying the excited state density for this state as the 1-particle RhoCI density.

 Excited State   2:      Singlet-A      1.6651 eV  744.62 nm  f=0.3599  <S**2>=0.000
     309 -> 315       -0.17865
     311 -> 314        0.68380
     309 <- 315       -0.11335

 Excited State   3:      Singlet-A      2.1424 eV  578.73 nm  f=0.1285  <S**2>=0.000
     310 -> 313        0.64801
     312 -> 316        0.26639

 Excited State   4:      Singlet-A      2.1966 eV  564.45 nm  f=0.0912  <S**2>=0.000
     309 -> 314        0.62320
     311 -> 315        0.31717

 Excited State   5:      Singlet-A      3.3488 eV  370.24 nm  f=0.0016  <S**2>=0.000
     306 -> 313       -0.11135
     308 -> 313        0.67180

 The electronic state is 1-A.
 Alpha  occ. eigenvalues --  -46.95549 -46.94961 -19.31599 -19.30457 -19.25231
 Alpha  occ. eigenvalues --  -19.24812 -19.24545 -19.24104 -19.23494 -19.23443
 Alpha  occ. eigenvalues --  -14.47050 -14.46783 -14.46483 -14.46304 -14.44892
 Alpha  occ. eigenvalues --  -14.43992 -14.43691 -14.43651 -10.43829 -10.42304
 Alpha  occ. eigenvalues --  -10.40783 -10.39744 -10.39528 -10.38776 -10.36347
 Alpha  occ. eigenvalues --  -10.36274 -10.35806 -10.35764 -10.35367 -10.35261
 Alpha  occ. eigenvalues --  -10.35135 -10.34786 -10.34545 -10.34499 -10.34452
 Alpha  occ. eigenvalues --  -10.34265 -10.33669 -10.33661 -10.33604 -10.33201
 Alpha  occ. eigenvalues --  -10.33015 -10.32789 -10.32736 -10.32731 -10.32623
 Alpha  occ. eigenvalues --  -10.32577 -10.32422 -10.32327 -10.32256 -10.32222
 Alpha  occ. eigenvalues --  -10.32158 -10.32157 -10.32085 -10.32020 -10.32001
 Alpha  occ. eigenvalues --  -10.31988 -10.31849 -10.31833 -10.31809 -10.31792
 Alpha  occ. eigenvalues --  -10.31733 -10.31671 -10.31427 -10.31414 -10.31145
 Alpha  occ. eigenvalues --  -10.31021 -10.30961 -10.30856 -10.30653 -10.30651
 Alpha  occ. eigenvalues --  -10.30600 -10.30534 -10.30300 -10.30283 -10.30251
 Alpha  occ. eigenvalues --  -10.29959 -10.29944 -10.29919 -10.29815 -10.29737
 Alpha  occ. eigenvalues --  -10.29641 -10.29615 -10.29580 -10.29303 -10.28807
 Alpha  occ. eigenvalues --  -10.28589  -3.21526  -3.21027  -1.95080  -1.94635
 Alpha  occ. eigenvalues --   -1.94582  -1.94522  -1.94157  -1.94004  -1.19039
 Alpha  occ. eigenvalues --   -1.18719  -1.13052  -1.10928  -1.10690  -1.10565
 Alpha  occ. eigenvalues --   -1.09971  -1.09551  -1.06694  -1.06678  -1.06049
 Alpha  occ. eigenvalues --   -1.05612  -1.05515  -1.05138  -1.04193  -1.03923
 Alpha  occ. eigenvalues --   -0.94135  -0.93380  -0.90837  -0.90738  -0.90588
 Alpha  occ. eigenvalues --   -0.90503  -0.90150  -0.89962  -0.89209  -0.89051
 Alpha  occ. eigenvalues --   -0.88980  -0.88947  -0.88412  -0.88358  -0.86258
 Alpha  occ. eigenvalues --   -0.86145  -0.86007  -0.85792  -0.84555  -0.84429
 Alpha  occ. eigenvalues --   -0.83742  -0.83594  -0.83222  -0.83109  -0.82654
 Alpha  occ. eigenvalues --   -0.82159  -0.80220  -0.79888  -0.79599  -0.79456
 Alpha  occ. eigenvalues --   -0.78795  -0.78714  -0.78176  -0.77831  -0.77265
 Alpha  occ. eigenvalues --   -0.76783  -0.74716  -0.74477  -0.73739  -0.73393
 Alpha  occ. eigenvalues --   -0.71143  -0.70937  -0.70742  -0.69855  -0.69748
 Alpha  occ. eigenvalues --   -0.69605  -0.69304  -0.68919  -0.68068  -0.67470
 Alpha  occ. eigenvalues --   -0.67096  -0.67092  -0.66997  -0.66624  -0.66591
 Alpha  occ. eigenvalues --   -0.66486  -0.64687  -0.64406  -0.62488  -0.61933
 Alpha  occ. eigenvalues --   -0.61631  -0.61171  -0.60964  -0.60817  -0.60623
 Alpha  occ. eigenvalues --   -0.60461  -0.60027  -0.59719  -0.59457  -0.59240
 Alpha  occ. eigenvalues --   -0.58083  -0.58015  -0.57753  -0.57662  -0.57260
 Alpha  occ. eigenvalues --   -0.57141  -0.56984  -0.56283  -0.55736  -0.55441
 Alpha  occ. eigenvalues --   -0.55346  -0.55250  -0.55131  -0.54935  -0.54846
 Alpha  occ. eigenvalues --   -0.54788  -0.54560  -0.54539  -0.54248  -0.53998
 Alpha  occ. eigenvalues --   -0.53933  -0.53551  -0.53311  -0.53205  -0.53191
 Alpha  occ. eigenvalues --   -0.53106  -0.53062  -0.52805  -0.52534  -0.52462
 Alpha  occ. eigenvalues --   -0.51994  -0.51922  -0.51884  -0.51400  -0.51265
 Alpha  occ. eigenvalues --   -0.51166  -0.51045  -0.51000  -0.50698  -0.50482
 Alpha  occ. eigenvalues --   -0.50450  -0.50321  -0.50266  -0.50109  -0.50024
 Alpha  occ. eigenvalues --   -0.49773  -0.49710  -0.49668  -0.49418  -0.49350
 Alpha  occ. eigenvalues --   -0.49140  -0.48841  -0.48653  -0.48534  -0.48524
 Alpha  occ. eigenvalues --   -0.48313  -0.48157  -0.48043  -0.47998  -0.47819
 Alpha  occ. eigenvalues --   -0.47475  -0.47220  -0.47172  -0.47031  -0.46755
 Alpha  occ. eigenvalues --   -0.46453  -0.46374  -0.46185  -0.46094  -0.45748
 Alpha  occ. eigenvalues --   -0.45725  -0.45679  -0.45534  -0.45478  -0.45259
 Alpha  occ. eigenvalues --   -0.45227  -0.44967  -0.44953  -0.44684  -0.44595
 Alpha  occ. eigenvalues --   -0.44532  -0.44437  -0.44394  -0.44120  -0.43915
 Alpha  occ. eigenvalues --   -0.43763  -0.43513  -0.43475  -0.43333  -0.43191
 Alpha  occ. eigenvalues --   -0.43099  -0.42905  -0.42739  -0.42525  -0.42428
 Alpha  occ. eigenvalues --   -0.42180  -0.41632  -0.41607  -0.41293  -0.41255
 Alpha  occ. eigenvalues --   -0.40707  -0.40313  -0.40279  -0.40093  -0.39847
 Alpha  occ. eigenvalues --   -0.39441  -0.39049  -0.38938  -0.38529  -0.38409
 Alpha  occ. eigenvalues --   -0.38222  -0.38114  -0.36872  -0.36800  -0.36443
 Alpha  occ. eigenvalues --   -0.35697  -0.35301  -0.35229  -0.33768  -0.33688
 Alpha  occ. eigenvalues --   -0.33395  -0.33329  -0.32778  -0.32715  -0.32429
 Alpha  occ. eigenvalues --   -0.32262  -0.31964  -0.31576  -0.26156  -0.25745
 Alpha  occ. eigenvalues --   -0.22925  -0.22759
 Alpha virt. eigenvalues --   -0.07074  -0.06938  -0.00145   0.00806   0.02218
 Alpha virt. eigenvalues --    0.02219   0.04040   0.04161   0.04793   0.04941
 Alpha virt. eigenvalues --    0.07131   0.07374   0.07391   0.07871   0.08163

 Mulliken charges:
               1
     1  Mg   0.973296
     2  C   -0.080626
     3  C   -0.110125
     4  C   -0.086163
     5  C   -0.082930
     6  N   -0.404065
     7  C   -0.008455
     8  C   -0.052784
     9  C   -0.092049
    10  C    0.126003
    11  C    0.013998
    12  C    0.023130
    13  C   -0.127709
    14  H    0.043588
    15  N   -0.430222
    16  C    0.153065
    17  C   -0.190531
    18  C   -0.078439
    19  C    0.194557
    20  C    0.116197
    21  C    0.044370
    22  O   -0.256205
    23  C   -0.009266
    24  N   -0.325100
    25  C    0.022998
    26  C   -0.076399
    27  C   -0.052242
    28  C    0.038436
    29  C    0.010480
    30  C   -0.007609
    31  C   -0.058081
    32  N   -0.440769
    33  C    0.101239
    34  C   -0.206461
    35  C   -0.044000
    36  C    0.153233
    37  C    0.107363
    38  C    0.155572
    39  O   -0.229748
    40  C   -0.059888
    41  C    0.289197
    42  O   -0.247449
    43  O   -0.356458
    44  C    0.133484
    45  H    0.007804
    46  H   -0.019715
    47  H   -0.011102
    48  H    0.025037
    49  H    0.032697
    50  H    0.036822
    51  H    0.034837
    52  H    0.038413
    53  H    0.030662
    54  H    0.030151
    55  H    0.066454
    56  H    0.049605
    57  H    0.065666
    58  H    0.072169
    59  H    0.012161
    60  H    0.080695
    61  H    0.058313
    62  H    0.060688
    63  H    0.046749
    64  H    0.034044
    65  H    0.046878
    66  H    0.033576
    67  H    0.037734
    68  H    0.032978
    69  H    0.028785
    70  H    0.039108
    71  H    0.028619
    72  H    0.041132
    73  H    0.021216
    74  H    0.075372
    75  H    0.050494
    76  H    0.064428
    77  H    0.055260
    78  H    0.052191
    79  H    0.053649
    80  Mg   0.966176
    81  C   -0.049202
    82  C   -0.089704
    83  C   -0.059782
    84  C   -0.106209
    85  N   -0.317361
    86  C    0.011187
    87  C   -0.040344
    88  C   -0.105312
    89  C    0.050333
    90  C   -0.005209
    91  C   -0.008630
    92  C   -0.109768
    93  H    0.017151
    94  N   -0.388011
    95  C    0.164033
    96  C   -0.188253
    97  C   -0.059094
    98  C    0.115249
    99  C    0.051824
   100  C    0.080694
   101  O   -0.219443
   102  C   -0.036808
   103  N   -0.403595
   104  C    0.019038
   105  C   -0.074835
   106  C   -0.053958
   107  C    0.103514
   108  C    0.032754
   109  C   -0.056535
   110  C   -0.031322
   111  N   -0.481447
   112  C    0.161544
   113  C   -0.187075
   114  C   -0.019288
   115  C    0.159974
   116  C    0.089873
   117  C    0.119841
   118  O   -0.226499
   119  C   -0.061627
   120  C    0.257945
   121  O   -0.245674
   122  O   -0.357572
   123  C    0.146413
   124  H   -0.009380
   125  H    0.024572
   126  H    0.000985
   127  H    0.044114
   128  H    0.046816
   129  H    0.047923
   130  H    0.045188
   131  H    0.037833
   132  H    0.030196
   133  H    0.028287
   134  H    0.044377
   135  H    0.052377
   136  H    0.066473
   137  H    0.038133
   138  H    0.031142
   139  H    0.036052
   140  H    0.074663
   141  H    0.049270
   142  H    0.043687
   143  H    0.035650
   144  H    0.053044
   145  H    0.026330
   146  H    0.041761
   147  H    0.029353
   148  H    0.020485
   149  H    0.036572
   150  H    0.025279
   151  H    0.038912
   152  H    0.066620
   153  H    0.037265
   154  H    0.055606
   155  H    0.057896
   156  H    0.070423
   157  H    0.046851
   158  H    0.060255
 Sum of Mulliken charges =  -0.00000

 Dipole moment (field-independent basis, Debye):
    X=             -7.3539    Y=              1.0519    Z=              0.7232  Tot=              7.4639
 Quadrupole moment (field-independent basis, Debye-Ang):
   XX=           -675.7842   YY=           -488.6282   ZZ=           -487.3540
   XY=            -27.9938   XZ=             35.9044   YZ=             -8.7306

 Normal termination of Gaussian 16 at Mon Sep 20 16:46:10 2021.
