 Gaussian 16, Revision A.03,
 Gaussian 16:  ES64L-G16RevA.03 25-Dec-2016

 --------------------------------
 #p wB97XD/Def2SVP td=(nstates=5)
 --------------------------------

 --------------------------------
 TDDFT excited states in gaussian
 --------------------------------
 Symbolic Z-matrix:
 Charge =  0 Multiplicity = 1

                         Standard orientation:
 ---------------------------------------------------------------------
 Center     Atomic      Atomic             Coordinates (Angstroms)
 Number     Number       Type             X           Y           Z
 ---------------------------------------------------------------------
      1         12           0      -29.832728   -0.537583   -0.417758
      2          6           0      -26.716056    0.782525   -1.522659
      3          6           0      -28.224807   -3.362786    0.661855
      4          6           0      -32.617766   -1.309137    1.555900
      5          6           0      -31.295415    2.602403   -1.008945
      6          7           0      -27.559249   -1.040169   -0.242899
      7          6           0      -26.549623   -0.500397   -0.945073
      8          6           0      -25.437123   -1.522310   -1.092045
      9          6           0      -25.880672   -2.859328   -0.324855
     10          6           0      -27.408776   -2.410099   -0.076536
     11          6           0      -25.731632   -4.058472   -1.287984
     12          6           0      -24.121923   -0.970481   -0.565909
     13          6           0      -24.192370   -0.088328    0.703198
     14          1           0      -23.670303   -0.717268    2.023866
     15          7           0      -30.403273   -2.191734    0.883055
     16          6           0      -29.540724   -3.226132    1.174122
     17          6           0      -30.315400   -4.184510    1.898250
     18          6           0      -31.587446   -3.610391    2.280250
     19          6           0      -31.631743   -2.324148    1.539713
     20          6           0      -29.736280   -5.486080    2.402475
     21          6           0      -32.579115   -4.132058    3.321331
     22          8           0      -32.317056   -5.129907    3.964863
     23          6           0      -33.829033   -3.494928    3.609694
     24          7           0      -31.649155    0.526986    0.278119
     25          6           0      -32.647596   -0.058360    0.922857
     26          6           0      -33.822389    0.869783    1.185413
     27          6           0      -33.202273    2.236198    0.661987
     28          6           0      -32.021174    1.790833   -0.122454
     29          6           0      -35.168452    0.448324    0.416809
     30          6           0      -32.904852    3.220259    1.885251
     31          6           0      -33.701748    4.481885    2.060676
     32          7           0      -29.274097    1.176213   -1.306716
     33          6           0      -30.019880    2.337805   -1.593078
     34          6           0      -29.224788    3.279847   -2.402661
     35          6           0      -27.971551    2.667806   -2.389984
     36          6           0      -27.966374    1.452121   -1.620652
     37          6           0      -29.681157    4.563741   -3.178099
     38          6           0      -26.597511    2.862124   -2.863939
     39          8           0      -26.051746    3.743296   -3.548470
     40          6           0      -25.732949    1.663711   -2.350571
     41          6           0      -24.774971    2.400886   -1.479779
     42          8           0      -25.078064    3.096248   -0.544364
     43          8           0      -23.540414    2.285995   -1.960807
     44          6           0      -22.390846    2.880547   -1.193387
     45          1           0      -27.796031   -4.364352    0.733783
     46          1           0      -33.569861   -1.446044    2.072469
     47          1           0      -31.804556    3.568333   -1.044602
     48          1           0      -25.426051   -1.585369   -2.180189
     49          1           0      -25.324315   -3.015526    0.599742
     50          1           0      -25.027922   -4.762991   -0.845102
     51          1           0      -25.326396   -3.804642   -2.267841
     52          1           0      -26.716520   -4.521987   -1.338284
     53          1           0      -23.643078   -0.371101   -1.340265
     54          1           0      -23.452331   -1.783176   -0.282849
     55          1           0      -25.178963    0.191456    1.072337
     56          1           0      -23.611466    0.798014    0.447893
     57          1           0      -28.672434   -5.570348    2.179125
     58          1           0      -30.354066   -6.294534    2.010020
     59          1           0      -29.934176   -5.533719    3.472728
     60          1           0      -33.756918   -2.493885    4.035459
     61          1           0      -34.384605   -4.100757    4.325268
     62          1           0      -34.293909   -3.425983    2.625615
     63          1           0      -34.028315    1.037710    2.242227
     64          1           0      -34.064901    2.678693    0.163495
     65          1           0      -35.005407   -0.490532   -0.113211
     66          1           0      -35.366613    1.218729   -0.328625
     67          1           0      -36.070663    0.390656    1.027685
     68          1           0      -31.908665    3.655978    1.807830
     69          1           0      -32.971739    2.692825    2.835809
     70          1           0      -33.185025    5.380909    1.724644
     71          1           0      -33.796508    4.482796    3.147049
     72          1           0      -34.744714    4.412537    1.751184
     73          1           0      -29.828526    5.356524   -2.445206
     74          1           0      -30.572955    4.294425   -3.744257
     75          1           0      -28.859965    4.887779   -3.817172
     76          1           0      -25.319174    1.190403   -3.241761
     77          1           0      -22.236516    3.937009   -1.414041
     78          1           0      -21.459042    2.357263   -1.411728
     79          1           0      -22.647796    2.722228   -0.146019
     80         12           0       28.973983    0.449163    0.633647
     81          6           0       28.849486   -2.361394   -1.353106
     82          6           0       27.437538    2.272520   -2.027742
     83          6           0       29.379652    3.237197    2.314412
     84          6           0       30.623228   -1.338386    3.133286
     85          7           0       28.252469   -0.073662   -1.420536
     86          6           0       28.274710   -1.279039   -1.996858
     87          6           0       27.545095   -1.193315   -3.377070
     88          6           0       27.239231    0.360692   -3.583859
     89          6           0       27.731432    0.932640   -2.240343
     90          6           0       28.030578    1.081821   -4.658048
     91          6           0       26.324602   -2.115100   -3.519768
     92          6           0       26.401718   -2.944297   -4.790665
     93          1           0       25.129364   -3.456619   -5.481143
     94          7           0       28.398755    2.454042    0.218970
     95          6           0       27.756341    2.996484   -0.856488
     96          6           0       27.507243    4.359043   -0.694335
     97          6           0       28.170115    4.734771    0.525814
     98          6           0       28.684127    3.442856    1.098789
     99          6           0       26.739515    5.211497   -1.694229
    100          6           0       28.371342    6.120322    1.117512
    101          8           0       29.126346    6.240921    2.101776
    102          6           0       27.800061    7.327328    0.492917
    103          7           0       29.832221    0.835391    2.436498
    104          6           0       29.843772    2.092770    3.004516
    105          6           0       30.563451    2.173654    4.401841
    106          6           0       30.682001    0.621576    4.717570
    107          6           0       30.382568   -0.011425    3.346377
    108          6           0       31.948760    2.912623    4.575824
    109          6           0       29.902804    0.038956    5.982779
    110          6           0       28.423502   -0.170388    5.794240
    111          7           0       29.740177   -1.375684    0.850108
    112          6           0       30.390242   -2.010513    1.891283
    113          6           0       30.682761   -3.353844    1.598245
    114          6           0       30.058814   -3.522077    0.356716
    115          6           0       29.482920   -2.293773   -0.080668
    116          6           0       31.340856   -4.242689    2.565621
    117          6           0       29.935652   -4.506947   -0.647928
    118          8           0       30.439404   -5.631814   -0.666226
    119          6           0       29.098603   -3.823448   -1.850906
    120          6           0       29.880783   -3.893032   -3.072614
    121          8           0       30.846044   -3.220842   -3.355508
    122          8           0       29.463543   -4.898775   -3.831697
    123          6           0       30.185774   -5.214839   -5.026810
    124          1           0       27.015423    2.831219   -2.865164
    125          1           0       29.587937    4.074897    2.982758
    126          1           0       31.142907   -1.859727    3.939938
    127          1           0       28.360779   -1.480683   -4.039764
    128          1           0       26.202737    0.404700   -3.920156
    129          1           0       28.665638    0.435311   -5.264450
    130          1           0       28.716448    1.796432   -4.203852
    131          1           0       27.366583    1.723648   -5.237859
    132          1           0       25.359421   -1.609224   -3.489424
    133          1           0       26.304077   -2.768991   -2.648243
    134          1           0       26.901738   -3.871768   -4.509254
    135          1           0       26.967363   -2.345019   -5.503867
    136          1           0       26.227477    4.599106   -2.436522
    137          1           0       27.454066    5.779357   -2.290499
    138          1           0       26.112187    5.943171   -1.186470
    139          1           0       28.340475    8.220294    0.809047
    140          1           0       26.783768    7.428870    0.874886
    141          1           0       27.839119    7.246993   -0.593149
    142          1           0       29.895219    2.516382    5.192488
    143          1           0       31.706059    0.410519    5.023032
    144          1           0       32.228934    3.321674    3.605914
    145          1           0       32.731040    2.164472    4.709952
    146          1           0       32.035419    3.675188    5.350371
    147          1           0       29.983925    0.799883    6.758610
    148          1           0       30.357004   -0.853111    6.412390
    149          1           0       28.144349   -1.018236    6.418829
    150          1           0       27.995523   -0.299318    4.800890
    151          1           0       27.938917    0.740362    6.146147
    152          1           0       31.178315   -4.070740    3.629328
    153          1           0       32.391028   -4.462252    2.377004
    154          1           0       30.879152   -5.196260    2.310693
    155          1           0       28.175404   -4.389284   -1.974451
    156          1           0       29.818755   -4.661448   -5.891949
    157          1           0       29.997392   -6.267101   -5.238985
    158          1           0       31.242849   -4.984932   -4.892406
 ---------------------------------------------------------------------

 SCF Done:  E(RwB97XD) =  -4070.58510244     A.U. after   19 cycles

 Excitation energies and oscillator strengths:

 Excited State   1:      Singlet-A      1.6286 eV  761.31 nm  f=0.3454  <S**2>=0.000
     309 -> 315        0.20688
     312 -> 314        0.67850
     309 <- 315        0.12523
 This state for optimization and/or second-order correction.
 Total Energy, E(TD-HF/TD-DFT) =  -4070.52525409
 Copying the excited state density for this state as the 1-particle RhoCI density.

 Excited State   2:      Singlet-A      1.6477 eV  752.48 nm  f=0.4204  <S**2>=0.000
     310 -> 316       -0.17813
     311 -> 313        0.68441
     310 <- 316       -0.11440

 Excited State   3:      Singlet-A      2.1415 eV  578.95 nm  f=0.0705  <S**2>=0.000
     309 -> 314        0.61694
     312 -> 315       -0.33160

 Excited State   4:      Singlet-A      2.1651 eV  572.65 nm  f=0.1557  <S**2>=0.000
     310 -> 313        0.65107
     311 -> 316        0.25707

 Excited State   5:      Singlet-A      3.1857 eV  389.19 nm  f=0.0153  <S**2>=0.000
     308 -> 314        0.65686
     308 -> 317       -0.10730
     312 -> 315        0.20194

 The electronic state is 1-A.
 Alpha  occ. eigenvalues --  -46.96561 -46.94039 -19.30308 -19.30014 -19.23922
 Alpha  occ. eigenvalues --  -19.23806 -19.23653 -19.23538 -19.23299 -19.23101
 Alpha  occ. eigenvalues --  -14.47028 -14.46898 -14.46790 -14.46575 -14.44763
 Alpha  occ. eigenvalues --  -14.44328 -14.44169 -14.43563 -10.42583 -10.42093
 Alpha  occ. eigenvalues --  -10.39016 -10.38848 -10.38529 -10.38277 -10.36240
 Alpha  occ. eigenvalues --  -10.36128 -10.35565 -10.35412 -10.35244 -10.35162
 Alpha  occ. eigenvalues --  -10.35027 -10.35024 -10.34928 -10.34808 -10.34742
 Alpha  occ. eigenvalues --  -10.34731 -10.34143 -10.33981 -10.33927 -10.33417
 Alpha  occ. eigenvalues --  -10.33053 -10.33016 -10.32982 -10.32961 -10.32823
 Alpha  occ. eigenvalues --  -10.32616 -10.32486 -10.32454 -10.32440 -10.32407
 Alpha  occ. eigenvalues --  -10.32398 -10.32307 -10.32237 -10.32231 -10.32210
 Alpha  occ. eigenvalues --  -10.32021 -10.31913 -10.31742 -10.31738 -10.31649
 Alpha  occ. eigenvalues --  -10.31638 -10.31623 -10.31483 -10.31389 -10.31236
 Alpha  occ. eigenvalues --  -10.31158 -10.31004 -10.30878 -10.30721 -10.30693
 Alpha  occ. eigenvalues --  -10.30558 -10.30525 -10.30352 -10.30298 -10.30262
 Alpha  occ. eigenvalues --  -10.30174 -10.30092 -10.30026 -10.29838 -10.29624
 Alpha  occ. eigenvalues --  -10.29515 -10.29426 -10.29330 -10.29000 -10.28769
 Alpha  occ. eigenvalues --  -10.28669  -3.22354  -3.20231  -1.95899  -1.95502
 Alpha  occ. eigenvalues --   -1.95287  -1.93826  -1.93377  -1.93209  -1.20096
 Alpha  occ. eigenvalues --   -1.19248  -1.12440  -1.11085  -1.11054  -1.10728
 Alpha  occ. eigenvalues --   -1.09959  -1.09915  -1.06610  -1.06608  -1.05757
 Alpha  occ. eigenvalues --   -1.05689  -1.05333  -1.04584  -1.04443  -1.03675
 Alpha  occ. eigenvalues --   -0.94048  -0.93935  -0.91280  -0.90846  -0.90692
 Alpha  occ. eigenvalues --   -0.90649  -0.90210  -0.90178  -0.89582  -0.89447
 Alpha  occ. eigenvalues --   -0.89037  -0.88731  -0.88085  -0.87347  -0.86613
 Alpha  occ. eigenvalues --   -0.86522  -0.85932  -0.85753  -0.84835  -0.84794
 Alpha  occ. eigenvalues --   -0.84541  -0.84327  -0.83148  -0.83069  -0.82568
 Alpha  occ. eigenvalues --   -0.82224  -0.80315  -0.79853  -0.79306  -0.79254
 Alpha  occ. eigenvalues --   -0.78834  -0.78351  -0.78224  -0.77884  -0.77216
 Alpha  occ. eigenvalues --   -0.76929  -0.75439  -0.74863  -0.73731  -0.73424
 Alpha  occ. eigenvalues --   -0.71560  -0.70867  -0.70831  -0.70460  -0.70108
 Alpha  occ. eigenvalues --   -0.69748  -0.69090  -0.68703  -0.67505  -0.67341
 Alpha  occ. eigenvalues --   -0.67171  -0.66920  -0.66788  -0.66572  -0.66353
 Alpha  occ. eigenvalues --   -0.66044  -0.64432  -0.64301  -0.62423  -0.62262
 Alpha  occ. eigenvalues --   -0.61988  -0.61269  -0.61019  -0.60995  -0.60652
 Alpha  occ. eigenvalues --   -0.60496  -0.60305  -0.59829  -0.59668  -0.59267
 Alpha  occ. eigenvalues --   -0.58505  -0.58234  -0.58096  -0.57832  -0.57097
 Alpha  occ. eigenvalues --   -0.56984  -0.56889  -0.56589  -0.56491  -0.56296
 Alpha  occ. eigenvalues --   -0.55829  -0.55454  -0.55405  -0.55132  -0.55028
 Alpha  occ. eigenvalues --   -0.54702  -0.54592  -0.54470  -0.54451  -0.54237
 Alpha  occ. eigenvalues --   -0.54018  -0.53979  -0.53695  -0.53673  -0.53469
 Alpha  occ. eigenvalues --   -0.53283  -0.52616  -0.52273  -0.52218  -0.52083
 Alpha  occ. eigenvalues --   -0.51930  -0.51749  -0.51632  -0.51604  -0.51419
 Alpha  occ. eigenvalues --   -0.51401  -0.51179  -0.51159  -0.51077  -0.50938
 Alpha  occ. eigenvalues --   -0.50870  -0.50492  -0.50328  -0.50196  -0.50065
 Alpha  occ. eigenvalues --   -0.49725  -0.49711  -0.49288  -0.49243  -0.48923
 Alpha  occ. eigenvalues --   -0.48850  -0.48811  -0.48547  -0.48454  -0.48311
 Alpha  occ. eigenvalues --   -0.48216  -0.47948  -0.47754  -0.47560  -0.47441
 Alpha  occ. eigenvalues --   -0.47349  -0.47250  -0.47102  -0.47057  -0.47046
 Alpha  occ. eigenvalues --   -0.46861  -0.46812  -0.46517  -0.46296  -0.46278
 Alpha  occ. eigenvalues --   -0.45931  -0.45839  -0.45616  -0.45562  -0.45509
 Alpha  occ. eigenvalues --   -0.45437  -0.45201  -0.45142  -0.44871  -0.44611
 Alpha  occ. eigenvalues --   -0.44487  -0.44353  -0.43982  -0.43923  -0.43523
 Alpha  occ. eigenvalues --   -0.43465  -0.43424  -0.43363  -0.43334  -0.43269
 Alpha  occ. eigenvalues --   -0.43012  -0.42908  -0.42788  -0.42381  -0.42007
 Alpha  occ. eigenvalues --   -0.41976  -0.41737  -0.41111  -0.40861  -0.40556
 Alpha  occ. eigenvalues --   -0.40104  -0.39915  -0.39661  -0.39398  -0.39169
 Alpha  occ. eigenvalues --   -0.39152  -0.38858  -0.38630  -0.38348  -0.38333
 Alpha  occ. eigenvalues --   -0.38114  -0.37697  -0.36229  -0.36205  -0.36098
 Alpha  occ. eigenvalues --   -0.35796  -0.35626  -0.35384  -0.33673  -0.33605
 Alpha  occ. eigenvalues --   -0.32770  -0.32718  -0.32617  -0.32554  -0.32396
 Alpha  occ. eigenvalues --   -0.32222  -0.31945  -0.31132  -0.26212  -0.26046
 Alpha  occ. eigenvalues --   -0.23289  -0.23132
 Alpha virt. eigenvalues --   -0.07465  -0.07133  -0.00675   0.00497   0.02334
 Alpha virt. eigenvalues --    0.02534   0.04129   0.04565   0.04582   0.06214
 Alpha virt. eigenvalues --    0.07167   0.07581   0.07923   0.08246   0.08972

 Mulliken charges:
               1
     1  Mg   0.942075
     2  C   -0.038078
     3  C   -0.073481
     4  C   -0.078408
     5  C   -0.055683
     6  N   -0.320011
     7  C   -0.052848
     8  C   -0.003318
     9  C   -0.147395
    10  C    0.056728
    11  C    0.022586
    12  C   -0.011109
    13  C   -0.138328
    14  H    0.013824
    15  N   -0.462420
    16  C    0.168127
    17  C   -0.174970
    18  C   -0.086737
    19  C    0.201961
    20  C    0.084734
    21  C    0.035880
    22  O   -0.236010
    23  C    0.005305
    24  N   -0.322783
    25  C    0.047377
    26  C   -0.151742
    27  C   -0.062331
    28  C    0.046719
    29  C    0.017244
    30  C   -0.028973
    31  C   -0.050492
    32  N   -0.501267
    33  C    0.150919
    34  C   -0.184823
    35  C   -0.035080
    36  C    0.186903
    37  C    0.087889
    38  C    0.097808
    39  O   -0.231095
    40  C   -0.050405
    41  C    0.238010
    42  O   -0.235945
    43  O   -0.346748
    44  C    0.130793
    45  H    0.013637
    46  H   -0.019944
    47  H    0.003341
    48  H    0.035239
    49  H    0.061580
    50  H    0.033382
    51  H    0.044483
    52  H    0.040392
    53  H    0.041080
    54  H    0.041266
    55  H    0.087289
    56  H    0.047498
    57  H    0.029810
    58  H    0.048577
    59  H    0.062100
    60  H    0.066381
    61  H    0.056725
    62  H    0.054697
    63  H    0.040392
    64  H    0.018082
    65  H    0.043571
    66  H    0.031204
    67  H    0.046348
    68  H    0.037485
    69  H    0.032168
    70  H    0.053214
    71  H    0.028097
    72  H    0.026655
    73  H    0.054282
    74  H    0.056624
    75  H    0.063014
    76  H    0.067926
    77  H    0.072770
    78  H    0.059139
    79  H    0.067095
    80  Mg   0.992362
    81  C   -0.044936
    82  C   -0.105202
    83  C   -0.051581
    84  C   -0.104004
    85  N   -0.349947
    86  C   -0.028209
    87  C   -0.021328
    88  C   -0.162827
    89  C    0.116161
    90  C    0.006219
    91  C    0.037895
    92  C   -0.145913
    93  H    0.028840
    94  N   -0.425535
    95  C    0.160218
    96  C   -0.175190
    97  C   -0.074151
    98  C    0.171386
    99  C    0.066636
   100  C    0.038213
   101  O   -0.260156
   102  C    0.004492
   103  N   -0.396020
   104  C    0.027611
   105  C   -0.070217
   106  C   -0.076051
   107  C    0.086936
   108  C    0.029254
   109  C   -0.031236
   110  C   -0.058217
   111  N   -0.470286
   112  C    0.132115
   113  C   -0.134503
   114  C   -0.037913
   115  C    0.195503
   116  C    0.072439
   117  C    0.096102
   118  O   -0.219401
   119  C   -0.078048
   120  C    0.235403
   121  O   -0.251487
   122  O   -0.328044
   123  C    0.135811
   124  H   -0.002126
   125  H    0.021839
   126  H   -0.004673
   127  H    0.033205
   128  H    0.042979
   129  H    0.043817
   130  H    0.040412
   131  H    0.035199
   132  H    0.039562
   133  H    0.030033
   134  H    0.063202
   135  H    0.056146
   136  H    0.042434
   137  H    0.057026
   138  H    0.056332
   139  H    0.055888
   140  H    0.067047
   141  H    0.045021
   142  H    0.038419
   143  H    0.027410
   144  H    0.039885
   145  H    0.027330
   146  H    0.056784
   147  H    0.029190
   148  H    0.032962
   149  H    0.037794
   150  H    0.047624
   151  H    0.028758
   152  H    0.045974
   153  H    0.055581
   154  H    0.045389
   155  H    0.065550
   156  H    0.042557
   157  H    0.055541
   158  H    0.066714
 Sum of Mulliken charges =  -0.00000

 Dipole moment (field-independent basis, Debye):
    X=             -5.1226    Y=              2.4670    Z=             -1.3441  Tot=              5.8424
 Quadrupole moment (field-independent basis, Debye-Ang):
   XX=           -556.3986   YY=           -543.4592   ZZ=           -492.4736
   XY=             64.5515   XZ=             51.1047   YZ=             11.5581

 Normal termination of Gaussian 16 at Sat Sep 18 15:59:40 2021.
