 Gaussian 16, Revision A.03,
 Gaussian 16:  ES64L-G16RevA.03 25-Dec-2016

 --------------------------------
 #p wB97XD/Def2SVP td=(nstates=5)
 --------------------------------

 --------------------------------
 TDDFT excited states in gaussian
 --------------------------------
 Symbolic Z-matrix:
 Charge =  0 Multiplicity = 1

                         Standard orientation:
 ---------------------------------------------------------------------
 Center     Atomic      Atomic             Coordinates (Angstroms)
 Number     Number       Type             X           Y           Z
 ---------------------------------------------------------------------
      1         12           0      -20.511780   -0.520805    0.188885
      2          6           0      -19.677320    2.510753   -1.418460
      3          6           0      -20.601498    1.106645    3.192469
      4          6           0      -20.611842   -3.471409    1.656540
      5          6           0      -19.910159   -2.171309   -2.893280
      6          7           0      -20.282460    1.612053    0.767894
      7          6           0      -19.970413    2.608183   -0.037415
      8          6           0      -20.248754    3.911920    0.688666
      9          6           0      -20.104721    3.515164    2.208407
     10          6           0      -20.334845    1.962974    2.082200
     11          6           0      -18.728141    4.001661    2.801787
     12          6           0      -21.684183    4.439270    0.433887
     13          6           0      -21.908379    5.991132    0.708415
     14          1           0      -20.784528    6.892882    1.226069
     15          7           0      -20.797386   -1.083380    2.095353
     16          6           0      -20.891555   -0.268361    3.252509
     17          6           0      -21.188194   -1.142423    4.411445
     18          6           0      -21.106267   -2.508660    3.960322
     19          6           0      -20.829869   -2.449767    2.508519
     20          6           0      -21.503541   -0.633602    5.773711
     21          6           0      -21.286450   -3.893829    4.695006
     22          8           0      -21.271540   -4.991342    4.121186
     23          6           0      -21.342593   -3.900565    6.195186
     24          7           0      -20.176092   -2.568615   -0.505704
     25          6           0      -20.327614   -3.601105    0.280528
     26          6           0      -20.190670   -4.941140   -0.386302
     27          6           0      -19.950577   -4.538223   -1.883740
     28          6           0      -20.108136   -2.986719   -1.799081
     29          6           0      -19.154249   -5.823377    0.315836
     30          6           0      -20.941603   -5.139290   -2.872542
     31          6           0      -20.358769   -5.625557   -4.247700
     32          7           0      -19.975955   -0.002996   -1.849111
     33          6           0      -19.813828   -0.798783   -3.000107
     34          6           0      -19.654262    0.055615   -4.126204
     35          6           0      -19.413342    1.352411   -3.570259
     36          6           0      -19.664987    1.273793   -2.223942
     37          6           0      -19.770201   -0.359600   -5.564814
     38          6           0      -19.181358    2.800482   -3.788697
     39          8           0      -18.963029    3.409407   -4.815343
     40          6           0      -19.098502    3.504511   -2.351595
     41          6           0      -19.580409    4.916336   -2.426506
     42          8           0      -20.675090    5.282213   -2.738718
     43          8           0      -18.537738    5.826990   -2.172738
     44          6           0      -18.620780    7.134738   -2.857097
     45          1           0      -20.456972    1.512645    4.196255
     46          1           0      -20.772171   -4.489066    2.016973
     47          1           0      -19.806407   -2.705420   -3.840150
     48          1           0      -19.555890    4.605779    0.212757
     49          1           0      -20.901088    3.949645    2.813600
     50          1           0      -18.141762    4.502962    2.032478
     51          1           0      -18.190693    3.071342    2.985649
     52          1           0      -18.810954    4.698979    3.635542
     53          1           0      -22.303756    3.870246    1.128230
     54          1           0      -21.944099    4.174682   -0.591008
     55          1           0      -22.746258    6.023778    1.406492
     56          1           0      -22.286720    6.385120   -0.235154
     57          1           0      -21.692318    0.430219    5.913186
     58          1           0      -20.695028   -0.816124    6.481037
     59          1           0      -22.422868   -1.157487    6.036591
     60          1           0      -22.342814   -3.755933    6.603247
     61          1           0      -20.653113   -3.080141    6.398002
     62          1           0      -20.898785   -4.845975    6.505964
     63          1           0      -21.190135   -5.355772   -0.255600
     64          1           0      -18.956616   -4.785443   -2.254567
     65          1           0      -18.393149   -5.263339    0.860018
     66          1           0      -18.641144   -6.351406   -0.486941
     67          1           0      -19.605489   -6.529442    1.013289
     68          1           0      -21.732020   -4.429764   -3.116729
     69          1           0      -21.481817   -5.879395   -2.282383
     70          1           0      -19.315197   -5.333825   -4.364570
     71          1           0      -20.953288   -5.097982   -4.993271
     72          1           0      -20.415104   -6.685459   -4.497934
     73          1           0      -19.142546   -1.246864   -5.649344
     74          1           0      -19.416291    0.381668   -6.281546
     75          1           0      -20.793235   -0.669640   -5.780203
     76          1           0      -18.048970    3.663740   -2.106223
     77          1           0      -18.735759    7.903184   -2.092510
     78          1           0      -19.436795    7.173590   -3.579539
     79          1           0      -17.665843    7.247887   -3.370252
     80         12           0       19.733564   -0.731876    0.012884
     81          6           0       21.707674    2.290472    0.289793
     82          6           0       17.686504    0.667630    2.083707
     83          6           0       18.231022   -3.660182   -0.160137
     84          6           0       22.521239   -2.395618   -1.621275
     85          7           0       19.671306    1.353480    0.974757
     86          6           0       20.539380    2.425484    0.985008
     87          6           0       20.018436    3.503693    1.865324
     88          6           0       19.009553    2.766509    2.783115
     89          6           0       18.786948    1.489852    1.938373
     90          6           0       19.561045    2.411440    4.181356
     91          6           0       19.254736    4.558719    1.008228
     92          6           0       19.536268    6.074300    1.344917
     93          1           0       19.208937    7.194969    0.279561
     94          7           0       18.058375   -1.383353    0.872718
     95          6           0       17.270196   -0.648096    1.610864
     96          6           0       16.081226   -1.422415    1.913289
     97          6           0       16.228030   -2.602727    1.147131
     98          6           0       17.559742   -2.585479    0.605375
     99          6           0       14.934766   -0.819957    2.745562
    100          6           0       15.208939   -3.696901    0.991431
    101          8           0       15.461967   -4.665532    0.339438
    102          6           0       13.845848   -3.512016    1.574254
    103          7           0       20.479804   -2.862461   -0.568882
    104          6           0       19.521561   -3.782881   -0.653920
    105          6           0       19.946655   -4.958958   -1.450311
    106          6           0       21.435202   -4.587988   -1.741884
    107          6           0       21.542932   -3.158242   -1.281510
    108          6           0       19.700972   -6.386864   -0.842879
    109          6           0       21.790097   -4.810941   -3.263803
    110          6           0       22.667748   -6.024013   -3.680483
    111          7           0       21.634320   -0.269958   -0.553642
    112          6           0       22.637118   -0.966859   -1.264118
    113          6           0       23.789141   -0.070536   -1.493255
    114          6           0       23.438991    1.150271   -0.932132
    115          6           0       22.193165    1.008198   -0.344908
    116          6           0       25.149579   -0.501535   -2.092866
    117          6           0       23.963326    2.538558   -0.725489
    118          8           0       24.969085    3.113922   -1.068370
    119          6           0       22.919260    3.295967    0.238357
    120          6           0       22.655036    4.615326   -0.205361
    121          8           0       21.708051    4.878198   -0.959788
    122          8           0       23.538266    5.606087    0.212128
    123          6           0       23.200277    7.037456   -0.056962
    124          1           0       16.894875    1.037996    2.737438
    125          1           0       17.706361   -4.611075   -0.273251
    126          1           0       23.363629   -2.877826   -2.119585
    127          1           0       20.815600    3.873379    2.510805
    128          1           0       18.071128    3.281770    2.987041
    129          1           0       18.966530    2.891135    4.959450
    130          1           0       20.587718    2.774571    4.217619
    131          1           0       19.615233    1.342844    4.391255
    132          1           0       18.200428    4.355513    1.196853
    133          1           0       19.476022    4.312400   -0.030063
    134          1           0       20.579716    6.154493    1.648481
    135          1           0       18.905433    6.233393    2.220276
    136          1           0       14.058648   -0.722381    2.103158
    137          1           0       15.152928    0.121987    3.247628
    138          1           0       14.586832   -1.543223    3.482523
    139          1           0       13.315398   -2.667792    1.134571
    140          1           0       13.794918   -3.239620    2.628382
    141          1           0       13.242803   -4.388651    1.336403
    142          1           0       19.402038   -4.929686   -2.394055
    143          1           0       22.083278   -5.143518   -1.063685
    144          1           0       19.124493   -6.233746    0.068849
    145          1           0       20.572132   -7.027056   -0.699427
    146          1           0       19.110718   -6.964127   -1.554746
    147          1           0       22.338827   -3.942060   -3.628201
    148          1           0       20.845296   -4.667703   -3.788132
    149          1           0       22.225543   -6.521256   -4.543639
    150          1           0       22.762444   -6.709770   -2.838366
    151          1           0       23.662165   -5.693215   -3.982558
    152          1           0       24.955649   -1.291603   -2.817778
    153          1           0       25.750049   -0.969965   -1.312706
    154          1           0       25.673788    0.331489   -2.561816
    155          1           0       23.355330    3.334951    1.236135
    156          1           0       22.286840    7.329415    0.463124
    157          1           0       23.293670    7.278549   -1.115174
    158          1           0       23.912040    7.633574    0.513983
 ---------------------------------------------------------------------

 SCF Done:  E(RwB97XD) =  -4070.56771509     A.U. after   19 cycles

 Excitation energies and oscillator strengths:

 Excited State   1:      Singlet-A      1.6948 eV  731.54 nm  f=0.3803  <S**2>=0.000
     310 -> 316        0.16834
     311 -> 313        0.68668
     310 <- 316        0.11048
 This state for optimization and/or second-order correction.
 Total Energy, E(TD-HF/TD-DFT) =  -4070.50543053
 Copying the excited state density for this state as the 1-particle RhoCI density.

 Excited State   2:      Singlet-A      1.7664 eV  701.91 nm  f=0.3726  <S**2>=0.000
     309 -> 315       -0.19125
     312 -> 314        0.67833
     309 <- 315       -0.11017

 Excited State   3:      Singlet-A      2.1196 eV  584.94 nm  f=0.0814  <S**2>=0.000
     309 -> 314        0.63892
     312 -> 315        0.27446

 Excited State   4:      Singlet-A      2.1227 eV  584.09 nm  f=0.2357  <S**2>=0.000
     310 -> 313        0.67097
     311 -> 316       -0.20515

 Excited State   5:      Singlet-A      3.2680 eV  379.39 nm  f=0.0031  <S**2>=0.000
     305 -> 314       -0.16729
     306 -> 314        0.15651
     308 -> 314        0.64102
     308 -> 317        0.10647

 The electronic state is 1-A.
 Alpha  occ. eigenvalues --  -46.95785 -46.94894 -19.29190 -19.28492 -19.25448
 Alpha  occ. eigenvalues --  -19.24626 -19.24472 -19.24317 -19.23452 -19.23347
 Alpha  occ. eigenvalues --  -14.46548 -14.46388 -14.46343 -14.44735 -14.44462
 Alpha  occ. eigenvalues --  -14.44418 -14.44370 -14.42587 -10.42386 -10.42323
 Alpha  occ. eigenvalues --  -10.40884 -10.39933 -10.39127 -10.38784 -10.36364
 Alpha  occ. eigenvalues --  -10.35751 -10.35369 -10.35295 -10.35097 -10.34980
 Alpha  occ. eigenvalues --  -10.34925 -10.34740 -10.34674 -10.34606 -10.34085
 Alpha  occ. eigenvalues --  -10.34076 -10.34028 -10.33832 -10.33687 -10.33586
 Alpha  occ. eigenvalues --  -10.33458 -10.33357 -10.32960 -10.32850 -10.32283
 Alpha  occ. eigenvalues --  -10.32270 -10.32244 -10.32198 -10.32136 -10.32010
 Alpha  occ. eigenvalues --  -10.32005 -10.31976 -10.31975 -10.31900 -10.31834
 Alpha  occ. eigenvalues --  -10.31761 -10.31682 -10.31676 -10.31639 -10.31415
 Alpha  occ. eigenvalues --  -10.31317 -10.31301 -10.31300 -10.30857 -10.30846
 Alpha  occ. eigenvalues --  -10.30771 -10.30562 -10.30395 -10.30277 -10.30170
 Alpha  occ. eigenvalues --  -10.30161 -10.30150 -10.30020 -10.29981 -10.29942
 Alpha  occ. eigenvalues --  -10.29879 -10.29745 -10.29715 -10.29600 -10.29563
 Alpha  occ. eigenvalues --  -10.29549 -10.29430 -10.29398 -10.29348 -10.29083
 Alpha  occ. eigenvalues --  -10.28395  -3.21764  -3.20804  -1.95337  -1.94895
 Alpha  occ. eigenvalues --   -1.94724  -1.94407  -1.93926  -1.93766  -1.17331
 Alpha  occ. eigenvalues --   -1.16321  -1.14429  -1.13045  -1.12804  -1.11724
 Alpha  occ. eigenvalues --   -1.09192  -1.08533  -1.07826  -1.07129  -1.06975
 Alpha  occ. eigenvalues --   -1.06918  -1.06536  -1.03680  -1.03102  -1.02964
 Alpha  occ. eigenvalues --   -0.93755  -0.93191  -0.91180  -0.91148  -0.90874
 Alpha  occ. eigenvalues --   -0.90817  -0.89884  -0.89771  -0.89694  -0.89623
 Alpha  occ. eigenvalues --   -0.89563  -0.89204  -0.87338  -0.87127  -0.86276
 Alpha  occ. eigenvalues --   -0.85932  -0.85603  -0.84946  -0.84868  -0.84079
 Alpha  occ. eigenvalues --   -0.83917  -0.83623  -0.82877  -0.82597  -0.82378
 Alpha  occ. eigenvalues --   -0.81824  -0.80775  -0.80643  -0.79105  -0.79037
 Alpha  occ. eigenvalues --   -0.78605  -0.78306  -0.78131  -0.77386  -0.77315
 Alpha  occ. eigenvalues --   -0.77112  -0.74728  -0.74480  -0.73709  -0.73091
 Alpha  occ. eigenvalues --   -0.71769  -0.71209  -0.70719  -0.70628  -0.69972
 Alpha  occ. eigenvalues --   -0.69282  -0.69254  -0.68661  -0.68056  -0.67971
 Alpha  occ. eigenvalues --   -0.67535  -0.67131  -0.66982  -0.66573  -0.66239
 Alpha  occ. eigenvalues --   -0.65463  -0.63494  -0.63050  -0.63040  -0.62291
 Alpha  occ. eigenvalues --   -0.62072  -0.61110  -0.61060  -0.60597  -0.60039
 Alpha  occ. eigenvalues --   -0.60033  -0.59558  -0.59529  -0.59172  -0.58795
 Alpha  occ. eigenvalues --   -0.58576  -0.58489  -0.57638  -0.57482  -0.57424
 Alpha  occ. eigenvalues --   -0.57038  -0.56173  -0.55919  -0.55834  -0.55699
 Alpha  occ. eigenvalues --   -0.55369  -0.55157  -0.55080  -0.55021  -0.54778
 Alpha  occ. eigenvalues --   -0.54598  -0.54378  -0.54160  -0.53946  -0.53932
 Alpha  occ. eigenvalues --   -0.53776  -0.53692  -0.53297  -0.53223  -0.53185
 Alpha  occ. eigenvalues --   -0.52883  -0.52533  -0.52471  -0.52186  -0.52091
 Alpha  occ. eigenvalues --   -0.52074  -0.51959  -0.51799  -0.51640  -0.51538
 Alpha  occ. eigenvalues --   -0.51201  -0.51173  -0.50858  -0.50759  -0.50662
 Alpha  occ. eigenvalues --   -0.50651  -0.50266  -0.50237  -0.49964  -0.49946
 Alpha  occ. eigenvalues --   -0.49776  -0.49698  -0.49497  -0.49468  -0.49352
 Alpha  occ. eigenvalues --   -0.49249  -0.48954  -0.48575  -0.48460  -0.48377
 Alpha  occ. eigenvalues --   -0.48146  -0.48105  -0.47713  -0.47517  -0.47458
 Alpha  occ. eigenvalues --   -0.47366  -0.47306  -0.46975  -0.46880  -0.46781
 Alpha  occ. eigenvalues --   -0.46733  -0.46524  -0.46431  -0.46183  -0.45941
 Alpha  occ. eigenvalues --   -0.45908  -0.45665  -0.45427  -0.45345  -0.45276
 Alpha  occ. eigenvalues --   -0.45036  -0.44909  -0.44734  -0.44732  -0.44664
 Alpha  occ. eigenvalues --   -0.44555  -0.44232  -0.44161  -0.43958  -0.43777
 Alpha  occ. eigenvalues --   -0.43635  -0.43480  -0.43285  -0.43205  -0.43082
 Alpha  occ. eigenvalues --   -0.42923  -0.42913  -0.42553  -0.42271  -0.42093
 Alpha  occ. eigenvalues --   -0.42043  -0.41912  -0.41788  -0.41763  -0.40991
 Alpha  occ. eigenvalues --   -0.40712  -0.40258  -0.39736  -0.39620  -0.39568
 Alpha  occ. eigenvalues --   -0.39100  -0.38471  -0.38398  -0.38171  -0.37718
 Alpha  occ. eigenvalues --   -0.37695  -0.37370  -0.36238  -0.35804  -0.35559
 Alpha  occ. eigenvalues --   -0.35232  -0.35040  -0.34762  -0.33977  -0.33943
 Alpha  occ. eigenvalues --   -0.33623  -0.33432  -0.33282  -0.32765  -0.32532
 Alpha  occ. eigenvalues --   -0.32050  -0.31796  -0.30411  -0.25687  -0.25467
 Alpha  occ. eigenvalues --   -0.23467  -0.23176
 Alpha virt. eigenvalues --   -0.07426  -0.06838  -0.00117   0.01572   0.01865
 Alpha virt. eigenvalues --    0.03039   0.04710   0.04862   0.05485   0.06016
 Alpha virt. eigenvalues --    0.06733   0.06967   0.07725   0.08088   0.08917

 Mulliken charges:
               1
     1  Mg   0.949430
     2  C    0.046004
     3  C   -0.095153
     4  C   -0.065617
     5  C   -0.086053
     6  N   -0.314116
     7  C    0.001014
     8  C   -0.120527
     9  C   -0.103107
    10  C    0.089434
    11  C    0.035004
    12  C   -0.006437
    13  C   -0.094853
    14  H    0.041405
    15  N   -0.554567
    16  C    0.176042
    17  C   -0.151006
    18  C   -0.082832
    19  C    0.208087
    20  C    0.035125
    21  C    0.082084
    22  O   -0.237315
    23  C   -0.013306
    24  N   -0.304566
    25  C   -0.029714
    26  C   -0.047660
    27  C   -0.103716
    28  C    0.058341
    29  C    0.030162
    30  C   -0.003913
    31  C   -0.057119
    32  N   -0.438092
    33  C    0.134171
    34  C   -0.193298
    35  C   -0.035293
    36  C    0.077191
    37  C    0.080553
    38  C    0.135379
    39  O   -0.202621
    40  C   -0.093517
    41  C    0.221151
    42  O   -0.208214
    43  O   -0.410350
    44  C    0.136735
    45  H    0.001446
    46  H    0.012937
    47  H   -0.022006
    48  H    0.031946
    49  H    0.036200
    50  H    0.038403
    51  H    0.032920
    52  H    0.048355
    53  H    0.023428
    54  H    0.054540
    55  H    0.041811
    56  H    0.065428
    57  H    0.043003
    58  H    0.065223
    59  H    0.060773
    60  H    0.080049
    61  H    0.041632
    62  H    0.065172
    63  H    0.042260
    64  H    0.040178
    65  H    0.046632
    66  H    0.033116
    67  H    0.056299
    68  H    0.030839
    69  H    0.022387
    70  H    0.035954
    71  H    0.038543
    72  H    0.045699
    73  H    0.035939
    74  H    0.058426
    75  H    0.050965
    76  H    0.080225
    77  H    0.051941
    78  H    0.069295
    79  H    0.055695
    80  Mg   0.973766
    81  C   -0.021085
    82  C   -0.054191
    83  C   -0.053492
    84  C   -0.109830
    85  N   -0.301793
    86  C   -0.007043
    87  C   -0.073460
    88  C   -0.132646
    89  C    0.070176
    90  C    0.036903
    91  C    0.034162
    92  C   -0.096401
    93  H    0.049921
    94  N   -0.460669
    95  C    0.091536
    96  C   -0.147493
    97  C   -0.078573
    98  C    0.134353
    99  C    0.063345
   100  C    0.051956
   101  O   -0.201382
   102  C   -0.020813
   103  N   -0.271030
   104  C    0.014463
   105  C   -0.095346
   106  C   -0.044726
   107  C    0.057976
   108  C    0.023238
   109  C   -0.029534
   110  C   -0.028138
   111  N   -0.485373
   112  C    0.125829
   113  C   -0.223611
   114  C   -0.055427
   115  C    0.152288
   116  C    0.077595
   117  C    0.163227
   118  O   -0.174794
   119  C   -0.083120
   120  C    0.267200
   121  O   -0.273044
   122  O   -0.390017
   123  C    0.157547
   124  H   -0.025716
   125  H    0.021052
   126  H   -0.000245
   127  H    0.020588
   128  H    0.035023
   129  H    0.041918
   130  H    0.027853
   131  H    0.045261
   132  H    0.025033
   133  H    0.073844
   134  H    0.043892
   135  H    0.037070
   136  H    0.048523
   137  H    0.053677
   138  H    0.041991
   139  H    0.049904
   140  H    0.042961
   141  H    0.056142
   142  H    0.045890
   143  H    0.031640
   144  H    0.049294
   145  H    0.037536
   146  H    0.032028
   147  H    0.020913
   148  H    0.014745
   149  H    0.040154
   150  H    0.034891
   151  H    0.038243
   152  H    0.028659
   153  H    0.052699
   154  H    0.061929
   155  H    0.080201
   156  H    0.043703
   157  H    0.073813
   158  H    0.042434
 Sum of Mulliken charges =  -0.00000

 Dipole moment (field-independent basis, Debye):
    X=             -4.3270    Y=             -3.0250    Z=              9.0663  Tot=             10.4915
 Quadrupole moment (field-independent basis, Debye-Ang):
   XX=           -644.2773   YY=           -497.1217   ZZ=           -486.4069
   XY=             19.0334   XZ=            -52.3691   YZ=             47.7968

 Normal termination of Gaussian 16 at Sun Sep 19 00:21:03 2021.
