 Gaussian 16, Revision A.03,
 Gaussian 16:  ES64L-G16RevA.03 25-Dec-2016

 --------------------------------
 #p wB97XD/Def2SVP td=(nstates=5)
 --------------------------------

 --------------------------------
 TDDFT excited states in gaussian
 --------------------------------
 Symbolic Z-matrix:
 Charge =  0 Multiplicity = 1

                         Standard orientation:
 ---------------------------------------------------------------------
 Center     Atomic      Atomic             Coordinates (Angstroms)
 Number     Number       Type             X           Y           Z
 ---------------------------------------------------------------------
      1         12           0       -4.722145   -0.305866    0.846891
      2          6           0       -4.828180    3.061955    0.201662
      3          6           0       -1.891236    0.204968    2.713019
      4          6           0       -4.533855   -3.721650    1.417081
      5          6           0       -7.312104   -0.821075   -1.399670
      6          7           0       -3.427951    1.448295    1.378821
      7          6           0       -3.767773    2.728639    1.046159
      8          6           0       -2.829085    3.681029    1.611483
      9          6           0       -1.736923    2.841381    2.255062
     10          6           0       -2.336099    1.375442    2.100857
     11          6           0       -0.274865    2.951335    1.699873
     12          6           0       -3.532838    4.670952    2.601087
     13          6           0       -2.962256    6.129285    2.676383
     14          1           0       -1.465527    6.317171    2.359938
     15          7           0       -3.436973   -1.546098    2.025504
     16          6           0       -2.330210   -1.107371    2.731913
     17          6           0       -1.695510   -2.266027    3.392332
     18          6           0       -2.474929   -3.445390    3.021653
     19          6           0       -3.546115   -2.942200    2.144222
     20          6           0       -0.441923   -2.193475    4.248823
     21          6           0       -2.310550   -4.857037    3.534526
     22          8           0       -3.118914   -5.729290    3.170980
     23          6           0       -1.218832   -5.309241    4.430473
     24          7           0       -5.714644   -2.047696    0.062360
     25          6           0       -5.485677   -3.288282    0.502443
     26          6           0       -6.510160   -4.273114   -0.085149
     27          6           0       -7.607468   -3.327235   -0.821326
     28          6           0       -6.866678   -1.955821   -0.639056
     29          6           0       -5.823024   -5.322084   -1.012767
     30          6           0       -9.010532   -3.288231   -0.155969
     31          6           0      -10.147531   -3.934810   -0.961298
     32          7           0       -5.835072    0.843537   -0.435505
     33          6           0       -6.862576    0.502911   -1.318250
     34          6           0       -7.370998    1.713966   -1.999862
     35          6           0       -6.560054    2.715627   -1.416023
     36          6           0       -5.648636    2.139985   -0.490823
     37          6           0       -8.457146    1.825029   -2.952466
     38          6           0       -6.371255    4.179010   -1.338480
     39          8           0       -6.962313    5.089466   -1.855648
     40          6           0       -5.209496    4.443123   -0.315623
     41          6           0       -4.188044    5.271537   -0.976030
     42          8           0       -3.463337    4.786458   -1.859787
     43          8           0       -4.028608    6.515589   -0.446804
     44          6           0       -2.906521    7.331642   -0.899724
     45          1           0       -0.992477    0.401828    3.301191
     46          1           0       -4.435511   -4.797290    1.579152
     47          1           0       -8.205438   -1.015814   -1.996565
     48          1           0       -2.400624    4.255272    0.789319
     49          1           0       -1.734379    2.957288    3.339505
     50          1           0       -0.016769    3.632432    0.888300
     51          1           0        0.038813    1.955490    1.387786
     52          1           0        0.467171    3.163427    2.470009
     53          1           0       -3.591777    4.218058    3.590864
     54          1           0       -4.603137    4.669231    2.395647
     55          1           0       -3.147563    6.551504    3.664458
     56          1           0       -3.391521    6.792091    1.925619
     57          1           0       -0.112724   -1.174075    4.447228
     58          1           0        0.401092   -2.674457    3.751957
     59          1           0       -0.661402   -2.531936    5.261272
     60          1           0       -1.438613   -6.346726    4.680497
     61          1           0       -1.126632   -4.714329    5.340084
     62          1           0       -0.258674   -5.157268    3.937124
     63          1           0       -7.042618   -4.713057    0.758182
     64          1           0       -7.692707   -3.538289   -1.887238
     65          1           0       -6.109088   -6.350591   -0.792271
     66          1           0       -4.738031   -5.272882   -0.916774
     67          1           0       -6.093427   -4.999261   -2.018417
     68          1           0       -9.350538   -2.279003    0.073289
     69          1           0       -9.011460   -3.777124    0.818487
     70          1           0       -9.739637   -4.719824   -1.598173
     71          1           0      -10.583609   -3.167635   -1.600350
     72          1           0      -10.906105   -4.235963   -0.239994
     73          1           0       -8.844567    2.840274   -3.034886
     74          1           0       -9.295773    1.165866   -2.729032
     75          1           0       -8.035106    1.692700   -3.948802
     76          1           0       -5.748612    4.965671    0.475295
     77          1           0       -2.967393    7.637739   -1.944447
     78          1           0       -1.955702    6.854560   -0.662350
     79          1           0       -2.904216    8.277018   -0.357400
     80         12           0        4.107291   -0.872449   -0.940652
     81          6           0        6.997506    0.831299   -0.329466
     82          6           0        2.389470    2.219829   -0.969397
     83          6           0        1.214784   -2.518872   -1.309336
     84          6           0        5.891084   -3.807854   -0.956560
     85          7           0        4.554853    1.229792   -0.375100
     86          6           0        5.871675    1.696017   -0.271776
     87          6           0        5.929555    3.239314   -0.090561
     88          6           0        4.418441    3.557613   -0.243577
     89          6           0        3.701429    2.241837   -0.486386
     90          6           0        3.636235    4.418427    0.837706
     91          6           0        6.834471    4.048633   -1.120454
     92          6           0        6.782661    5.578219   -0.861290
     93          1           0        8.076249    6.133734   -0.263897
     94          7           0        2.043094   -0.206892   -1.167163
     95          6           0        1.631896    1.091072   -1.381486
     96          6           0        0.180413    1.029654   -1.507295
     97          6           0       -0.150080   -0.360832   -1.597116
     98          6           0        1.045745   -1.112991   -1.381431
     99          6           0       -0.627716    2.265498   -1.608459
    100          6           0       -1.622535   -0.883667   -1.735332
    101          8           0       -1.946190   -2.081376   -1.602397
    102          6           0       -2.747709    0.090718   -1.967812
    103          7           0        3.642853   -2.767370   -1.071666
    104          6           0        2.320275   -3.272357   -1.218491
    105          6           0        2.283799   -4.767005   -0.993578
    106          6           0        3.722703   -5.122491   -1.362868
    107          6           0        4.495356   -3.824333   -1.177100
    108          6           0        1.918094   -5.155438    0.478370
    109          6           0        3.871692   -5.558038   -2.837787
    110          6           0        3.622835   -7.000537   -3.188146
    111          7           0        6.052139   -1.497413   -0.662247
    112          6           0        6.672056   -2.674921   -0.841902
    113          6           0        8.072277   -2.519823   -0.578905
    114          6           0        8.270691   -1.168365   -0.391776
    115          6           0        7.006093   -0.568246   -0.494699
    116          6           0        9.030206   -3.658050   -0.640129
    117          6           0        9.259848   -0.207657   -0.146510
    118          8           0       10.466665   -0.300062   -0.030614
    119          6           0        8.458630    1.176865   -0.094641
    120          6           0        8.735313    1.815338    1.220283
    121          8           0        8.383576    1.427772    2.307874
    122          8           0        9.324539    3.004836    1.066054
    123          6           0        9.611552    3.781669    2.333104
    124          1           0        1.960441    3.212622   -1.119269
    125          1           0        0.280302   -3.069183   -1.435953
    126          1           0        6.541357   -4.676928   -1.073189
    127          1           0        6.253476    3.454580    0.927741
    128          1           0        4.255852    4.104003   -1.173103
    129          1           0        2.873106    5.096742    0.455172
    130          1           0        4.343623    4.858877    1.540573
    131          1           0        3.045314    3.681808    1.381881
    132          1           0        6.456719    3.728377   -2.090678
    133          1           0        7.859373    3.689680   -1.027382
    134          1           0        5.887549    5.828608   -0.291918
    135          1           0        6.686306    6.052353   -1.837585
    136          1           0       -1.215668    2.355918   -0.694893
    137          1           0       -1.154039    2.197568   -2.560559
    138          1           0        0.014157    3.139809   -1.717487
    139          1           0       -3.685005   -0.450050   -2.098790
    140          1           0       -2.527349    0.512098   -2.949579
    141          1           0       -2.868508    0.891620   -1.238855
    142          1           0        1.552982   -5.246007   -1.645752
    143          1           0        4.157391   -5.889629   -0.722379
    144          1           0        2.753048   -4.968681    1.152582
    145          1           0        1.612635   -6.200878    0.528939
    146          1           0        1.062314   -4.532098    0.735227
    147          1           0        4.835470   -5.284640   -3.265427
    148          1           0        3.218224   -4.949492   -3.463045
    149          1           0        2.806034   -7.008058   -3.909302
    150          1           0        3.191721   -7.403272   -2.271474
    151          1           0        4.511212   -7.553002   -3.494632
    152          1           0        9.525918   -3.684138   -1.609757
    153          1           0        8.685380   -4.644095   -0.327307
    154          1           0        9.811836   -3.406187    0.076824
    155          1           0        8.824345    1.812788   -0.901167
    156          1           0        8.683177    3.811737    2.903893
    157          1           0        9.894889    4.818005    2.147325
    158          1           0       10.393244    3.251076    2.877176
 ---------------------------------------------------------------------

 SCF Done:  E(RwB97XD) =  -4070.69480441     A.U. after   20 cycles

 Excitation energies and oscillator strengths:

 Excited State   1:      Singlet-A      1.5829 eV  783.28 nm  f=0.4544  <S**2>=0.000
     309 -> 316       -0.13372
     311 -> 313        0.68733
 This state for optimization and/or second-order correction.
 Total Energy, E(TD-HF/TD-DFT) =  -4070.63663426
 Copying the excited state density for this state as the 1-particle RhoCI density.

 Excited State   2:      Singlet-A      1.6627 eV  745.68 nm  f=0.3459  <S**2>=0.000
     310 -> 315       -0.15871
     310 -> 316       -0.10940
     312 -> 314        0.67990

 Excited State   3:      Singlet-A      2.1808 eV  568.53 nm  f=0.0173  <S**2>=0.000
     309 -> 313       -0.24993
     310 -> 314        0.57919
     312 -> 315        0.23036
     312 -> 316        0.16541

 Excited State   4:      Singlet-A      2.1990 eV  563.83 nm  f=0.1395  <S**2>=0.000
     309 -> 313        0.58414
     310 -> 314        0.23979
     311 -> 315       -0.15003
     311 -> 316        0.22471
     312 -> 315        0.11368

 Excited State   5:      Singlet-A      2.4937 eV  497.19 nm  f=0.0000  <S**2>=0.000
     312 -> 313        0.69925

 The electronic state is 1-A.
 Alpha  occ. eigenvalues --  -46.95004 -46.93869 -19.31570 -19.30234 -19.24706
 Alpha  occ. eigenvalues --  -19.24481 -19.24101 -19.23783 -19.23418 -19.23263
 Alpha  occ. eigenvalues --  -14.47385 -14.46367 -14.46319 -14.46133 -14.43864
 Alpha  occ. eigenvalues --  -14.43702 -14.43481 -14.43418 -10.43806 -10.42455
 Alpha  occ. eigenvalues --  -10.39000 -10.38923 -10.38909 -10.38789 -10.36492
 Alpha  occ. eigenvalues --  -10.36169 -10.36124 -10.35371 -10.34712 -10.34679
 Alpha  occ. eigenvalues --  -10.34606 -10.34524 -10.34445 -10.34070 -10.33963
 Alpha  occ. eigenvalues --  -10.33911 -10.33776 -10.33544 -10.33543 -10.33532
 Alpha  occ. eigenvalues --  -10.33255 -10.33240 -10.32987 -10.32981 -10.32753
 Alpha  occ. eigenvalues --  -10.32669 -10.32593 -10.32494 -10.32387 -10.32208
 Alpha  occ. eigenvalues --  -10.32195 -10.32175 -10.31942 -10.31921 -10.31735
 Alpha  occ. eigenvalues --  -10.31713 -10.31601 -10.31572 -10.31518 -10.31482
 Alpha  occ. eigenvalues --  -10.31464 -10.31410 -10.31181 -10.31148 -10.31109
 Alpha  occ. eigenvalues --  -10.30876 -10.30672 -10.30579 -10.30412 -10.30356
 Alpha  occ. eigenvalues --  -10.30081 -10.30077 -10.29877 -10.29870 -10.29840
 Alpha  occ. eigenvalues --  -10.29824 -10.29778 -10.29745 -10.29497 -10.29485
 Alpha  occ. eigenvalues --  -10.29232 -10.29089 -10.29067 -10.29009 -10.28935
 Alpha  occ. eigenvalues --  -10.28881  -3.20879  -3.20056  -1.94486  -1.93987
 Alpha  occ. eigenvalues --   -1.93856  -1.93656  -1.93200  -1.93029  -1.19183
 Alpha  occ. eigenvalues --   -1.18999  -1.13225  -1.12730  -1.10987  -1.10272
 Alpha  occ. eigenvalues --   -1.09721  -1.09438  -1.07498  -1.07189  -1.05978
 Alpha  occ. eigenvalues --   -1.05912  -1.05189  -1.05100  -1.03958  -1.02791
 Alpha  occ. eigenvalues --   -0.95362  -0.94503  -0.91160  -0.90949  -0.90714
 Alpha  occ. eigenvalues --   -0.90588  -0.90007  -0.89872  -0.89431  -0.89080
 Alpha  occ. eigenvalues --   -0.88982  -0.88580  -0.88212  -0.88037  -0.86305
 Alpha  occ. eigenvalues --   -0.85943  -0.85873  -0.85368  -0.84463  -0.84228
 Alpha  occ. eigenvalues --   -0.83697  -0.83386  -0.83185  -0.83165  -0.82454
 Alpha  occ. eigenvalues --   -0.82347  -0.80288  -0.80236  -0.79576  -0.79505
 Alpha  occ. eigenvalues --   -0.79233  -0.79038  -0.78207  -0.78126  -0.77119
 Alpha  occ. eigenvalues --   -0.76669  -0.75189  -0.74493  -0.73835  -0.73402
 Alpha  occ. eigenvalues --   -0.71451  -0.71271  -0.70978  -0.70235  -0.70097
 Alpha  occ. eigenvalues --   -0.70009  -0.68836  -0.67976  -0.67850  -0.67797
 Alpha  occ. eigenvalues --   -0.67136  -0.67027  -0.66879  -0.66652  -0.66274
 Alpha  occ. eigenvalues --   -0.66138  -0.64820  -0.64156  -0.62187  -0.62027
 Alpha  occ. eigenvalues --   -0.61843  -0.61423  -0.61242  -0.61097  -0.60906
 Alpha  occ. eigenvalues --   -0.60800  -0.60298  -0.60163  -0.59946  -0.59159
 Alpha  occ. eigenvalues --   -0.58477  -0.58065  -0.58051  -0.57971  -0.57292
 Alpha  occ. eigenvalues --   -0.56916  -0.56893  -0.56737  -0.56380  -0.56190
 Alpha  occ. eigenvalues --   -0.55410  -0.55346  -0.55334  -0.54810  -0.54688
 Alpha  occ. eigenvalues --   -0.54666  -0.54355  -0.54227  -0.54143  -0.54024
 Alpha  occ. eigenvalues --   -0.53712  -0.53655  -0.53422  -0.53345  -0.53281
 Alpha  occ. eigenvalues --   -0.53241  -0.53121  -0.52304  -0.52142  -0.52049
 Alpha  occ. eigenvalues --   -0.51896  -0.51877  -0.51730  -0.51723  -0.51567
 Alpha  occ. eigenvalues --   -0.51429  -0.51241  -0.50923  -0.50809  -0.50727
 Alpha  occ. eigenvalues --   -0.50488  -0.50288  -0.50078  -0.50055  -0.49978
 Alpha  occ. eigenvalues --   -0.49706  -0.49577  -0.49320  -0.49213  -0.49127
 Alpha  occ. eigenvalues --   -0.49007  -0.48887  -0.48812  -0.48597  -0.48442
 Alpha  occ. eigenvalues --   -0.48291  -0.47970  -0.47904  -0.47794  -0.47737
 Alpha  occ. eigenvalues --   -0.47617  -0.47506  -0.47387  -0.47235  -0.47139
 Alpha  occ. eigenvalues --   -0.46768  -0.46655  -0.46442  -0.46204  -0.46123
 Alpha  occ. eigenvalues --   -0.45720  -0.45678  -0.45603  -0.45502  -0.45490
 Alpha  occ. eigenvalues --   -0.45292  -0.45193  -0.44981  -0.44873  -0.44777
 Alpha  occ. eigenvalues --   -0.44522  -0.44292  -0.43999  -0.43841  -0.43663
 Alpha  occ. eigenvalues --   -0.43602  -0.43494  -0.43199  -0.43160  -0.43020
 Alpha  occ. eigenvalues --   -0.42829  -0.42633  -0.42574  -0.42508  -0.42305
 Alpha  occ. eigenvalues --   -0.42064  -0.41991  -0.41812  -0.41705  -0.41177
 Alpha  occ. eigenvalues --   -0.40343  -0.40108  -0.39889  -0.39562  -0.39400
 Alpha  occ. eigenvalues --   -0.39157  -0.39088  -0.38982  -0.38741  -0.38680
 Alpha  occ. eigenvalues --   -0.38552  -0.37856  -0.36294  -0.36233  -0.36027
 Alpha  occ. eigenvalues --   -0.35853  -0.35477  -0.35265  -0.33679  -0.33290
 Alpha  occ. eigenvalues --   -0.33181  -0.32781  -0.32769  -0.32707  -0.32292
 Alpha  occ. eigenvalues --   -0.32057  -0.31503  -0.31081  -0.26555  -0.25644
 Alpha  occ. eigenvalues --   -0.22904  -0.22490
 Alpha virt. eigenvalues --   -0.07403  -0.06524   0.00304   0.00354   0.02482
 Alpha virt. eigenvalues --    0.02627   0.04531   0.04751   0.06103   0.06343
 Alpha virt. eigenvalues --    0.06369   0.07191   0.07604   0.07880   0.08295

 Mulliken charges:
               1
     1  Mg   0.892727
     2  C   -0.022037
     3  C   -0.076250
     4  C   -0.042668
     5  C   -0.079308
     6  N   -0.313767
     7  C   -0.032313
     8  C   -0.056484
     9  C   -0.039355
    10  C   -0.020064
    11  C    0.005748
    12  C    0.029552
    13  C   -0.114147
    14  H    0.012420
    15  N   -0.460655
    16  C    0.200185
    17  C   -0.166530
    18  C   -0.061877
    19  C    0.131295
    20  C    0.061877
    21  C    0.038342
    22  O   -0.262668
    23  C    0.012726
    24  N   -0.330782
    25  C    0.075440
    26  C   -0.095893
    27  C   -0.099093
    28  C    0.043760
    29  C    0.030881
    30  C   -0.014994
    31  C   -0.053674
    32  N   -0.440788
    33  C    0.122945
    34  C   -0.163385
    35  C   -0.056914
    36  C    0.130324
    37  C    0.077097
    38  C    0.094839
    39  O   -0.184922
    40  C   -0.043316
    41  C    0.282868
    42  O   -0.280227
    43  O   -0.351474
    44  C    0.141570
    45  H   -0.024056
    46  H    0.026966
    47  H   -0.003154
    48  H    0.040446
    49  H    0.034612
    50  H    0.033033
    51  H    0.047679
    52  H    0.032453
    53  H    0.019910
    54  H    0.025568
    55  H    0.056022
    56  H    0.066474
    57  H    0.026156
    58  H    0.066476
    59  H    0.050681
    60  H    0.062867
    61  H    0.041798
    62  H    0.053352
    63  H    0.039198
    64  H    0.038067
    65  H    0.045384
    66  H    0.054247
    67  H    0.029982
    68  H    0.031443
    69  H    0.025338
    70  H    0.040712
    71  H    0.031521
    72  H    0.040889
    73  H    0.048731
    74  H    0.047688
    75  H    0.055649
    76  H    0.067090
    77  H    0.067285
    78  H    0.048963
    79  H    0.051400
    80  Mg   0.966902
    81  C   -0.005937
    82  C   -0.074012
    83  C   -0.077015
    84  C   -0.100758
    85  N   -0.341016
    86  C   -0.010262
    87  C   -0.022349
    88  C   -0.153103
    89  C    0.062341
    90  C    0.012902
    91  C   -0.005945
    92  C   -0.111485
    93  H    0.047771
    94  N   -0.436425
    95  C    0.165289
    96  C   -0.231791
    97  C   -0.069780
    98  C    0.134851
    99  C    0.100294
   100  C    0.076345
   101  O   -0.254537
   102  C   -0.048465
   103  N   -0.468745
   104  C    0.096632
   105  C   -0.068143
   106  C   -0.080522
   107  C    0.139369
   108  C    0.036134
   109  C   -0.043635
   110  C   -0.004030
   111  N   -0.427999
   112  C    0.106424
   113  C   -0.180173
   114  C    0.017715
   115  C    0.135986
   116  C    0.065000
   117  C    0.098254
   118  O   -0.192274
   119  C   -0.123560
   120  C    0.249309
   121  O   -0.248171
   122  O   -0.362675
   123  C    0.139501
   124  H   -0.004616
   125  H    0.022489
   126  H   -0.002043
   127  H    0.043273
   128  H    0.036071
   129  H    0.041771
   130  H    0.043000
   131  H    0.035794
   132  H    0.036216
   133  H    0.054818
   134  H    0.050014
   135  H    0.053485
   136  H    0.060161
   137  H    0.061170
   138  H    0.025334
   139  H    0.091953
   140  H    0.056744
   141  H    0.100340
   142  H    0.029680
   143  H    0.022430
   144  H    0.038647
   145  H    0.044522
   146  H    0.042229
   147  H    0.022578
   148  H    0.021058
   149  H    0.035689
   150  H    0.017834
   151  H    0.051192
   152  H    0.062217
   153  H    0.044349
   154  H    0.050855
   155  H    0.073933
   156  H    0.057116
   157  H    0.060004
   158  H    0.069590
 Sum of Mulliken charges =  -0.00000

 Dipole moment (field-independent basis, Debye):
    X=             -0.0951    Y=              2.2873    Z=              1.3427  Tot=              2.6540
 Quadrupole moment (field-independent basis, Debye-Ang):
   XX=           -548.4681   YY=           -481.1130   ZZ=           -500.0430
   XY=             21.7982   XZ=            -12.3683   YZ=             23.2418

 Normal termination of Gaussian 16 at Mon Sep 20 00:34:49 2021.
