 Gaussian 16, Revision A.03,
 Gaussian 16:  ES64L-G16RevA.03 25-Dec-2016

 --------------------------------
 #p wB97XD/Def2SVP td=(nstates=5)
 --------------------------------

 --------------------------------
 TDDFT excited states in gaussian
 --------------------------------
 Symbolic Z-matrix:
 Charge =  0 Multiplicity = 1

                         Standard orientation:
 ---------------------------------------------------------------------
 Center     Atomic      Atomic             Coordinates (Angstroms)
 Number     Number       Type             X           Y           Z
 ---------------------------------------------------------------------
      1         12           0        9.174858    0.457747    0.072957
      2          6           0        7.068335   -2.310372    1.229450
      3          6           0       10.647219   -1.854028   -2.109651
      4          6           0       11.321105    2.766492   -0.758251
      5          6           0        7.468296    2.580485    2.157078
      6          7           0        9.037269   -1.829223   -0.234359
      7          6           0        8.020637   -2.756380    0.247035
      8          6           0        8.179694   -4.192426   -0.296737
      9          6           0        9.512284   -3.976774   -1.223128
     10          6           0        9.798940   -2.462467   -1.206833
     11          6           0       10.701356   -4.811036   -0.787899
     12          6           0        6.874885   -4.656430   -1.012068
     13          6           0        7.001837   -5.903672   -1.834111
     14          1           0        5.929988   -6.967864   -1.754713
     15          7           0       10.812580    0.481615   -1.249382
     16          6           0       11.264073   -0.558777   -2.069336
     17          6           0       12.388786   -0.094336   -2.879275
     18          6           0       12.611551    1.292934   -2.501397
     19          6           0       11.569654    1.607672   -1.455217
     20          6           0       13.107787   -0.940219   -3.993280
     21          6           0       13.639878    2.276449   -2.930619
     22          8           0       13.699260    3.439260   -2.553666
     23          6           0       14.618307    1.914010   -3.969697
     24          7           0        9.311296    2.363929    0.532173
     25          6           0       10.354828    3.113021    0.171337
     26          6           0       10.275267    4.554935    0.725299
     27          6           0        8.856656    4.583475    1.255176
     28          6           0        8.514438    3.049618    1.395870
     29          6           0       11.319110    4.846698    1.797118
     30          6           0        7.735463    5.306735    0.555001
     31          6           0        7.404515    4.762035   -0.818061
     32          7           0        7.669586    0.218562    1.492359
     33          6           0        7.004971    1.235786    2.200875
     34          6           0        5.970807    0.640536    3.010838
     35          6           0        5.966698   -0.705641    2.563232
     36          6           0        7.017761   -0.931781    1.654184
     37          6           0        4.992229    1.315796    3.926783
     38          6           0        5.188128   -1.971094    2.735188
     39          8           0        4.124178   -2.200433    3.349154
     40          6           0        5.917023   -3.020767    1.899230
     41          6           0        6.302562   -4.213622    2.776595
     42          8           0        7.094719   -4.281751    3.762356
     43          8           0        5.732224   -5.317667    2.215203
     44          6           0        6.051468   -6.607820    2.867465
     45          1           0       10.958964   -2.515339   -2.919582
     46          1           0       12.066512    3.534892   -0.973394
     47          1           0        6.899666    3.191048    2.861746
     48          1           0        8.280054   -4.819842    0.588865
     49          1           0        9.248485   -4.158906   -2.264944
     50          1           0       11.001663   -5.445959   -1.621932
     51          1           0       10.351338   -5.437150    0.032046
     52          1           0       11.502785   -4.305006   -0.250053
     53          1           0        6.504389   -3.776570   -1.539213
     54          1           0        6.113902   -4.842778   -0.254156
     55          1           0        7.875172   -6.529612   -1.652296
     56          1           0        6.962191   -5.640090   -2.890627
     57          1           0       12.924639   -0.390384   -4.916902
     58          1           0       12.705758   -1.947504   -4.101072
     59          1           0       14.163786   -0.959188   -3.723525
     60          1           0       15.045946    0.918962   -3.845070
     61          1           0       15.399598    2.664537   -3.854982
     62          1           0       14.016680    1.839534   -4.875056
     63          1           0       10.449447    5.227572   -0.114612
     64          1           0        8.796476    5.048010    2.239797
     65          1           0       11.704784    5.852926    1.637335
     66          1           0       12.150376    4.144739    1.740403
     67          1           0       10.844522    4.913054    2.776791
     68          1           0        7.973614    6.370756    0.554727
     69          1           0        6.787657    5.147699    1.069003
     70          1           0        7.291111    5.555452   -1.555885
     71          1           0        6.447889    4.239785   -0.844931
     72          1           0        8.157111    4.088264   -1.227806
     73          1           0        3.978712    1.011338    3.666801
     74          1           0        4.957518    2.402640    4.001656
     75          1           0        5.211881    0.964827    4.935302
     76          1           0        5.212592   -3.419659    1.168766
     77          1           0        6.826236   -7.124409    2.301301
     78          1           0        5.053651   -7.046500    2.861025
     79          1           0        6.298489   -6.491249    3.923467
     80         12           0       -8.413070    0.830795   -0.412028
     81          6           0      -10.879906   -1.526509   -0.717643
     82          6           0       -6.087748   -1.575467   -0.458344
     83          6           0       -6.124373    3.244261    0.135878
     84          6           0      -10.998464    3.323773    0.153719
     85          7           0       -8.531073   -1.379649   -0.302957
     86          6           0       -9.612686   -2.126530   -0.555626
     87          6           0       -9.215615   -3.687711   -0.659266
     88          6           0       -7.647734   -3.573501   -0.571594
     89          6           0       -7.359606   -2.069811   -0.388044
     90          6           0       -7.016465   -4.506125    0.480387
     91          6           0       -9.718404   -4.378451   -1.958648
     92          6           0       -9.104474   -5.762867   -2.347746
     93          1           0       -9.973693   -7.049984   -2.081142
     94          7           0       -6.368168    0.824187   -0.141298
     95          6           0       -5.584852   -0.223193   -0.294211
     96          6           0       -4.202318    0.205121   -0.144780
     97          6           0       -4.154574    1.602245    0.143384
     98          6           0       -5.588867    1.952362    0.048604
     99          6           0       -2.991944   -0.713537   -0.118110
    100          6           0       -2.979577    2.505594    0.503134
    101          8           0       -3.161360    3.612451    1.001984
    102          6           0       -1.597004    2.019104    0.242452
    103          7           0       -8.556161    2.979741    0.122670
    104          6           0       -7.471370    3.736282    0.239682
    105          6           0       -7.818542    5.229056    0.364572
    106          6           0       -9.329481    5.189742    0.150975
    107          6           0       -9.639502    3.739631    0.179210
    108          6           0       -7.371640    5.969990    1.633570
    109          6           0       -9.811747    6.037698   -0.998695
    110          6           0      -10.760726    7.232962   -0.628814
    111          7           0      -10.454110    0.930964   -0.351458
    112          6           0      -11.390500    2.007839   -0.198165
    113          6           0      -12.748358    1.552204   -0.399842
    114          6           0      -12.534306    0.163146   -0.620520
    115          6           0      -11.168034   -0.140555   -0.569106
    116          6           0      -14.031022    2.295039   -0.531271
    117          6           0      -13.278186   -0.988581   -1.064461
    118          8           0      -14.431351   -1.164124   -1.485471
    119          6           0      -12.334393   -2.164742   -1.036874
    120          6           0      -12.717244   -3.068658    0.155706
    121          8           0      -13.030503   -2.716097    1.303136
    122          8           0      -12.644384   -4.361896   -0.269468
    123          6           0      -13.009445   -5.437416    0.706203
    124          1           0       -5.233364   -2.244013   -0.583052
    125          1           0       -5.482090    4.042967    0.512709
    126          1           0      -11.712455    4.148183    0.197235
    127          1           0       -9.635617   -4.120909    0.247775
    128          1           0       -7.246901   -3.827326   -1.552897
    129          1           0       -6.130081   -4.943734    0.022412
    130          1           0       -7.675563   -5.335033    0.738690
    131          1           0       -6.751075   -3.953302    1.381610
    132          1           0       -9.362424   -3.744081   -2.770390
    133          1           0      -10.797963   -4.520686   -1.910754
    134          1           0       -8.247918   -5.921857   -1.691856
    135          1           0       -8.878281   -5.756246   -3.413442
    136          1           0       -3.279746   -1.754855   -0.262603
    137          1           0       -2.487616   -0.625011    0.843829
    138          1           0       -2.266552   -0.451712   -0.887360
    139          1           0       -1.612011    1.660410   -0.787111
    140          1           0       -1.125682    1.228197    0.825117
    141          1           0       -0.848161    2.804747    0.336992
    142          1           0       -7.349358    5.745918   -0.471882
    143          1           0       -9.789843    5.629536    1.035528
    144          1           0       -7.056303    6.947330    1.269074
    145          1           0       -6.605775    5.401424    2.160896
    146          1           0       -8.135670    6.037214    2.408000
    147          1           0      -10.435349    5.355014   -1.575023
    148          1           0       -9.006051    6.467758   -1.592979
    149          1           0      -10.946266    7.242496    0.445567
    150          1           0      -11.710772    7.057772   -1.134546
    151          1           0      -10.445087    8.211169   -0.991841
    152          1           0      -13.839590    3.365972   -0.593420
    153          1           0      -14.537869    2.156948    0.423093
    154          1           0      -14.493195    1.892508   -1.433796
    155          1           0      -12.499886   -2.660412   -1.993630
    156          1           0      -12.568436   -5.333422    1.697865
    157          1           0      -12.823953   -6.450134    0.349825
    158          1           0      -14.079892   -5.320762    0.874560
 ---------------------------------------------------------------------

 SCF Done:  E(RwB97XD) =  -4070.62181120     A.U. after   19 cycles

 Excitation energies and oscillator strengths:

 Excited State   1:      Singlet-A      1.6093 eV  770.44 nm  f=0.5433  <S**2>=0.000
     309 -> 315       -0.16585
     311 -> 313        0.67111
     312 -> 314        0.14528
     309 <- 315       -0.11103
 This state for optimization and/or second-order correction.
 Total Energy, E(TD-HF/TD-DFT) =  -4070.56267156
 Copying the excited state density for this state as the 1-particle RhoCI density.

 Excited State   2:      Singlet-A      1.6667 eV  743.87 nm  f=0.2904  <S**2>=0.000
     310 -> 316       -0.17833
     311 -> 313       -0.14489
     312 -> 314        0.66597
     310 <- 316       -0.11021

 Excited State   3:      Singlet-A      2.1167 eV  585.73 nm  f=0.1251  <S**2>=0.000
     309 -> 313        0.64984
     311 -> 315        0.25720

 Excited State   4:      Singlet-A      2.2231 eV  557.71 nm  f=0.1088  <S**2>=0.000
     310 -> 314        0.63660
     312 -> 316        0.28992

 Excited State   5:      Singlet-A      3.2498 eV  381.51 nm  f=0.0000  <S**2>=0.000
     312 -> 313        0.70666

 The electronic state is 1-A.
 Alpha  occ. eigenvalues --  -46.95375 -46.94295 -19.31199 -19.30709 -19.24815
 Alpha  occ. eigenvalues --  -19.24374 -19.24260 -19.24022 -19.23723 -19.22592
 Alpha  occ. eigenvalues --  -14.47336 -14.46960 -14.46511 -14.46112 -14.44803
 Alpha  occ. eigenvalues --  -14.44522 -14.43725 -14.43624 -10.44034 -10.43277
 Alpha  occ. eigenvalues --  -10.39870 -10.38905 -10.38877 -10.37206 -10.36207
 Alpha  occ. eigenvalues --  -10.35853 -10.35805 -10.35779 -10.35719 -10.35562
 Alpha  occ. eigenvalues --  -10.35343 -10.34996 -10.34936 -10.34848 -10.34766
 Alpha  occ. eigenvalues --  -10.34347 -10.34281 -10.34193 -10.33856 -10.33818
 Alpha  occ. eigenvalues --  -10.33393 -10.33238 -10.33226 -10.33188 -10.33142
 Alpha  occ. eigenvalues --  -10.33077 -10.32852 -10.32789 -10.32770 -10.32639
 Alpha  occ. eigenvalues --  -10.32626 -10.32555 -10.32284 -10.32032 -10.32017
 Alpha  occ. eigenvalues --  -10.31961 -10.31804 -10.31756 -10.31649 -10.31576
 Alpha  occ. eigenvalues --  -10.31483 -10.31420 -10.31186 -10.31145 -10.31022
 Alpha  occ. eigenvalues --  -10.30922 -10.30689 -10.30585 -10.30555 -10.30456
 Alpha  occ. eigenvalues --  -10.30324 -10.30140 -10.30113 -10.30074 -10.29984
 Alpha  occ. eigenvalues --  -10.29979 -10.29945 -10.29886 -10.29860 -10.29755
 Alpha  occ. eigenvalues --  -10.29625 -10.29441 -10.29384 -10.28896 -10.28528
 Alpha  occ. eigenvalues --  -10.28270  -3.21343  -3.20451  -1.94924  -1.94457
 Alpha  occ. eigenvalues --   -1.94326  -1.94051  -1.93589  -1.93428  -1.18396
 Alpha  occ. eigenvalues --   -1.17595  -1.12817  -1.12411  -1.10232  -1.10043
 Alpha  occ. eigenvalues --   -1.08590  -1.08160  -1.07583  -1.07234  -1.06250
 Alpha  occ. eigenvalues --   -1.05747  -1.05001  -1.04826  -1.04549  -1.02809
 Alpha  occ. eigenvalues --   -0.94459  -0.93086  -0.91713  -0.91648  -0.91005
 Alpha  occ. eigenvalues --   -0.90768  -0.90433  -0.89950  -0.89449  -0.89299
 Alpha  occ. eigenvalues --   -0.89180  -0.88920  -0.88795  -0.87989  -0.86869
 Alpha  occ. eigenvalues --   -0.86107  -0.85955  -0.85092  -0.85054  -0.84447
 Alpha  occ. eigenvalues --   -0.84058  -0.83907  -0.83569  -0.82894  -0.82235
 Alpha  occ. eigenvalues --   -0.81844  -0.80711  -0.80316  -0.79369  -0.79314
 Alpha  occ. eigenvalues --   -0.78912  -0.78516  -0.78085  -0.77870  -0.77621
 Alpha  occ. eigenvalues --   -0.77128  -0.74928  -0.74471  -0.74104  -0.73507
 Alpha  occ. eigenvalues --   -0.72383  -0.71598  -0.71232  -0.70903  -0.69833
 Alpha  occ. eigenvalues --   -0.69549  -0.69404  -0.69358  -0.67633  -0.67232
 Alpha  occ. eigenvalues --   -0.66851  -0.66743  -0.66474  -0.66268  -0.65992
 Alpha  occ. eigenvalues --   -0.65751  -0.64480  -0.64114  -0.62536  -0.62427
 Alpha  occ. eigenvalues --   -0.61472  -0.61333  -0.61277  -0.60710  -0.60489
 Alpha  occ. eigenvalues --   -0.60464  -0.59880  -0.59822  -0.59587  -0.59225
 Alpha  occ. eigenvalues --   -0.58484  -0.58132  -0.58076  -0.57648  -0.57457
 Alpha  occ. eigenvalues --   -0.57384  -0.56942  -0.56918  -0.56436  -0.56326
 Alpha  occ. eigenvalues --   -0.55923  -0.55603  -0.55545  -0.55224  -0.55172
 Alpha  occ. eigenvalues --   -0.54898  -0.54566  -0.54510  -0.54341  -0.54286
 Alpha  occ. eigenvalues --   -0.53969  -0.53472  -0.53276  -0.52982  -0.52979
 Alpha  occ. eigenvalues --   -0.52897  -0.52890  -0.52494  -0.52490  -0.52259
 Alpha  occ. eigenvalues --   -0.52256  -0.51895  -0.51712  -0.51696  -0.51556
 Alpha  occ. eigenvalues --   -0.51445  -0.51117  -0.50936  -0.50925  -0.50792
 Alpha  occ. eigenvalues --   -0.50735  -0.50718  -0.50620  -0.50303  -0.50228
 Alpha  occ. eigenvalues --   -0.49958  -0.49852  -0.49726  -0.49593  -0.49420
 Alpha  occ. eigenvalues --   -0.49137  -0.49084  -0.48880  -0.48625  -0.48591
 Alpha  occ. eigenvalues --   -0.48277  -0.48163  -0.48131  -0.47922  -0.47794
 Alpha  occ. eigenvalues --   -0.47737  -0.47563  -0.47005  -0.46750  -0.46650
 Alpha  occ. eigenvalues --   -0.46528  -0.46466  -0.46292  -0.46266  -0.46182
 Alpha  occ. eigenvalues --   -0.46049  -0.45857  -0.45798  -0.45623  -0.45570
 Alpha  occ. eigenvalues --   -0.45395  -0.45338  -0.44811  -0.44678  -0.44666
 Alpha  occ. eigenvalues --   -0.44557  -0.44319  -0.44023  -0.43986  -0.43902
 Alpha  occ. eigenvalues --   -0.43799  -0.43754  -0.43608  -0.43437  -0.43309
 Alpha  occ. eigenvalues --   -0.42997  -0.42959  -0.42572  -0.42568  -0.42207
 Alpha  occ. eigenvalues --   -0.42087  -0.41351  -0.41165  -0.41060  -0.40964
 Alpha  occ. eigenvalues --   -0.40843  -0.40043  -0.39623  -0.39504  -0.39326
 Alpha  occ. eigenvalues --   -0.39030  -0.39003  -0.38664  -0.38553  -0.38325
 Alpha  occ. eigenvalues --   -0.38081  -0.37742  -0.36499  -0.36263  -0.36119
 Alpha  occ. eigenvalues --   -0.35847  -0.35491  -0.35417  -0.33915  -0.33720
 Alpha  occ. eigenvalues --   -0.33425  -0.33170  -0.32777  -0.32609  -0.32526
 Alpha  occ. eigenvalues --   -0.31807  -0.31664  -0.31497  -0.26374  -0.25682
 Alpha  occ. eigenvalues --   -0.23476  -0.22761
 Alpha virt. eigenvalues --   -0.07840  -0.06737   0.00071   0.00312   0.02173
 Alpha virt. eigenvalues --    0.02805   0.04095   0.04775   0.05207   0.06046
 Alpha virt. eigenvalues --    0.06472   0.07494   0.07599   0.07964   0.08393

 Mulliken charges:
               1
     1  Mg   0.974844
     2  C   -0.026054
     3  C   -0.091949
     4  C   -0.091220
     5  C   -0.077607
     6  N   -0.366276
     7  C   -0.005923
     8  C   -0.064729
     9  C   -0.111998
    10  C    0.089161
    11  C    0.051840
    12  C   -0.005779
    13  C   -0.128005
    14  H    0.028646
    15  N   -0.467510
    16  C    0.163466
    17  C   -0.170249
    18  C   -0.057159
    19  C    0.152560
    20  C    0.067260
    21  C    0.022226
    22  O   -0.243139
    23  C    0.001789
    24  N   -0.422471
    25  C    0.104114
    26  C   -0.088176
    27  C   -0.066291
    28  C    0.109635
    29  C    0.042814
    30  C    0.010266
    31  C   -0.067637
    32  N   -0.449425
    33  C    0.078373
    34  C   -0.151858
    35  C   -0.102150
    36  C    0.166972
    37  C    0.065043
    38  C    0.157689
    39  O   -0.237840
    40  C   -0.063253
    41  C    0.279175
    42  O   -0.286238
    43  O   -0.366713
    44  C    0.125310
    45  H   -0.007153
    46  H    0.021997
    47  H    0.001807
    48  H    0.052236
    49  H    0.035030
    50  H    0.045783
    51  H    0.022037
    52  H    0.048410
    53  H    0.034126
    54  H    0.057781
    55  H    0.053020
    56  H    0.055159
    57  H    0.061592
    58  H    0.044308
    59  H    0.067374
    60  H    0.027369
    61  H    0.066947
    62  H    0.059817
    63  H    0.041651
    64  H    0.014385
    65  H    0.036045
    66  H    0.048362
    67  H    0.036875
    68  H    0.035705
    69  H    0.029236
    70  H    0.029402
    71  H    0.034196
    72  H    0.040592
    73  H    0.059590
    74  H    0.027339
    75  H    0.056159
    76  H    0.078168
    77  H    0.066139
    78  H    0.060412
    79  H    0.076572
    80  Mg   0.969862
    81  C   -0.074947
    82  C   -0.078685
    83  C   -0.049800
    84  C   -0.066452
    85  N   -0.355659
    86  C   -0.026234
    87  C   -0.008603
    88  C   -0.153696
    89  C    0.120239
    90  C    0.024396
    91  C   -0.009604
    92  C   -0.131187
    93  H    0.014592
    94  N   -0.438179
    95  C    0.116879
    96  C   -0.186898
    97  C   -0.058909
    98  C    0.131176
    99  C    0.069171
   100  C    0.087868
   101  O   -0.227905
   102  C   -0.033761
   103  N   -0.273998
   104  C   -0.006919
   105  C   -0.114761
   106  C   -0.055344
   107  C    0.009285
   108  C    0.036063
   109  C    0.000611
   110  C   -0.068022
   111  N   -0.456809
   112  C    0.123178
   113  C   -0.170758
   114  C   -0.077099
   115  C    0.205869
   116  C    0.109162
   117  C    0.102514
   118  O   -0.240034
   119  C   -0.055685
   120  C    0.293585
   121  O   -0.266037
   122  O   -0.365241
   123  C    0.138601
   124  H   -0.019345
   125  H    0.029388
   126  H    0.003661
   127  H    0.040410
   128  H    0.036804
   129  H    0.034236
   130  H    0.041213
   131  H    0.050427
   132  H    0.031730
   133  H    0.073302
   134  H    0.048560
   135  H    0.065270
   136  H    0.032122
   137  H    0.054782
   138  H    0.041224
   139  H    0.047805
   140  H    0.067177
   141  H    0.051611
   142  H    0.038515
   143  H    0.021209
   144  H    0.046117
   145  H    0.044626
   146  H    0.029764
   147  H    0.030430
   148  H    0.036563
   149  H    0.033075
   150  H    0.033272
   151  H    0.041621
   152  H    0.019026
   153  H    0.065176
   154  H    0.080761
   155  H    0.069271
   156  H    0.058707
   157  H    0.063398
   158  H    0.056267
 Sum of Mulliken charges =  -0.00000

 Dipole moment (field-independent basis, Debye):
    X=              7.8705    Y=             -1.6690    Z=             -6.4250  Tot=             10.2961
 Quadrupole moment (field-independent basis, Debye-Ang):
   XX=           -580.8358   YY=           -449.1916   ZZ=           -519.4431
   XY=            -45.1123   XZ=            -35.2012   YZ=             16.9214

 Normal termination of Gaussian 16 at Sun Sep 19 01:28:03 2021.
