 Gaussian 16, Revision A.03,
 Gaussian 16:  ES64L-G16RevA.03 25-Dec-2016

 --------------------------------
 #p wB97XD/Def2SVP td=(nstates=5)
 --------------------------------

 --------------------------------
 TDDFT excited states in gaussian
 --------------------------------
 Symbolic Z-matrix:
 Charge =  0 Multiplicity = 1

                         Standard orientation:
 ---------------------------------------------------------------------
 Center     Atomic      Atomic             Coordinates (Angstroms)
 Number     Number       Type             X           Y           Z
 ---------------------------------------------------------------------
      1         12           0      -23.569867   -0.730328   -0.035903
      2          6           0      -22.543505    2.287921   -1.348425
      3          6           0      -23.307433    0.817325    3.183381
      4          6           0      -24.201331   -3.609922    1.364938
      5          6           0      -23.455345   -2.187048   -3.171195
      6          7           0      -22.765748    1.321686    0.804992
      7          6           0      -22.641667    2.398179    0.046925
      8          6           0      -22.734084    3.694405    0.900652
      9          6           0      -22.406584    3.104076    2.316704
     10          6           0      -22.842913    1.639512    2.151521
     11          6           0      -20.885803    3.237203    2.683769
     12          6           0      -24.183747    4.205876    0.746763
     13          6           0      -24.500918    5.567219    1.380466
     14          1           0      -23.506379    6.221984    2.318005
     15          7           0      -23.851406   -1.367200    1.922936
     16          6           0      -23.729097   -0.549246    3.098493
     17          6           0      -24.210833   -1.365262    4.204614
     18          6           0      -24.580093   -2.632892    3.655513
     19          6           0      -24.183887   -2.609929    2.248203
     20          6           0      -24.337853   -0.873677    5.694711
     21          6           0      -25.294950   -3.809979    4.397803
     22          8           0      -25.422524   -4.850742    3.813202
     23          6           0      -25.765985   -3.646276    5.806378
     24          7           0      -23.889077   -2.633580   -0.818573
     25          6           0      -24.145557   -3.705589   -0.035458
     26          6           0      -24.253164   -5.013309   -0.818899
     27          6           0      -24.150114   -4.518135   -2.280140
     28          6           0      -23.802283   -2.987489   -2.077242
     29          6           0      -23.183165   -6.110060   -0.463666
     30          6           0      -25.296521   -4.840927   -3.204214
     31          6           0      -26.765489   -4.610257   -2.774687
     32          7           0      -23.097018   -0.163381   -1.913946
     33          6           0      -23.099124   -0.836877   -3.101840
     34          6           0      -22.816490    0.130745   -4.140914
     35          6           0      -22.610669    1.418285   -3.536098
     36          6           0      -22.787201    1.152377   -2.150589
     37          6           0      -22.746877   -0.202111   -5.598650
     38          6           0      -22.255905    2.783065   -3.736648
     39          8           0      -21.960405    3.445102   -4.755331
     40          6           0      -21.942280    3.306414   -2.230717
     41          6           0      -22.439329    4.751356   -2.162319
     42          8           0      -23.516184    5.116318   -2.444189
     43          8           0      -21.395827    5.535770   -1.760548
     44          6           0      -21.693643    6.867576   -1.275129
     45          1           0      -23.160978    1.276002    4.163030
     46          1           0      -24.363211   -4.605717    1.782881
     47          1           0      -23.383608   -2.588922   -4.183275
     48          1           0      -21.958417    4.415140    0.642258
     49          1           0      -23.072801    3.656554    2.979732
     50          1           0      -20.758138    4.042085    3.406577
     51          1           0      -20.337334    3.433026    1.762191
     52          1           0      -20.478999    2.355534    3.179098
     53          1           0      -24.831628    3.500267    1.266180
     54          1           0      -24.533458    4.142898   -0.283236
     55          1           0      -25.533321    5.652008    1.720401
     56          1           0      -24.594798    6.240424    0.528155
     57          1           0      -23.868739   -1.560619    6.399709
     58          1           0      -25.405700   -0.739988    5.866966
     59          1           0      -23.918772    0.129380    5.783071
     60          1           0      -26.604754   -4.341848    5.841615
     61          1           0      -26.205924   -2.667046    5.991731
     62          1           0      -25.054054   -3.633872    6.631621
     63          1           0      -25.248465   -5.394441   -0.591488
     64          1           0      -23.246305   -4.861953   -2.783101
     65          1           0      -22.964617   -6.617510   -1.402881
     66          1           0      -23.733527   -6.754130    0.222490
     67          1           0      -22.345645   -5.665669    0.073996
     68          1           0      -25.253606   -5.929302   -3.180294
     69          1           0      -25.240539   -4.469808   -4.228110
     70          1           0      -27.427337   -5.473328   -2.716281
     71          1           0      -27.308582   -4.024412   -3.516228
     72          1           0      -26.780624   -4.147104   -1.787988
     73          1           0      -22.458307    0.723851   -6.095249
     74          1           0      -23.738961   -0.463481   -5.969268
     75          1           0      -22.138541   -1.070292   -5.850490
     76          1           0      -20.864378    3.190009   -2.116243
     77          1           0      -20.983562    7.308180   -1.975099
     78          1           0      -21.552393    6.986242   -0.200643
     79          1           0      -22.691860    7.226632   -1.526966
     80         12           0       23.877229   -0.697212   -0.040113
     81          6           0       21.834855    2.130714    0.967621
     82          6           0       26.227947    1.585701   -0.832152
     83          6           0       25.633882   -3.195103   -0.976859
     84          6           0       21.107528   -2.816314    0.572288
     85          7           0       23.991412    1.704597    0.107608
     86          6           0       23.098710    2.568202    0.621538
     87          6           0       23.711997    3.978731    0.710204
     88          6           0       24.917219    3.743510   -0.314804
     89          6           0       25.097710    2.283758   -0.304374
     90          6           0       24.894392    4.488849   -1.638782
     91          6           0       24.094214    4.260527    2.173562
     92          6           0       24.118958    5.780523    2.510660
     93          1           0       23.516009    6.900804    1.543014
     94          7           0       25.748679   -0.827936   -0.779887
     95          6           0       26.566698    0.227611   -1.134580
     96          6           0       27.776030   -0.324766   -1.737261
     97          6           0       27.650106   -1.735763   -1.716272
     98          6           0       26.292597   -1.957368   -1.142376
     99          6           0       28.881796    0.481483   -2.257061
    100          6           0       28.702692   -2.880806   -2.160120
    101          8           0       28.509423   -4.040312   -1.916001
    102          6           0       30.122987   -2.526624   -2.636108
    103          7           0       23.315290   -2.687655   -0.428379
    104          6           0       24.300834   -3.549152   -0.667164
    105          6           0       23.882003   -4.994603   -0.644260
    106          6           0       22.602555   -4.863050    0.217590
    107          6           0       22.256964   -3.355590   -0.037934
    108          6           0       23.563509   -5.610735   -2.085463
    109          6           0       22.745586   -5.258715    1.747054
    110          6           0       23.785256   -6.334362    2.176697
    111          7           0       21.866524   -0.445309    0.513516
    112          6           0       20.886206   -1.341819    0.785547
    113          6           0       19.769392   -0.733621    1.352937
    114          6           0       20.094058    0.592594    1.381471
    115          6           0       21.374026    0.762202    0.891805
    116          6           0       18.524219   -1.447001    1.872547
    117          6           0       19.544343    1.888333    1.807626
    118          8           0       18.426824    2.250110    2.144240
    119          6           0       20.740417    2.918088    1.607317
    120          6           0       20.228826    4.034116    0.831215
    121          8           0       20.035458    4.064660   -0.388289
    122          8           0       19.754692    4.939195    1.712608
    123          6           0       18.882954    5.918958    1.089533
    124          1           0       26.904660    2.332585   -1.252664
    125          1           0       26.248097   -4.019815   -1.342826
    126          1           0       20.316312   -3.520957    0.836003
    127          1           0       23.056888    4.729795    0.268623
    128          1           0       25.798835    4.158363    0.171907
    129          1           0       25.688797    5.231620   -1.705100
    130          1           0       23.934447    4.986824   -1.773953
    131          1           0       24.958936    3.842570   -2.514173
    132          1           0       25.127647    3.938896    2.304585
    133          1           0       23.504146    3.704784    2.902075
    134          1           0       25.109229    6.107043    2.829847
    135          1           0       23.657373    5.793472    3.497917
    136          1           0       28.916956    1.466868   -1.792917
    137          1           0       28.697730    0.555685   -3.328980
    138          1           0       29.867107    0.046105   -2.089161
    139          1           0       30.745386   -2.072317   -1.865219
    140          1           0       29.967670   -1.958287   -3.553414
    141          1           0       30.622373   -3.422336   -3.006379
    142          1           0       24.745174   -5.487065   -0.197104
    143          1           0       21.771008   -5.458705   -0.158218
    144          1           0       24.089433   -6.563824   -2.034459
    145          1           0       23.953758   -5.028506   -2.920957
    146          1           0       22.514512   -5.822232   -2.289229
    147          1           0       21.762239   -5.530969    2.127831
    148          1           0       23.147502   -4.330567    2.153779
    149          1           0       24.758571   -5.874860    2.347075
    150          1           0       23.725902   -7.071977    1.375621
    151          1           0       23.476723   -6.870619    3.073436
    152          1           0       18.884316   -2.425967    2.189751
    153          1           0       17.782534   -1.637176    1.097315
    154          1           0       18.119620   -0.865983    2.701098
    155          1           0       21.037896    3.239598    2.606228
    156          1           0       18.473793    6.643471    1.793062
    157          1           0       18.133614    5.535742    0.396707
    158          1           0       19.456673    6.571946    0.430943
 ---------------------------------------------------------------------

 SCF Done:  E(RwB97XD) =  -4070.58084561     A.U. after   20 cycles

 Excitation energies and oscillator strengths:

 Excited State   1:      Singlet-A      1.6762 eV  739.67 nm  f=0.3723  <S**2>=0.000
     309 -> 315       -0.20181
     312 -> 313        0.67874
     309 <- 315       -0.12040
 This state for optimization and/or second-order correction.
 Total Energy, E(TD-HF/TD-DFT) =  -4070.51924603
 Copying the excited state density for this state as the 1-particle RhoCI density.

 Excited State   2:      Singlet-A      1.7990 eV  689.20 nm  f=0.3719  <S**2>=0.000
     310 -> 316        0.19143
     311 -> 314        0.67947
     310 <- 316        0.11148

 Excited State   3:      Singlet-A      2.1628 eV  573.25 nm  f=0.0885  <S**2>=0.000
     309 -> 313        0.63320
     312 -> 315        0.30171

 Excited State   4:      Singlet-A      2.1925 eV  565.50 nm  f=0.1528  <S**2>=0.000
     310 -> 314        0.65251
     311 -> 316       -0.25639

 Excited State   5:      Singlet-A      3.3462 eV  370.53 nm  f=0.0457  <S**2>=0.000
     302 -> 313       -0.24684
     302 -> 317        0.17765
     304 -> 313        0.41102
     304 -> 317       -0.24595
     304 -> 319        0.11251
     306 -> 313       -0.15656
     308 -> 313       -0.18609
     312 -> 315       -0.18118

 The electronic state is 1-A.
 Alpha  occ. eigenvalues --  -46.95678 -46.94580 -19.30086 -19.29606 -19.25580
 Alpha  occ. eigenvalues --  -19.25166 -19.24103 -19.24039 -19.23845 -19.23682
 Alpha  occ. eigenvalues --  -14.46296 -14.46259 -14.46067 -14.45655 -14.44549
 Alpha  occ. eigenvalues --  -14.43874 -14.43870 -14.43185 -10.42749 -10.42014
 Alpha  occ. eigenvalues --  -10.41015 -10.39170 -10.39115 -10.38785 -10.35409
 Alpha  occ. eigenvalues --  -10.35180 -10.34846 -10.34835 -10.34715 -10.34687
 Alpha  occ. eigenvalues --  -10.34602 -10.34555 -10.34412 -10.34280 -10.34242
 Alpha  occ. eigenvalues --  -10.33652 -10.33642 -10.33555 -10.33551 -10.33348
 Alpha  occ. eigenvalues --  -10.33191 -10.32930 -10.32768 -10.32717 -10.32699
 Alpha  occ. eigenvalues --  -10.32547 -10.32343 -10.32124 -10.32035 -10.31971
 Alpha  occ. eigenvalues --  -10.31816 -10.31776 -10.31740 -10.31700 -10.31674
 Alpha  occ. eigenvalues --  -10.31649 -10.31622 -10.31593 -10.31524 -10.31515
 Alpha  occ. eigenvalues --  -10.31437 -10.31423 -10.31296 -10.31267 -10.31115
 Alpha  occ. eigenvalues --  -10.31038 -10.30677 -10.30556 -10.30501 -10.30491
 Alpha  occ. eigenvalues --  -10.30361 -10.30120 -10.30101 -10.30081 -10.30026
 Alpha  occ. eigenvalues --  -10.29936 -10.29861 -10.29822 -10.29678 -10.29445
 Alpha  occ. eigenvalues --  -10.29412 -10.29353 -10.29047 -10.29029 -10.28900
 Alpha  occ. eigenvalues --  -10.27669  -3.21632  -3.20645  -1.95222  -1.94772
 Alpha  occ. eigenvalues --   -1.94583  -1.94237  -1.93787  -1.93606  -1.19759
 Alpha  occ. eigenvalues --   -1.18634  -1.14875  -1.13671  -1.11991  -1.11629
 Alpha  occ. eigenvalues --   -1.10263  -1.08785  -1.07788  -1.07214  -1.07194
 Alpha  occ. eigenvalues --   -1.06714  -1.06057  -1.05405  -1.05083  -1.04062
 Alpha  occ. eigenvalues --   -0.95013  -0.94278  -0.91183  -0.91162  -0.90597
 Alpha  occ. eigenvalues --   -0.90566  -0.90362  -0.89943  -0.89491  -0.89218
 Alpha  occ. eigenvalues --   -0.88814  -0.88370  -0.87567  -0.87471  -0.86282
 Alpha  occ. eigenvalues --   -0.85957  -0.85583  -0.84987  -0.84290  -0.84248
 Alpha  occ. eigenvalues --   -0.83874  -0.83627  -0.83348  -0.82650  -0.82219
 Alpha  occ. eigenvalues --   -0.82051  -0.80614  -0.79911  -0.79238  -0.78719
 Alpha  occ. eigenvalues --   -0.78705  -0.78517  -0.77796  -0.77625  -0.77411
 Alpha  occ. eigenvalues --   -0.77184  -0.74698  -0.74651  -0.73954  -0.73619
 Alpha  occ. eigenvalues --   -0.72146  -0.71582  -0.70836  -0.70699  -0.70055
 Alpha  occ. eigenvalues --   -0.69558  -0.68803  -0.68155  -0.67382  -0.67128
 Alpha  occ. eigenvalues --   -0.67032  -0.66834  -0.66598  -0.66253  -0.66097
 Alpha  occ. eigenvalues --   -0.65647  -0.64321  -0.63762  -0.62861  -0.62451
 Alpha  occ. eigenvalues --   -0.61599  -0.61463  -0.61212  -0.61116  -0.60794
 Alpha  occ. eigenvalues --   -0.60358  -0.60127  -0.59851  -0.59840  -0.59459
 Alpha  occ. eigenvalues --   -0.58573  -0.58095  -0.58074  -0.57607  -0.57385
 Alpha  occ. eigenvalues --   -0.57254  -0.57131  -0.56510  -0.56166  -0.55970
 Alpha  occ. eigenvalues --   -0.55752  -0.55597  -0.55532  -0.55435  -0.54936
 Alpha  occ. eigenvalues --   -0.54867  -0.54841  -0.54285  -0.54175  -0.54167
 Alpha  occ. eigenvalues --   -0.53975  -0.53683  -0.53659  -0.53198  -0.53052
 Alpha  occ. eigenvalues --   -0.52685  -0.52622  -0.52618  -0.52394  -0.52035
 Alpha  occ. eigenvalues --   -0.51921  -0.51877  -0.51632  -0.51592  -0.51465
 Alpha  occ. eigenvalues --   -0.51222  -0.51184  -0.51048  -0.50869  -0.50723
 Alpha  occ. eigenvalues --   -0.50684  -0.50509  -0.50262  -0.50150  -0.50049
 Alpha  occ. eigenvalues --   -0.49869  -0.49782  -0.49532  -0.49407  -0.49302
 Alpha  occ. eigenvalues --   -0.48920  -0.48793  -0.48652  -0.48518  -0.48437
 Alpha  occ. eigenvalues --   -0.48145  -0.47890  -0.47727  -0.47664  -0.47508
 Alpha  occ. eigenvalues --   -0.47338  -0.47138  -0.46913  -0.46801  -0.46590
 Alpha  occ. eigenvalues --   -0.46540  -0.46427  -0.46210  -0.45977  -0.45837
 Alpha  occ. eigenvalues --   -0.45766  -0.45733  -0.45262  -0.45242  -0.45175
 Alpha  occ. eigenvalues --   -0.45170  -0.44884  -0.44881  -0.44823  -0.44600
 Alpha  occ. eigenvalues --   -0.44574  -0.44364  -0.44238  -0.44204  -0.44024
 Alpha  occ. eigenvalues --   -0.43973  -0.43924  -0.43762  -0.43545  -0.43333
 Alpha  occ. eigenvalues --   -0.43307  -0.43208  -0.42824  -0.42276  -0.42087
 Alpha  occ. eigenvalues --   -0.41617  -0.41467  -0.41296  -0.41215  -0.40585
 Alpha  occ. eigenvalues --   -0.40269  -0.40151  -0.39994  -0.39828  -0.39535
 Alpha  occ. eigenvalues --   -0.39399  -0.39140  -0.38644  -0.38352  -0.37893
 Alpha  occ. eigenvalues --   -0.37728  -0.37632  -0.37150  -0.36134  -0.35916
 Alpha  occ. eigenvalues --   -0.35650  -0.35544  -0.34678  -0.33949  -0.33732
 Alpha  occ. eigenvalues --   -0.33640  -0.32993  -0.32824  -0.32476  -0.32298
 Alpha  occ. eigenvalues --   -0.31993  -0.31577  -0.31481  -0.25702  -0.25294
 Alpha  occ. eigenvalues --   -0.23202  -0.22875
 Alpha virt. eigenvalues --   -0.06761  -0.06580   0.00053   0.00847   0.02265
 Alpha virt. eigenvalues --    0.02627   0.04743   0.04775   0.05580   0.06131
 Alpha virt. eigenvalues --    0.06772   0.07924   0.08027   0.08250   0.08534

 Mulliken charges:
               1
     1  Mg   0.965803
     2  C   -0.025616
     3  C   -0.077154
     4  C   -0.087947
     5  C   -0.117693
     6  N   -0.288204
     7  C   -0.036092
     8  C   -0.083908
     9  C   -0.089557
    10  C    0.019645
    11  C    0.040455
    12  C    0.000157
    13  C   -0.089362
    14  H    0.044149
    15  N   -0.478774
    16  C    0.175977
    17  C   -0.189382
    18  C   -0.081175
    19  C    0.188807
    20  C    0.062488
    21  C    0.064877
    22  O   -0.213725
    23  C   -0.007256
    24  N   -0.342081
    25  C    0.014309
    26  C   -0.099232
    27  C   -0.054367
    28  C    0.091322
    29  C    0.035517
    30  C   -0.009964
    31  C   -0.072531
    32  N   -0.486624
    33  C    0.144527
    34  C   -0.184399
    35  C   -0.031057
    36  C    0.180581
    37  C    0.067921
    38  C    0.153389
    39  O   -0.233729
    40  C   -0.147587
    41  C    0.242693
    42  O   -0.185822
    43  O   -0.368578
    44  C    0.110562
    45  H    0.003790
    46  H    0.009622
    47  H   -0.005503
    48  H    0.019530
    49  H    0.022914
    50  H    0.039843
    51  H    0.043905
    52  H    0.040383
    53  H    0.025770
    54  H    0.065925
    55  H    0.042710
    56  H    0.038138
    57  H    0.059057
    58  H    0.057706
    59  H    0.030217
    60  H    0.058129
    61  H    0.020554
    62  H    0.069254
    63  H    0.047910
    64  H    0.031256
    65  H    0.046316
    66  H    0.047888
    67  H    0.054253
    68  H    0.029205
    69  H    0.040691
    70  H    0.032750
    71  H    0.032872
    72  H    0.039558
    73  H    0.062276
    74  H    0.042919
    75  H    0.047415
    76  H    0.085767
    77  H    0.070121
    78  H    0.062611
    79  H    0.062887
    80  Mg   0.963200
    81  C   -0.002608
    82  C   -0.069587
    83  C   -0.087096
    84  C   -0.078699
    85  N   -0.252481
    86  C   -0.062634
    87  C   -0.061938
    88  C   -0.088919
    89  C    0.000048
    90  C    0.039641
    91  C    0.010069
    92  C   -0.092278
    93  H    0.048533
    94  N   -0.472722
    95  C    0.161553
    96  C   -0.161850
    97  C   -0.088144
    98  C    0.121992
    99  C    0.059524
   100  C    0.076617
   101  O   -0.197398
   102  C   -0.024239
   103  N   -0.321653
   104  C    0.065177
   105  C   -0.102389
   106  C   -0.113815
   107  C    0.058414
   108  C    0.030251
   109  C   -0.010576
   110  C   -0.052895
   111  N   -0.409875
   112  C    0.090274
   113  C   -0.219050
   114  C   -0.051368
   115  C    0.154826
   116  C    0.095773
   117  C    0.138538
   118  O   -0.197782
   119  C   -0.092968
   120  C    0.252611
   121  O   -0.272120
   122  O   -0.331239
   123  C    0.153359
   124  H   -0.010541
   125  H    0.011916
   126  H    0.003371
   127  H    0.040498
   128  H    0.017726
   129  H    0.039850
   130  H    0.042838
   131  H    0.036630
   132  H    0.031788
   133  H    0.048028
   134  H    0.038514
   135  H    0.037333
   136  H    0.044129
   137  H    0.065937
   138  H    0.040895
   139  H    0.086410
   140  H    0.045249
   141  H    0.050825
   142  H    0.043785
   143  H    0.017540
   144  H    0.041939
   145  H    0.045917
   146  H    0.042530
   147  H    0.037398
   148  H    0.027783
   149  H    0.050431
   150  H    0.034816
   151  H    0.039864
   152  H    0.025455
   153  H    0.053072
   154  H    0.055810
   155  H    0.073318
   156  H    0.049822
   157  H    0.060896
   158  H    0.024155
 Sum of Mulliken charges =  -0.00000

 Dipole moment (field-independent basis, Debye):
    X=              5.7787    Y=             -0.6495    Z=              4.2426  Tot=              7.1983
 Quadrupole moment (field-independent basis, Debye-Ang):
   XX=           -190.5854   YY=           -486.3384   ZZ=           -502.0520
   XY=             54.9695   XZ=            -98.3763   YZ=             37.4051

 Normal termination of Gaussian 16 at Sun Sep 19 00:34:27 2021.
