 Gaussian 16, Revision A.03,
 Gaussian 16:  ES64L-G16RevA.03 25-Dec-2016

 --------------------------------
 #p wB97XD/Def2SVP td=(nstates=5)
 --------------------------------

 --------------------------------
 TDDFT excited states in gaussian
 --------------------------------
 Symbolic Z-matrix:
 Charge =  0 Multiplicity = 1

                         Standard orientation:
 ---------------------------------------------------------------------
 Center     Atomic      Atomic             Coordinates (Angstroms)
 Number     Number       Type             X           Y           Z
 ---------------------------------------------------------------------
      1         12           0       25.634914    0.205538    0.496049
      2          6           0       24.078222   -2.098511   -1.478214
      3          6           0       24.937125    2.655797   -1.958179
      4          6           0       27.354565    2.448465    2.291965
      5          6           0       26.197563   -2.243796    2.837623
      6          7           0       24.916243    0.227124   -1.606954
      7          6           0       24.213221   -0.854935   -2.151902
      8          6           0       23.621042   -0.518844   -3.549873
      9          6           0       24.009680    0.981772   -3.622719
     10          6           0       24.734702    1.324267   -2.333778
     11          6           0       24.792516    1.578543   -4.868934
     12          6           0       22.059036   -0.758255   -3.743182
     13          6           0       21.581089   -0.353226   -5.163394
     14          1           0       21.230714   -1.551111   -6.047225
     15          7           0       26.046383    2.328098    0.212124
     16          6           0       25.462495    3.144714   -0.732303
     17          6           0       26.020625    4.472625   -0.505271
     18          6           0       26.731548    4.395762    0.735465
     19          6           0       26.726883    3.031971    1.162448
     20          6           0       25.724711    5.590663   -1.428874
     21          6           0       27.500744    5.612736    1.358279
     22          8           0       28.293221    5.512343    2.316835
     23          6           0       27.359897    6.983039    0.748425
     24          7           0       26.603135    0.116250    2.192566
     25          6           0       27.292653    1.206553    2.793885
     26          6           0       28.168548    0.731676    3.931071
     27          6           0       27.422715   -0.542937    4.321305
     28          6           0       26.637433   -0.921771    3.073694
     29          6           0       29.647532    0.463164    3.493170
     30          6           0       26.413051   -0.317757    5.468980
     31          6           0       26.910270   -0.397321    6.887405
     32          7           0       25.296721   -1.815076    0.726846
     33          6           0       25.429259   -2.654636    1.766398
     34          6           0       24.956830   -3.954456    1.390739
     35          6           0       24.396461   -3.802254    0.140281
     36          6           0       24.588135   -2.457884   -0.214513
     37          6           0       25.017133   -5.125340    2.308524
     38          6           0       23.718520   -4.493124   -0.871965
     39          8           0       23.329040   -5.642541   -0.946296
     40          6           0       23.470229   -3.388528   -2.003230
     41          6           0       24.078552   -3.884692   -3.266952
     42          8           0       25.252716   -4.039006   -3.499988
     43          8           0       23.158475   -4.018320   -4.226890
     44          6           0       23.661707   -4.467870   -5.581852
     45          1           0       24.550948    3.378686   -2.679612
     46          1           0       27.912744    3.170219    2.891663
     47          1           0       26.224440   -3.041893    3.581978
     48          1           0       24.172770   -1.082614   -4.302178
     49          1           0       23.107776    1.592323   -3.569855
     50          1           0       24.514421    2.586996   -5.176334
     51          1           0       24.830273    0.839330   -5.669280
     52          1           0       25.808335    1.716744   -4.498887
     53          1           0       21.616062   -0.192394   -2.924543
     54          1           0       21.852749   -1.814019   -3.567850
     55          1           0       22.295313    0.336386   -5.613311
     56          1           0       20.647379    0.192235   -5.029619
     57          1           0       26.646690    5.844565   -1.952282
     58          1           0       25.244322    6.357273   -0.820877
     59          1           0       24.961520    5.303407   -2.152291
     60          1           0       27.911531    7.711526    1.342661
     61          1           0       26.309184    7.230391    0.905927
     62          1           0       27.610699    7.084035   -0.307185
     63          1           0       28.197957    1.464075    4.738285
     64          1           0       28.083823   -1.366916    4.589028
     65          1           0       29.724240   -0.454853    2.911835
     66          1           0       30.298361    0.417705    4.366761
     67          1           0       29.931084    1.328488    2.895090
     68          1           0       25.538931   -0.963758    5.397660
     69          1           0       25.931108    0.651798    5.342523
     70          1           0       26.707063    0.571834    7.342083
     71          1           0       27.993027   -0.428454    6.764890
     72          1           0       26.541588   -1.255041    7.450214
     73          1           0       24.062012   -5.259238    2.814888
     74          1           0       25.861334   -5.204504    2.994165
     75          1           0       25.120217   -5.990617    1.653489
     76          1           0       22.394307   -3.267225   -2.130933
     77          1           0       24.492464   -3.812754   -5.845007
     78          1           0       22.919653   -4.360673   -6.373465
     79          1           0       23.989427   -5.503312   -5.486748
     80         12           0      -25.815015   -0.574191   -0.452159
     81          6           0      -23.800675    2.454316   -0.263675
     82          6           0      -22.956710   -2.340683    0.254364
     83          6           0      -27.724833   -3.006106    0.820945
     84          6           0      -28.509711    1.323136   -1.279866
     85          7           0      -23.647394    0.052872    0.143844
     86          6           0      -23.043507    1.359882    0.073315
     87          6           0      -21.525509    1.226783    0.224130
     88          6           0      -21.246485   -0.290400    0.011660
     89          6           0      -22.684502   -0.963983    0.122503
     90          6           0      -20.578982   -0.628389   -1.404636
     91          6           0      -20.894558    1.874445    1.421962
     92          6           0      -21.822720    2.257214    2.598862
     93          1           0      -21.397876    2.863118    3.948989
     94          7           0      -25.397336   -2.507157    0.303204
     95          6           0      -24.144176   -3.031280    0.531385
     96          6           0      -24.308524   -4.451373    0.973018
     97          6           0      -25.671704   -4.566055    1.233322
     98          6           0      -26.358840   -3.335697    0.847782
     99          6           0      -23.126623   -5.334178    1.165197
    100          6           0      -26.345757   -5.822150    1.858262
    101          8           0      -25.623551   -6.733333    2.221920
    102          6           0      -27.798718   -5.932368    2.182585
    103          7           0      -27.841261   -0.681236   -0.139288
    104          6           0      -28.378999   -1.896575    0.282832
    105          6           0      -29.904864   -1.881940    0.191131
    106          6           0      -30.179975   -0.650399   -0.745826
    107          6           0      -28.797569    0.005717   -0.765789
    108          6           0      -30.628499   -3.159573   -0.306560
    109          6           0      -31.329997    0.309178   -0.301160
    110          6           0      -32.674647    0.232903   -1.159309
    111          7           0      -26.134279    1.464571   -0.810355
    112          6           0      -27.307290    2.076243   -1.228054
    113          6           0      -27.025594    3.447885   -1.573610
    114          6           0      -25.706558    3.608385   -1.128016
    115          6           0      -25.220317    2.349457   -0.696801
    116          6           0      -28.083515    4.428650   -2.108329
    117          6           0      -24.611057    4.522488   -1.020768
    118          8           0      -24.626969    5.710626   -1.400880
    119          6           0      -23.254122    3.810052   -0.586813
    120          6           0      -22.757097    4.625039    0.539637
    121          8           0      -23.404051    4.996704    1.524432
    122          8           0      -21.424267    4.777851    0.345499
    123          6           0      -20.725714    5.732827    1.261866
    124          1           0      -22.050404   -2.898955    0.496128
    125          1           0      -28.335903   -3.815063    1.227343
    126          1           0      -29.366831    1.879106   -1.664520
    127          1           0      -21.250425    1.767666   -0.681373
    128          1           0      -20.711848   -0.745734    0.845475
    129          1           0      -19.582283   -0.972830   -1.131723
    130          1           0      -20.596371    0.260999   -2.035004
    131          1           0      -21.161097   -1.456387   -1.810748
    132          1           0      -20.315308    2.714277    1.038658
    133          1           0      -20.182811    1.102708    1.717024
    134          1           0      -22.368396    1.341025    2.826747
    135          1           0      -22.540819    3.007369    2.267046
    136          1           0      -23.052764   -5.502571    2.239179
    137          1           0      -22.252150   -4.822099    0.764870
    138          1           0      -23.257893   -6.245456    0.580669
    139          1           0      -28.207176   -5.272937    2.947416
    140          1           0      -28.059090   -6.894510    2.622732
    141          1           0      -28.229738   -5.841302    1.185673
    142          1           0      -30.098961   -1.699433    1.248703
    143          1           0      -30.360601   -1.091119   -1.726506
    144          1           0      -31.047295   -3.764133    0.498577
    145          1           0      -29.912143   -3.813116   -0.803254
    146          1           0      -31.376468   -2.846805   -1.035952
    147          1           0      -31.045108    1.360824   -0.259193
    148          1           0      -31.505203    0.040014    0.740526
    149          1           0      -33.436915    0.245334   -0.380680
    150          1           0      -32.774044   -0.656477   -1.781766
    151          1           0      -32.648161    1.069514   -1.856599
    152          1           0      -27.701882    5.217420   -2.757010
    153          1           0      -28.431505    4.876127   -1.177956
    154          1           0      -28.778832    3.909493   -2.767595
    155          1           0      -22.571903    3.789033   -1.437930
    156          1           0      -19.665045    5.761173    1.009912
    157          1           0      -20.808490    5.414356    2.301185
    158          1           0      -21.241983    6.667456    1.047249
 ---------------------------------------------------------------------

 SCF Done:  E(RwB97XD) =  -4070.60017966     A.U. after   19 cycles

 Excitation energies and oscillator strengths:

 Excited State   1:      Singlet-A      1.5970 eV  776.35 nm  f=0.3755  <S**2>=0.000
     309 -> 316       -0.16561
     311 -> 313        0.68812
     309 <- 316       -0.11235
 This state for optimization and/or second-order correction.
 Total Energy, E(TD-HF/TD-DFT) =  -4070.54149051
 Copying the excited state density for this state as the 1-particle RhoCI density.

 Excited State   2:      Singlet-A      1.6105 eV  769.84 nm  f=0.3724  <S**2>=0.000
     310 -> 315        0.16145
     312 -> 314        0.68841
     310 <- 315        0.10996

 Excited State   3:      Singlet-A      2.1950 eV  564.85 nm  f=0.1058  <S**2>=0.000
     309 -> 313        0.63718
     311 -> 316        0.28948

 Excited State   4:      Singlet-A      2.2277 eV  556.55 nm  f=0.0763  <S**2>=0.000
     310 -> 314        0.61810
     312 -> 315       -0.32527

 Excited State   5:      Singlet-A      3.2155 eV  385.58 nm  f=0.0019  <S**2>=0.000
     307 -> 313        0.67727

 The electronic state is 1-A.
 Alpha  occ. eigenvalues --  -46.95663 -46.93872 -19.30574 -19.30170 -19.24509
 Alpha  occ. eigenvalues --  -19.24359 -19.24151 -19.23718 -19.23565 -19.22103
 Alpha  occ. eigenvalues --  -14.47352 -14.47078 -14.46383 -14.46203 -14.44374
 Alpha  occ. eigenvalues --  -14.43497 -14.43454 -14.43279 -10.42972 -10.42397
 Alpha  occ. eigenvalues --  -10.39533 -10.39182 -10.39020 -10.37535 -10.36155
 Alpha  occ. eigenvalues --  -10.36086 -10.36071 -10.35875 -10.35756 -10.35420
 Alpha  occ. eigenvalues --  -10.35019 -10.34975 -10.34959 -10.34542 -10.34536
 Alpha  occ. eigenvalues --  -10.34044 -10.33558 -10.33483 -10.33272 -10.33073
 Alpha  occ. eigenvalues --  -10.33051 -10.33040 -10.32962 -10.32815 -10.32692
 Alpha  occ. eigenvalues --  -10.32669 -10.32566 -10.32458 -10.32408 -10.32288
 Alpha  occ. eigenvalues --  -10.32166 -10.31974 -10.31890 -10.31887 -10.31863
 Alpha  occ. eigenvalues --  -10.31810 -10.31694 -10.31679 -10.31562 -10.31534
 Alpha  occ. eigenvalues --  -10.31410 -10.31401 -10.31370 -10.31286 -10.31235
 Alpha  occ. eigenvalues --  -10.31174 -10.31119 -10.30831 -10.30805 -10.30743
 Alpha  occ. eigenvalues --  -10.30712 -10.30684 -10.30426 -10.30395 -10.30245
 Alpha  occ. eigenvalues --  -10.30227 -10.30105 -10.29900 -10.29877 -10.29693
 Alpha  occ. eigenvalues --  -10.29605 -10.29529 -10.29509 -10.29117 -10.28910
 Alpha  occ. eigenvalues --  -10.27953  -3.21603  -3.20057  -1.95160  -1.94747
 Alpha  occ. eigenvalues --   -1.94552  -1.93656  -1.93202  -1.93032  -1.19119
 Alpha  occ. eigenvalues --   -1.18239  -1.12962  -1.12751  -1.10471  -1.09647
 Alpha  occ. eigenvalues --   -1.09374  -1.08864  -1.07535  -1.06838  -1.06041
 Alpha  occ. eigenvalues --   -1.05949  -1.05112  -1.04935  -1.03993  -1.02361
 Alpha  occ. eigenvalues --   -0.95375  -0.93889  -0.91270  -0.90959  -0.90893
 Alpha  occ. eigenvalues --   -0.90687  -0.90567  -0.90510  -0.89890  -0.89133
 Alpha  occ. eigenvalues --   -0.88810  -0.88655  -0.88500  -0.88007  -0.86302
 Alpha  occ. eigenvalues --   -0.86300  -0.85860  -0.85607  -0.84675  -0.84437
 Alpha  occ. eigenvalues --   -0.84268  -0.83516  -0.83185  -0.82925  -0.82595
 Alpha  occ. eigenvalues --   -0.82123  -0.80359  -0.80034  -0.79666  -0.79495
 Alpha  occ. eigenvalues --   -0.79161  -0.78430  -0.78166  -0.77930  -0.77200
 Alpha  occ. eigenvalues --   -0.77152  -0.75247  -0.75010  -0.73801  -0.73696
 Alpha  occ. eigenvalues --   -0.71569  -0.71447  -0.70976  -0.70947  -0.70236
 Alpha  occ. eigenvalues --   -0.69574  -0.68929  -0.68150  -0.68068  -0.67787
 Alpha  occ. eigenvalues --   -0.67384  -0.66894  -0.66692  -0.66657  -0.66171
 Alpha  occ. eigenvalues --   -0.65525  -0.64123  -0.64121  -0.62227  -0.62040
 Alpha  occ. eigenvalues --   -0.61675  -0.61145  -0.61126  -0.61038  -0.60889
 Alpha  occ. eigenvalues --   -0.60338  -0.60014  -0.59945  -0.59535  -0.59198
 Alpha  occ. eigenvalues --   -0.58772  -0.58547  -0.58170  -0.58016  -0.57110
 Alpha  occ. eigenvalues --   -0.57036  -0.56705  -0.56537  -0.56228  -0.56190
 Alpha  occ. eigenvalues --   -0.55639  -0.55450  -0.55402  -0.55343  -0.54846
 Alpha  occ. eigenvalues --   -0.54754  -0.54666  -0.54529  -0.54255  -0.54244
 Alpha  occ. eigenvalues --   -0.53747  -0.53746  -0.53607  -0.53386  -0.53288
 Alpha  occ. eigenvalues --   -0.53154  -0.52997  -0.52589  -0.52306  -0.52192
 Alpha  occ. eigenvalues --   -0.51944  -0.51904  -0.51848  -0.51696  -0.51556
 Alpha  occ. eigenvalues --   -0.51542  -0.51192  -0.50896  -0.50848  -0.50725
 Alpha  occ. eigenvalues --   -0.50701  -0.50272  -0.50183  -0.50079  -0.49999
 Alpha  occ. eigenvalues --   -0.49707  -0.49703  -0.49571  -0.49454  -0.49129
 Alpha  occ. eigenvalues --   -0.49101  -0.48868  -0.48854  -0.48792  -0.48487
 Alpha  occ. eigenvalues --   -0.48466  -0.48424  -0.48157  -0.47969  -0.47868
 Alpha  occ. eigenvalues --   -0.47671  -0.47461  -0.47424  -0.47237  -0.47125
 Alpha  occ. eigenvalues --   -0.46901  -0.46669  -0.46339  -0.46192  -0.45943
 Alpha  occ. eigenvalues --   -0.45854  -0.45698  -0.45687  -0.45502  -0.45411
 Alpha  occ. eigenvalues --   -0.45320  -0.45288  -0.44878  -0.44823  -0.44663
 Alpha  occ. eigenvalues --   -0.44497  -0.44243  -0.44070  -0.43924  -0.43919
 Alpha  occ. eigenvalues --   -0.43737  -0.43690  -0.43553  -0.43548  -0.43116
 Alpha  occ. eigenvalues --   -0.42967  -0.42842  -0.42791  -0.42566  -0.42306
 Alpha  occ. eigenvalues --   -0.41977  -0.41833  -0.41751  -0.41257  -0.41003
 Alpha  occ. eigenvalues --   -0.40457  -0.40328  -0.40050  -0.39407  -0.39365
 Alpha  occ. eigenvalues --   -0.39247  -0.39050  -0.38681  -0.38585  -0.38575
 Alpha  occ. eigenvalues --   -0.38295  -0.37809  -0.36325  -0.36271  -0.36012
 Alpha  occ. eigenvalues --   -0.35824  -0.35482  -0.34932  -0.33755  -0.33696
 Alpha  occ. eigenvalues --   -0.33307  -0.33176  -0.32824  -0.32444  -0.32332
 Alpha  occ. eigenvalues --   -0.31555  -0.31260  -0.31159  -0.26555  -0.26408
 Alpha  occ. eigenvalues --   -0.22940  -0.22589
 Alpha virt. eigenvalues --   -0.07439  -0.06931   0.00120   0.00356   0.02432
 Alpha virt. eigenvalues --    0.03136   0.04458   0.04462   0.04629   0.06361
 Alpha virt. eigenvalues --    0.07069   0.07284   0.07763   0.07983   0.08373

 Mulliken charges:
               1
     1  Mg   0.971354
     2  C   -0.006044
     3  C   -0.072353
     4  C   -0.076339
     5  C   -0.099660
     6  N   -0.340853
     7  C   -0.009495
     8  C   -0.022231
     9  C   -0.153808
    10  C    0.065397
    11  C    0.013358
    12  C   -0.006076
    13  C   -0.111448
    14  H    0.047878
    15  N   -0.435304
    16  C    0.162659
    17  C   -0.218370
    18  C   -0.077953
    19  C    0.134403
    20  C    0.083541
    21  C    0.066505
    22  O   -0.256621
    23  C   -0.006519
    24  N   -0.468529
    25  C    0.098607
    26  C   -0.069427
    27  C   -0.080677
    28  C    0.140169
    29  C    0.040751
    30  C   -0.043630
    31  C   -0.003974
    32  N   -0.428093
    33  C    0.106703
    34  C   -0.178874
    35  C    0.017671
    36  C    0.137124
    37  C    0.064725
    38  C    0.098766
    39  O   -0.191670
    40  C   -0.123811
    41  C    0.249320
    42  O   -0.247071
    43  O   -0.362856
    44  C    0.139136
    45  H   -0.004172
    46  H    0.019917
    47  H   -0.001732
    48  H    0.044493
    49  H    0.034728
    50  H    0.042245
    51  H    0.043401
    52  H    0.037653
    53  H    0.035429
    54  H    0.054616
    55  H    0.050970
    56  H    0.052981
    57  H    0.065810
    58  H    0.049396
    59  H    0.025704
    60  H    0.051259
    61  H    0.045739
    62  H    0.060714
    63  H    0.028090
    64  H    0.023078
    65  H    0.041818
    66  H    0.042127
    67  H    0.041576
    68  H    0.022334
    69  H    0.020616
    70  H    0.035340
    71  H    0.017905
    72  H    0.051255
    73  H    0.062374
    74  H    0.045004
    75  H    0.051484
    76  H    0.073875
    77  H    0.057998
    78  H    0.059957
    79  H    0.069637
    80  Mg   0.954175
    81  C   -0.033136
    82  C   -0.082872
    83  C   -0.079667
    84  C   -0.083030
    85  N   -0.368416
    86  C   -0.053343
    87  C   -0.004983
    88  C   -0.142333
    89  C    0.044415
    90  C    0.037067
    91  C    0.030725
    92  C   -0.102256
    93  H    0.037272
    94  N   -0.470860
    95  C    0.144872
    96  C   -0.159824
    97  C   -0.079501
    98  C    0.169611
    99  C    0.104737
   100  C    0.036128
   101  O   -0.227557
   102  C    0.001959
   103  N   -0.386248
   104  C    0.091507
   105  C   -0.126890
   106  C   -0.015483
   107  C    0.025785
   108  C    0.031652
   109  C   -0.022291
   110  C   -0.061816
   111  N   -0.378378
   112  C    0.092545
   113  C   -0.180572
   114  C   -0.010823
   115  C    0.119039
   116  C    0.073253
   117  C    0.083869
   118  O   -0.250575
   119  C   -0.041312
   120  C    0.265184
   121  O   -0.260772
   122  O   -0.368573
   123  C    0.138620
   124  H    0.004118
   125  H   -0.041756
   126  H   -0.008983
   127  H    0.025737
   128  H    0.039994
   129  H    0.048678
   130  H    0.050465
   131  H    0.040826
   132  H    0.031470
   133  H    0.017639
   134  H    0.047118
   135  H    0.072066
   136  H    0.073574
   137  H    0.022208
   138  H    0.060971
   139  H    0.076693
   140  H    0.048906
   141  H    0.056618
   142  H    0.052216
   143  H    0.031509
   144  H    0.041514
   145  H    0.036529
   146  H    0.042394
   147  H    0.044474
   148  H    0.024549
   149  H    0.051176
   150  H    0.034955
   151  H    0.047434
   152  H    0.051613
   153  H    0.071752
   154  H    0.038764
   155  H    0.074308
   156  H    0.059690
   157  H    0.067153
   158  H    0.072722
 Sum of Mulliken charges =  -0.00000

 Dipole moment (field-independent basis, Debye):
    X=             -3.4083    Y=             -1.1527    Z=             -3.4939  Tot=              5.0152
 Quadrupole moment (field-independent basis, Debye-Ang):
   XX=           -526.8313   YY=           -568.1296   ZZ=           -483.0710
   XY=            169.8800   XZ=             28.9425   YZ=            -12.9943

 Normal termination of Gaussian 16 at Mon Sep 20 01:32:11 2021.
