 Gaussian 16, Revision A.03,
 Gaussian 16:  ES64L-G16RevA.03 25-Dec-2016

 --------------------------------
 #p wB97XD/Def2SVP td=(nstates=5)
 --------------------------------

 --------------------------------
 TDDFT excited states in gaussian
 --------------------------------
 Symbolic Z-matrix:
 Charge =  0 Multiplicity = 1

                         Standard orientation:
 ---------------------------------------------------------------------
 Center     Atomic      Atomic             Coordinates (Angstroms)
 Number     Number       Type             X           Y           Z
 ---------------------------------------------------------------------
      1         12           0       17.525840   -0.690996    0.085253
      2          6           0       15.752215    2.413387    0.349877
      3          6           0       20.425357    1.046343    0.767886
      4          6           0       19.162863   -3.384933   -0.773855
      5          6           0       14.507444   -2.152372   -0.788872
      6          7           0       18.076477    1.601637    0.246259
      7          6           0       17.140272    2.582188    0.433764
      8          6           0       17.830573    3.857996    0.986212
      9          6           0       19.360057    3.446684    1.068745
     10          6           0       19.348862    1.930558    0.652566
     11          6           0       20.394083    4.252162    0.174771
     12          6           0       17.299941    4.354886    2.357466
     13          6           0       17.050274    5.812263    2.518009
     14          1           0       17.676357    6.911375    1.577178
     15          7           0       19.573050   -1.153999   -0.015062
     16          6           0       20.633635   -0.366361    0.431912
     17          6           0       21.896763   -1.092164    0.197786
     18          6           0       21.507185   -2.442625   -0.149348
     19          6           0       20.039357   -2.376875   -0.338116
     20          6           0       23.278264   -0.539774    0.378163
     21          6           0       22.351165   -3.723464   -0.349322
     22          8           0       21.897735   -4.887374   -0.346814
     23          6           0       23.819041   -3.572976   -0.377004
     24          7           0       16.919468   -2.421729   -0.704708
     25          6           0       17.850364   -3.381047   -1.037715
     26          6           0       17.164128   -4.728548   -1.395141
     27          6           0       15.650168   -4.397946   -1.027009
     28          6           0       15.676733   -2.895319   -0.807158
     29          6           0       17.349584   -5.297062   -2.860974
     30          6           0       15.058499   -5.115058    0.176122
     31          6           0       13.908972   -6.097526   -0.131147
     32          7           0       15.499778   -0.092710    0.007916
     33          6           0       14.390516   -0.797686   -0.395426
     34          6           0       13.214009    0.081496   -0.407318
     35          6           0       13.720066    1.322250   -0.062628
     36          6           0       15.104397    1.175406    0.178121
     37          6           0       11.803825   -0.236066   -0.781277
     38          6           0       13.305286    2.658594    0.171567
     39          8           0       12.162514    3.196946    0.213661
     40          6           0       14.546349    3.401767    0.432769
     41          6           0       14.636267    4.597469   -0.476413
     42          8           0       14.833177    4.558603   -1.642753
     43          8           0       14.531063    5.718665    0.236554
     44          6           0       14.279856    6.950912   -0.430504
     45          1           0       21.390149    1.518955    0.964339
     46          1           0       19.567424   -4.361826   -1.049944
     47          1           0       13.578334   -2.603959   -1.140511
     48          1           0       17.662153    4.633563    0.238145
     49          1           0       19.705279    3.508415    2.100350
     50          1           0       19.993514    5.136434   -0.320129
     51          1           0       20.687389    3.587294   -0.638953
     52          1           0       21.283358    4.503284    0.753692
     53          1           0       17.977199    4.127199    3.181449
     54          1           0       16.340215    3.912674    2.623264
     55          1           0       17.429653    6.145369    3.484514
     56          1           0       15.970481    5.957511    2.501177
     57          1           0       23.845770   -0.678174   -0.541842
     58          1           0       23.741751   -1.130528    1.168289
     59          1           0       23.256656    0.465854    0.799372
     60          1           0       24.068909   -2.961143   -1.243851
     61          1           0       24.206519   -4.572958   -0.570424
     62          1           0       24.218007   -3.263289    0.588544
     63          1           0       17.544582   -5.447049   -0.668413
     64          1           0       15.051859   -4.662765   -1.898731
     65          1           0       17.979445   -4.627508   -3.445604
     66          1           0       16.405097   -5.541992   -3.348340
     67          1           0       17.832506   -6.269891   -2.767459
     68          1           0       14.790812   -4.495040    1.031822
     69          1           0       15.850196   -5.743051    0.583348
     70          1           0       13.043794   -6.068764    0.530926
     71          1           0       14.279194   -7.093276    0.114294
     72          1           0       13.502383   -6.042968   -1.140100
     73          1           0       11.598481   -1.306894   -0.772195
     74          1           0       11.631745    0.008833   -1.829277
     75          1           0       11.171279    0.410045   -0.172694
     76          1           0       14.482156    3.730194    1.469797
     77          1           0       13.233244    6.921811   -0.736850
     78          1           0       14.837511    7.009245   -1.365351
     79          1           0       14.400761    7.797264    0.246162
     80         12           0      -17.341811   -0.813160    0.229901
     81          6           0      -17.671606    2.391165   -1.200396
     82          6           0      -16.470756    0.778655    3.171332
     83          6           0      -16.865893   -3.849478    1.716125
     84          6           0      -17.868440   -2.225123   -2.769815
     85          7           0      -17.131007    1.369654    0.922535
     86          6           0      -17.445473    2.524541    0.216456
     87          6           0      -17.479353    3.720646    1.146483
     88          6           0      -16.739692    3.206819    2.434906
     89          6           0      -16.802012    1.720234    2.164873
     90          6           0      -15.296701    3.799522    2.679313
     91          6           0      -18.904060    4.166750    1.507534
     92          6           0      -19.104476    5.679723    1.645795
     93          1           0      -18.445989    6.407539    2.850682
     94          7           0      -16.842191   -1.456182    2.180937
     95          6           0      -16.495387   -0.611460    3.179269
     96          6           0      -16.080139   -1.384102    4.304654
     97          6           0      -16.301842   -2.775101    4.016551
     98          6           0      -16.628034   -2.735966    2.601933
     99          6           0      -15.566286   -0.747844    5.566287
    100          6           0      -16.100015   -4.036051    4.857081
    101          8           0      -16.512725   -5.153603    4.475899
    102          6           0      -15.320134   -4.033365    6.166983
    103          7           0      -17.453272   -2.735250   -0.407404
    104          6           0      -17.150089   -3.863006    0.349465
    105          6           0      -17.224428   -5.071160   -0.526697
    106          6           0      -17.614364   -4.634909   -1.984742
    107          6           0      -17.703938   -3.119360   -1.743333
    108          6           0      -15.999519   -6.028729   -0.421008
    109          6           0      -18.938271   -5.218893   -2.523618
    110          6           0      -18.746344   -6.473595   -3.397311
    111          7           0      -17.648817   -0.139836   -1.604038
    112          6           0      -17.925446   -0.811761   -2.793875
    113          6           0      -18.233439    0.128286   -3.934593
    114          6           0      -18.095051    1.372802   -3.298853
    115          6           0      -17.802911    1.172473   -1.911422
    116          6           0      -18.585270   -0.253737   -5.360800
    117          6           0      -18.181450    2.799430   -3.572052
    118          8           0      -18.398148    3.409873   -4.619644
    119          6           0      -18.022531    3.495967   -2.154312
    120          6           0      -16.921638    4.557527   -2.346433
    121          8           0      -15.902252    4.431005   -2.992983
    122          8           0      -17.362324    5.758221   -1.793114
    123          6           0      -16.387827    6.841043   -1.928375
    124          1           0      -16.277988    1.312988    4.103749
    125          1           0      -16.747853   -4.868736    2.089196
    126          1           0      -17.906336   -2.754893   -3.723580
    127          1           0      -16.938987    4.594216    0.782647
    128          1           0      -17.247003    3.434947    3.372331
    129          1           0      -14.990449    4.589692    1.993186
    130          1           0      -14.463819    3.100341    2.608725
    131          1           0      -15.237689    4.278567    3.656637
    132          1           0      -19.239134    3.708656    2.437828
    133          1           0      -19.607064    3.882231    0.724377
    134          1           0      -20.158592    5.954952    1.614239
    135          1           0      -18.739767    6.208432    0.765384
    136          1           0      -14.828070   -0.047501    5.175287
    137          1           0      -15.036473   -1.383213    6.275862
    138          1           0      -16.308300   -0.180781    6.127921
    139          1           0      -14.356891   -3.537870    6.044425
    140          1           0      -15.226421   -5.099284    6.374163
    141          1           0      -15.859511   -3.492108    6.944286
    142          1           0      -17.962583   -5.735126   -0.075808
    143          1           0      -16.838473   -4.784680   -2.736624
    144          1           0      -15.277331   -5.568517    0.253694
    145          1           0      -15.541511   -6.122301   -1.405314
    146          1           0      -16.418868   -6.945722   -0.005690
    147          1           0      -19.484840   -4.400878   -2.992366
    148          1           0      -19.546045   -5.616403   -1.710491
    149          1           0      -17.804059   -6.959317   -3.143028
    150          1           0      -18.645563   -6.310914   -4.470542
    151          1           0      -19.545988   -7.174687   -3.156438
    152          1           0      -19.597688   -0.657661   -5.344471
    153          1           0      -17.956929   -1.021460   -5.811907
    154          1           0      -18.546384    0.674361   -5.930861
    155          1           0      -18.916590    3.981943   -1.764143
    156          1           0      -15.678059    6.923577   -1.104707
    157          1           0      -17.006188    7.733685   -2.021784
    158          1           0      -15.707150    6.840775   -2.779699
 ---------------------------------------------------------------------

 SCF Done:  E(RwB97XD) =  -4070.63397005     A.U. after   19 cycles

 Excitation energies and oscillator strengths:

 Excited State   1:      Singlet-A      1.6477 eV  752.48 nm  f=0.3771  <S**2>=0.000
     310 -> 315       -0.19179
     312 -> 314        0.68138
     310 <- 315       -0.11858
 This state for optimization and/or second-order correction.
 Total Energy, E(TD-HF/TD-DFT) =  -4070.57341951
 Copying the excited state density for this state as the 1-particle RhoCI density.

 Excited State   2:      Singlet-A      1.6708 eV  742.06 nm  f=0.4171  <S**2>=0.000
     309 -> 316        0.18114
     311 -> 313        0.68451
     309 <- 316        0.11412

 Excited State   3:      Singlet-A      2.1576 eV  574.65 nm  f=0.1229  <S**2>=0.000
     309 -> 313        0.64760
     311 -> 316       -0.26956

 Excited State   4:      Singlet-A      2.1799 eV  568.77 nm  f=0.0989  <S**2>=0.000
     310 -> 314        0.63412
     312 -> 315        0.30020

 Excited State   5:      Singlet-A      3.4330 eV  361.16 nm  f=0.1147  <S**2>=0.000
     305 -> 314        0.16688
     307 -> 314        0.56558
     310 -> 314        0.11147
     312 -> 315       -0.34356

 The electronic state is 1-A.
 Alpha  occ. eigenvalues --  -46.95259 -46.93970 -19.30959 -19.30253 -19.25314
 Alpha  occ. eigenvalues --  -19.24620 -19.24250 -19.24198 -19.24114 -19.23524
 Alpha  occ. eigenvalues --  -14.47269 -14.46662 -14.46228 -14.45859 -14.44471
 Alpha  occ. eigenvalues --  -14.44341 -14.44111 -14.44081 -10.43514 -10.42921
 Alpha  occ. eigenvalues --  -10.39843 -10.39075 -10.38874 -10.38803 -10.35785
 Alpha  occ. eigenvalues --  -10.35433 -10.35262 -10.35199 -10.35085 -10.34944
 Alpha  occ. eigenvalues --  -10.34883 -10.34813 -10.34776 -10.34684 -10.34296
 Alpha  occ. eigenvalues --  -10.34262 -10.34128 -10.33666 -10.33636 -10.33481
 Alpha  occ. eigenvalues --  -10.33390 -10.33173 -10.33061 -10.33002 -10.32901
 Alpha  occ. eigenvalues --  -10.32867 -10.32817 -10.32814 -10.32677 -10.32567
 Alpha  occ. eigenvalues --  -10.32557 -10.32415 -10.32372 -10.32315 -10.32308
 Alpha  occ. eigenvalues --  -10.32177 -10.31880 -10.31669 -10.31614 -10.31570
 Alpha  occ. eigenvalues --  -10.31284 -10.31258 -10.31208 -10.31145 -10.31085
 Alpha  occ. eigenvalues --  -10.31003 -10.30871 -10.30798 -10.30730 -10.30456
 Alpha  occ. eigenvalues --  -10.30428 -10.30300 -10.30241 -10.30228 -10.30158
 Alpha  occ. eigenvalues --  -10.30015 -10.29956 -10.29764 -10.29741 -10.29699
 Alpha  occ. eigenvalues --  -10.29509 -10.29399 -10.29355 -10.29324 -10.29286
 Alpha  occ. eigenvalues --  -10.29165  -3.21279  -3.20164  -1.94851  -1.94414
 Alpha  occ. eigenvalues --   -1.94248  -1.93759  -1.93270  -1.93182  -1.20841
 Alpha  occ. eigenvalues --   -1.18437  -1.11941  -1.11427  -1.11148  -1.10461
 Alpha  occ. eigenvalues --   -1.10389  -1.10354  -1.06922  -1.06705  -1.05815
 Alpha  occ. eigenvalues --   -1.05725  -1.05056  -1.04519  -1.03781  -1.03428
 Alpha  occ. eigenvalues --   -0.95650  -0.94520  -0.91275  -0.91043  -0.90898
 Alpha  occ. eigenvalues --   -0.90419  -0.90253  -0.90193  -0.89749  -0.89381
 Alpha  occ. eigenvalues --   -0.88970  -0.88777  -0.88218  -0.88065  -0.86532
 Alpha  occ. eigenvalues --   -0.86305  -0.85417  -0.85409  -0.84527  -0.84196
 Alpha  occ. eigenvalues --   -0.83972  -0.83664  -0.83651  -0.82898  -0.82486
 Alpha  occ. eigenvalues --   -0.82026  -0.80414  -0.80257  -0.79676  -0.79366
 Alpha  occ. eigenvalues --   -0.79177  -0.79101  -0.78285  -0.78067  -0.77128
 Alpha  occ. eigenvalues --   -0.76984  -0.75202  -0.74655  -0.73614  -0.73482
 Alpha  occ. eigenvalues --   -0.71394  -0.71332  -0.70945  -0.70719  -0.70142
 Alpha  occ. eigenvalues --   -0.69447  -0.69308  -0.68219  -0.67859  -0.67702
 Alpha  occ. eigenvalues --   -0.67427  -0.66879  -0.66835  -0.66477  -0.66469
 Alpha  occ. eigenvalues --   -0.66143  -0.65043  -0.64533  -0.62344  -0.62322
 Alpha  occ. eigenvalues --   -0.62132  -0.61894  -0.61315  -0.61150  -0.60921
 Alpha  occ. eigenvalues --   -0.60458  -0.60202  -0.59746  -0.59682  -0.59478
 Alpha  occ. eigenvalues --   -0.58443  -0.58097  -0.58017  -0.57441  -0.57142
 Alpha  occ. eigenvalues --   -0.57064  -0.56906  -0.56516  -0.55735  -0.55712
 Alpha  occ. eigenvalues --   -0.55409  -0.55345  -0.55237  -0.55069  -0.54930
 Alpha  occ. eigenvalues --   -0.54804  -0.54679  -0.54493  -0.54364  -0.54099
 Alpha  occ. eigenvalues --   -0.53759  -0.53679  -0.53654  -0.53509  -0.53426
 Alpha  occ. eigenvalues --   -0.53146  -0.53045  -0.52374  -0.52179  -0.52037
 Alpha  occ. eigenvalues --   -0.51980  -0.51957  -0.51800  -0.51707  -0.51272
 Alpha  occ. eigenvalues --   -0.51250  -0.51017  -0.50995  -0.50831  -0.50705
 Alpha  occ. eigenvalues --   -0.50548  -0.50384  -0.50220  -0.50173  -0.50155
 Alpha  occ. eigenvalues --   -0.49986  -0.49625  -0.49563  -0.49346  -0.49308
 Alpha  occ. eigenvalues --   -0.48870  -0.48755  -0.48712  -0.48575  -0.48435
 Alpha  occ. eigenvalues --   -0.48195  -0.48176  -0.48081  -0.47993  -0.47814
 Alpha  occ. eigenvalues --   -0.47762  -0.47434  -0.47194  -0.46819  -0.46759
 Alpha  occ. eigenvalues --   -0.46568  -0.46511  -0.46442  -0.46431  -0.46277
 Alpha  occ. eigenvalues --   -0.46243  -0.45634  -0.45501  -0.45369  -0.45355
 Alpha  occ. eigenvalues --   -0.45120  -0.44941  -0.44909  -0.44616  -0.44597
 Alpha  occ. eigenvalues --   -0.44527  -0.44282  -0.44144  -0.43843  -0.43840
 Alpha  occ. eigenvalues --   -0.43715  -0.43558  -0.43505  -0.43414  -0.43142
 Alpha  occ. eigenvalues --   -0.43095  -0.42957  -0.42899  -0.42383  -0.42188
 Alpha  occ. eigenvalues --   -0.42143  -0.42003  -0.41584  -0.41579  -0.41038
 Alpha  occ. eigenvalues --   -0.40585  -0.40221  -0.40090  -0.39853  -0.39843
 Alpha  occ. eigenvalues --   -0.39275  -0.39104  -0.38830  -0.38700  -0.38579
 Alpha  occ. eigenvalues --   -0.38264  -0.37770  -0.37133  -0.36936  -0.36676
 Alpha  occ. eigenvalues --   -0.36127  -0.35167  -0.35078  -0.33727  -0.33576
 Alpha  occ. eigenvalues --   -0.33489  -0.33139  -0.32921  -0.32872  -0.32664
 Alpha  occ. eigenvalues --   -0.32611  -0.32189  -0.31600  -0.26053  -0.25856
 Alpha  occ. eigenvalues --   -0.23121  -0.22870
 Alpha virt. eigenvalues --   -0.07292  -0.06900   0.00154   0.00442   0.01841
 Alpha virt. eigenvalues --    0.02061   0.03866   0.04114   0.05393   0.06797
 Alpha virt. eigenvalues --    0.07132   0.07439   0.07805   0.08343   0.08346

 Mulliken charges:
               1
     1  Mg   0.968628
     2  C   -0.020831
     3  C   -0.037287
     4  C   -0.069037
     5  C   -0.100307
     6  N   -0.318804
     7  C   -0.004815
     8  C   -0.025512
     9  C   -0.108489
    10  C    0.038781
    11  C    0.011084
    12  C    0.007110
    13  C   -0.131922
    14  H    0.014364
    15  N   -0.444995
    16  C    0.109589
    17  C   -0.188417
    18  C   -0.082243
    19  C    0.150671
    20  C    0.090948
    21  C    0.056732
    22  O   -0.260072
    23  C   -0.010047
    24  N   -0.429086
    25  C    0.096512
    26  C   -0.123046
    27  C   -0.081910
    28  C    0.106344
    29  C    0.027996
    30  C    0.012432
    31  C   -0.064924
    32  N   -0.411606
    33  C    0.113882
    34  C   -0.170862
    35  C   -0.051511
    36  C    0.143866
    37  C    0.088556
    38  C    0.114959
    39  O   -0.251377
    40  C   -0.028917
    41  C    0.225596
    42  O   -0.205758
    43  O   -0.332390
    44  C    0.138709
    45  H   -0.013854
    46  H    0.020132
    47  H   -0.001493
    48  H    0.046116
    49  H    0.041895
    50  H    0.041073
    51  H    0.040381
    52  H    0.039974
    53  H    0.033313
    54  H    0.031208
    55  H    0.045732
    56  H    0.057628
    57  H    0.058263
    58  H    0.041347
    59  H    0.035352
    60  H    0.054123
    61  H    0.046920
    62  H    0.066191
    63  H    0.046332
    64  H    0.023318
    65  H    0.051636
    66  H    0.034860
    67  H    0.038263
    68  H    0.040902
    69  H    0.022548
    70  H    0.029620
    71  H    0.032290
    72  H    0.037123
    73  H    0.030952
    74  H    0.058280
    75  H    0.072536
    76  H    0.069242
    77  H    0.047677
    78  H    0.056391
    79  H    0.061138
    80  Mg   1.001489
    81  C   -0.064910
    82  C   -0.110784
    83  C   -0.083540
    84  C   -0.100748
    85  N   -0.307705
    86  C    0.022545
    87  C   -0.031880
    88  C   -0.097676
    89  C    0.019013
    90  C    0.007922
    91  C    0.023203
    92  C   -0.123389
    93  H    0.017008
    94  N   -0.428002
    95  C    0.224034
    96  C   -0.180415
    97  C   -0.042865
    98  C    0.127641
    99  C    0.061843
   100  C    0.049250
   101  O   -0.257609
   102  C   -0.023848
   103  N   -0.456707
   104  C    0.108916
   105  C   -0.100391
   106  C   -0.055388
   107  C    0.059347
   108  C    0.015940
   109  C    0.000278
   110  C   -0.055624
   111  N   -0.483262
   112  C    0.140298
   113  C   -0.167130
   114  C   -0.071788
   115  C    0.182738
   116  C    0.080897
   117  C    0.161319
   118  O   -0.208542
   119  C   -0.105884
   120  C    0.266308
   121  O   -0.223733
   122  O   -0.369665
   123  C    0.126353
   124  H   -0.009037
   125  H    0.016358
   126  H   -0.010460
   127  H    0.030649
   128  H    0.039905
   129  H    0.034343
   130  H    0.041904
   131  H    0.034283
   132  H    0.040654
   133  H    0.036905
   134  H    0.048511
   135  H    0.050359
   136  H    0.046166
   137  H    0.026869
   138  H    0.058685
   139  H    0.061428
   140  H    0.063722
   141  H    0.063645
   142  H    0.042744
   143  H    0.042937
   144  H    0.043690
   145  H    0.034117
   146  H    0.043548
   147  H    0.037020
   148  H    0.028005
   149  H    0.024570
   150  H    0.041181
   151  H    0.040885
   152  H    0.050519
   153  H    0.047769
   154  H    0.066188
   155  H    0.072887
   156  H    0.043239
   157  H    0.055680
   158  H    0.065279
 Sum of Mulliken charges =  -0.00000

 Dipole moment (field-independent basis, Debye):
    X=              2.2802    Y=              0.4155    Z=              6.2850  Tot=              6.6988
 Quadrupole moment (field-independent basis, Debye-Ang):
   XX=           -460.2493   YY=           -491.9356   ZZ=           -510.6011
   XY=             34.1741   XZ=            -23.3090   YZ=             48.6777

 Normal termination of Gaussian 16 at Mon Sep 20 11:08:45 2021.
