 Gaussian 16, Revision A.03,
 Gaussian 16:  ES64L-G16RevA.03 25-Dec-2016

 --------------------------------
 #p wB97XD/Def2SVP td=(nstates=5)
 --------------------------------

 --------------------------------
 TDDFT excited states in gaussian
 --------------------------------
 Symbolic Z-matrix:
 Charge =  0 Multiplicity = 1

                         Standard orientation:
 ---------------------------------------------------------------------
 Center     Atomic      Atomic             Coordinates (Angstroms)
 Number     Number       Type             X           Y           Z
 ---------------------------------------------------------------------
      1         12           0        4.939379   -0.550461   -0.159944
      2          6           0        3.384023    2.318072   -1.355661
      3          6           0        7.878536    1.094342   -0.085857
      4          6           0        6.547360   -3.499371    0.236869
      5          6           0        2.047597   -2.394116   -1.050048
      6          7           0        5.439356    1.472530   -0.592312
      7          6           0        4.675112    2.570829   -0.921243
      8          6           0        5.570093    3.832110   -1.068448
      9          6           0        6.985748    3.187581   -1.185394
     10          6           0        6.788639    1.856807   -0.474383
     11          6           0        7.483792    2.958461   -2.655787
     12          6           0        5.214762    4.798051    0.076671
     13          6           0        5.123637    6.219141   -0.331437
     14          1           0        4.364585    7.074713    0.578483
     15          7           0        6.892346   -1.057632    0.263023
     16          6           0        7.947848   -0.204156    0.307542
     17          6           0        9.050078   -0.876368    0.948398
     18          6           0        8.647451   -2.256897    1.049212
     19          6           0        7.326244   -2.333511    0.418963
     20          6           0       10.345942   -0.219380    1.263869
     21          6           0        9.426352   -3.525545    1.527098
     22          8           0        8.920254   -4.649132    1.557141
     23          6           0       10.804629   -3.417680    2.117255
     24          7           0        4.431984   -2.657831   -0.721202
     25          6           0        5.283478   -3.713392   -0.294896
     26          6           0        4.657431   -5.064012   -0.407564
     27          6           0        3.174190   -4.611513   -0.605503
     28          6           0        3.201929   -3.091207   -0.739036
     29          6           0        5.242753   -5.950179   -1.558802
     30          6           0        2.230187   -5.026268    0.581671
     31          6           0        2.719291   -4.631552    1.998482
     32          7           0        3.049133   -0.153377   -0.921904
     33          6           0        1.957262   -0.995317   -1.183951
     34          6           0        0.915891   -0.166910   -1.665109
     35          6           0        1.433897    1.121316   -1.713866
     36          6           0        2.713828    1.065169   -1.269853
     37          6           0       -0.472095   -0.618452   -1.991082
     38          6           0        1.140856    2.415658   -2.118717
     39          8           0        0.095986    2.870470   -2.618957
     40          6           0        2.379027    3.339782   -1.914395
     41          6           0        1.861537    4.421542   -0.915614
     42          8           0        1.576546    4.223609    0.278914
     43          8           0        1.773798    5.629855   -1.598449
     44          6           0        1.064942    6.770649   -0.936131
     45          1           0        8.778288    1.703344   -0.196178
     46          1           0        6.853058   -4.525112    0.456605
     47          1           0        1.070572   -2.873319   -1.141455
     48          1           0        5.291506    4.391345   -1.960981
     49          1           0        7.693801    3.774823   -0.601416
     50          1           0        6.837292    3.338678   -3.447236
     51          1           0        7.514528    1.894583   -2.887487
     52          1           0        8.433258    3.477121   -2.786887
     53          1           0        6.062214    4.763076    0.759859
     54          1           0        4.288910    4.444451    0.531203
     55          1           0        4.578748    6.217898   -1.275612
     56          1           0        6.129848    6.585214   -0.534524
     57          1           0       10.249018    0.865998    1.281151
     58          1           0       11.114949   -0.664981    0.631967
     59          1           0       10.635237   -0.470343    2.284431
     60          1           0       11.249734   -4.397512    1.942813
     61          1           0       10.754200   -3.260448    3.194921
     62          1           0       11.410795   -2.667537    1.608418
     63          1           0        4.712211   -5.654565    0.508030
     64          1           0        2.798523   -5.043830   -1.533468
     65          1           0        5.733998   -5.303879   -2.286680
     66          1           0        4.532561   -6.556898   -2.120824
     67          1           0        5.991369   -6.685208   -1.261756
     68          1           0        2.058458   -6.096183    0.462576
     69          1           0        1.280730   -4.559236    0.320136
     70          1           0        2.016199   -3.981347    2.519437
     71          1           0        3.684346   -4.140794    1.869244
     72          1           0        2.869953   -5.494363    2.646606
     73          1           0       -0.644073   -0.318335   -3.024704
     74          1           0       -1.149112   -0.148490   -1.277736
     75          1           0       -0.628952   -1.697118   -1.979719
     76          1           0        2.605478    3.818501   -2.866731
     77          1           0        0.044800    6.429852   -0.760759
     78          1           0        1.009117    7.715490   -1.476654
     79          1           0        1.687268    6.807981   -0.041986
     80         12           0       -4.951703   -0.654867    0.055489
     81          6           0       -3.024403    2.161937    0.848314
     82          6           0       -7.828601    1.404023    0.198400
     83          6           0       -6.875844   -3.420565   -0.366502
     84          6           0       -2.190770   -2.633535    0.674477
     85          7           0       -5.302823    1.518645    0.309413
     86          6           0       -4.297187    2.480169    0.444193
     87          6           0       -4.893677    3.897363    0.121039
     88          6           0       -6.396387    3.610937    0.020267
     89          6           0       -6.541003    2.064214    0.237490
     90          6           0       -7.174722    4.419405    1.093025
     91          6           0       -4.221752    4.432341   -1.137656
     92          6           0       -4.111565    5.939175   -1.303483
     93          1           0       -4.949607    6.841046   -0.369295
     94          7           0       -7.050617   -1.012640   -0.085943
     95          6           0       -8.061552   -0.039493    0.028363
     96          6           0       -9.374356   -0.652308   -0.073633
     97          6           0       -9.172820   -2.068780   -0.311579
     98          6           0       -7.656091   -2.219182   -0.241370
     99          6           0      -10.692603    0.130524   -0.125021
    100          6           0      -10.167773   -3.184296   -0.568348
    101          8           0       -9.776970   -4.326972   -0.766510
    102          6           0      -11.588948   -2.831062   -0.785717
    103          7           0       -4.532342   -2.745219    0.082105
    104          6           0       -5.485798   -3.672434   -0.212180
    105          6           0       -4.830409   -5.071649   -0.348889
    106          6           0       -3.295568   -4.824946   -0.078050
    107          6           0       -3.273732   -3.290027    0.141027
    108          6           0       -5.483544   -6.066615    0.627110
    109          6           0       -2.355314   -5.202164   -1.253526
    110          6           0       -1.696443   -6.545740   -0.956868
    111          7           0       -2.993632   -0.404166    0.748852
    112          6           0       -1.988679   -1.268636    1.029463
    113          6           0       -0.910643   -0.493993    1.690925
    114          6           0       -1.208667    0.829817    1.550703
    115          6           0       -2.518809    0.823398    1.007484
    116          6           0        0.354245   -1.166871    2.196917
    117          6           0       -0.754620    2.214550    1.735905
    118          8           0        0.289219    2.627761    2.226314
    119          6           0       -1.880809    3.080422    1.205116
    120          6           0       -2.153679    4.063611    2.265307
    121          8           0       -2.779870    3.943117    3.326957
    122          8           0       -1.500223    5.230180    1.924478
    123          6           0       -1.578337    6.320413    2.872328
    124          1           0       -8.682156    2.084203    0.170036
    125          1           0       -7.555708   -4.240380   -0.607775
    126          1           0       -1.394019   -3.333244    0.935628
    127          1           0       -4.621918    4.434850    1.030336
    128          1           0       -6.719593    4.052737   -0.922260
    129          1           0       -7.617200    3.819973    1.888816
    130          1           0       -8.088701    4.760049    0.607329
    131          1           0       -6.552481    5.175769    1.570994
    132          1           0       -4.762383    3.950129   -1.952650
    133          1           0       -3.228140    3.993110   -1.218442
    134          1           0       -4.322474    6.190001   -2.342174
    135          1           0       -3.043388    6.089326   -1.142890
    136          1           0      -10.583183    1.195335    0.081535
    137          1           0      -11.392114   -0.273387    0.608073
    138          1           0      -11.172891   -0.062875   -1.083471
    139          1           0      -11.664234   -2.246633   -1.703048
    140          1           0      -12.036738   -2.428447    0.122814
    141          1           0      -12.194487   -3.709194   -1.010224
    142          1           0       -5.045844   -5.437176   -1.352660
    143          1           0       -3.091041   -5.330173    0.866791
    144          1           0       -4.820467   -6.561826    1.335883
    145          1           0       -5.821426   -6.812762   -0.091738
    146          1           0       -6.237358   -5.631381    1.282585
    147          1           0       -1.474743   -4.559504   -1.252647
    148          1           0       -2.855412   -5.241823   -2.221405
    149          1           0       -1.818863   -7.101149   -1.886599
    150          1           0       -2.240422   -7.163576   -0.242808
    151          1           0       -0.644831   -6.499656   -0.672498
    152          1           0        0.313480   -2.255008    2.252314
    153          1           0        0.659537   -0.802572    3.177062
    154          1           0        1.132681   -1.034202    1.444733
    155          1           0       -1.529926    3.552488    0.288011
    156          1           0       -1.291895    5.928308    3.848525
    157          1           0       -2.573828    6.757620    2.952502
    158          1           0       -0.695807    6.924996    2.666003
 ---------------------------------------------------------------------

 SCF Done:  E(RwB97XD) =  -4070.62995982     A.U. after   19 cycles

 Excitation energies and oscillator strengths:

 Excited State   1:      Singlet-A      1.5507 eV  799.53 nm  f=0.8865  <S**2>=0.000
     309 -> 315        0.12106
     311 -> 313        0.54315
     312 -> 314        0.41009
 This state for optimization and/or second-order correction.
 Total Energy, E(TD-HF/TD-DFT) =  -4070.57297189
 Copying the excited state density for this state as the 1-particle RhoCI density.

 Excited State   2:      Singlet-A      1.6509 eV  751.01 nm  f=0.0348  <S**2>=0.000
     309 -> 315       -0.10709
     310 -> 316       -0.14562
     311 -> 313       -0.41433
     312 -> 314        0.54073

 Excited State   3:      Singlet-A      2.1277 eV  582.72 nm  f=0.0114  <S**2>=0.000
     309 -> 313        0.34149
     310 -> 314        0.53776
     311 -> 315       -0.13311
     312 -> 316        0.21980

 Excited State   4:      Singlet-A      2.1602 eV  573.94 nm  f=0.1886  <S**2>=0.000
     309 -> 313        0.53963
     310 -> 314       -0.34114
     311 -> 315       -0.23001
     312 -> 316       -0.15441

 Excited State   5:      Singlet-A      2.3977 eV  517.09 nm  f=0.0007  <S**2>=0.000
     312 -> 313        0.69319

 The electronic state is 1-A.
 Alpha  occ. eigenvalues --  -46.95052 -46.94517 -19.29695 -19.28975 -19.24453
 Alpha  occ. eigenvalues --  -19.24016 -19.23964 -19.23649 -19.23207 -19.22847
 Alpha  occ. eigenvalues --  -14.46417 -14.46389 -14.45985 -14.45973 -14.44379
 Alpha  occ. eigenvalues --  -14.43802 -14.43364 -14.42991 -10.43445 -10.42467
 Alpha  occ. eigenvalues --  -10.39171 -10.39147 -10.38259 -10.37715 -10.35618
 Alpha  occ. eigenvalues --  -10.35548 -10.34942 -10.34896 -10.34856 -10.34745
 Alpha  occ. eigenvalues --  -10.34433 -10.34266 -10.34201 -10.34156 -10.34137
 Alpha  occ. eigenvalues --  -10.34130 -10.33800 -10.33420 -10.33242 -10.33055
 Alpha  occ. eigenvalues --  -10.32950 -10.32460 -10.32244 -10.32242 -10.32191
 Alpha  occ. eigenvalues --  -10.32067 -10.32060 -10.31939 -10.31867 -10.31785
 Alpha  occ. eigenvalues --  -10.31644 -10.31605 -10.31598 -10.31531 -10.31471
 Alpha  occ. eigenvalues --  -10.31410 -10.31379 -10.31372 -10.31307 -10.31298
 Alpha  occ. eigenvalues --  -10.31233 -10.31149 -10.31127 -10.30845 -10.30806
 Alpha  occ. eigenvalues --  -10.30692 -10.30574 -10.30411 -10.30321 -10.30264
 Alpha  occ. eigenvalues --  -10.30133 -10.30129 -10.29943 -10.29881 -10.29877
 Alpha  occ. eigenvalues --  -10.29696 -10.29693 -10.29533 -10.29379 -10.29122
 Alpha  occ. eigenvalues --  -10.28979 -10.28954 -10.28920 -10.28912 -10.28245
 Alpha  occ. eigenvalues --  -10.27653  -3.20909  -3.20551  -1.94508  -1.94118
 Alpha  occ. eigenvalues --   -1.93988  -1.93908  -1.93681  -1.93525  -1.17231
 Alpha  occ. eigenvalues --   -1.16246  -1.12407  -1.11572  -1.11019  -1.10257
 Alpha  occ. eigenvalues --   -1.08432  -1.08337  -1.06743  -1.05904  -1.05824
 Alpha  occ. eigenvalues --   -1.05429  -1.04466  -1.04203  -1.04086  -1.03313
 Alpha  occ. eigenvalues --   -0.94592  -0.94409  -0.90915  -0.90710  -0.90531
 Alpha  occ. eigenvalues --   -0.90505  -0.90466  -0.89660  -0.89585  -0.88922
 Alpha  occ. eigenvalues --   -0.88696  -0.88377  -0.88295  -0.87073  -0.86339
 Alpha  occ. eigenvalues --   -0.85753  -0.85512  -0.85367  -0.84158  -0.84018
 Alpha  occ. eigenvalues --   -0.84000  -0.83430  -0.82763  -0.82365  -0.82194
 Alpha  occ. eigenvalues --   -0.81575  -0.80017  -0.79738  -0.78947  -0.78841
 Alpha  occ. eigenvalues --   -0.78662  -0.78210  -0.77824  -0.77445  -0.77308
 Alpha  occ. eigenvalues --   -0.76150  -0.75057  -0.74082  -0.73914  -0.72592
 Alpha  occ. eigenvalues --   -0.71733  -0.70653  -0.70518  -0.70285  -0.69413
 Alpha  occ. eigenvalues --   -0.69380  -0.68620  -0.68340  -0.67206  -0.67144
 Alpha  occ. eigenvalues --   -0.66431  -0.66344  -0.66271  -0.66228  -0.65991
 Alpha  occ. eigenvalues --   -0.65412  -0.63500  -0.63402  -0.61804  -0.61779
 Alpha  occ. eigenvalues --   -0.61591  -0.61118  -0.61000  -0.60461  -0.60340
 Alpha  occ. eigenvalues --   -0.60001  -0.59936  -0.59453  -0.59215  -0.58712
 Alpha  occ. eigenvalues --   -0.57886  -0.57516  -0.57420  -0.57216  -0.57208
 Alpha  occ. eigenvalues --   -0.56797  -0.56584  -0.56460  -0.56231  -0.55465
 Alpha  occ. eigenvalues --   -0.55273  -0.55240  -0.55015  -0.54826  -0.54768
 Alpha  occ. eigenvalues --   -0.54725  -0.54570  -0.54357  -0.54313  -0.54258
 Alpha  occ. eigenvalues --   -0.53899  -0.53726  -0.53451  -0.53197  -0.53142
 Alpha  occ. eigenvalues --   -0.52793  -0.52385  -0.52234  -0.52208  -0.52006
 Alpha  occ. eigenvalues --   -0.51498  -0.51344  -0.51247  -0.51078  -0.50998
 Alpha  occ. eigenvalues --   -0.50772  -0.50697  -0.50656  -0.50571  -0.50365
 Alpha  occ. eigenvalues --   -0.50241  -0.49966  -0.49920  -0.49876  -0.49755
 Alpha  occ. eigenvalues --   -0.49567  -0.49309  -0.49217  -0.49114  -0.48805
 Alpha  occ. eigenvalues --   -0.48755  -0.48378  -0.48103  -0.48059  -0.47746
 Alpha  occ. eigenvalues --   -0.47703  -0.47612  -0.47464  -0.47447  -0.47225
 Alpha  occ. eigenvalues --   -0.46749  -0.46422  -0.46378  -0.46282  -0.46272
 Alpha  occ. eigenvalues --   -0.46095  -0.46026  -0.45774  -0.45618  -0.45526
 Alpha  occ. eigenvalues --   -0.45328  -0.45219  -0.45114  -0.44999  -0.44896
 Alpha  occ. eigenvalues --   -0.44876  -0.44734  -0.44557  -0.44504  -0.44323
 Alpha  occ. eigenvalues --   -0.44260  -0.43977  -0.43770  -0.43703  -0.43693
 Alpha  occ. eigenvalues --   -0.43651  -0.43437  -0.43211  -0.42952  -0.42798
 Alpha  occ. eigenvalues --   -0.42740  -0.42404  -0.42298  -0.42080  -0.41937
 Alpha  occ. eigenvalues --   -0.41673  -0.41269  -0.40859  -0.40401  -0.40163
 Alpha  occ. eigenvalues --   -0.40133  -0.39853  -0.39771  -0.39405  -0.39189
 Alpha  occ. eigenvalues --   -0.39117  -0.38737  -0.38408  -0.38188  -0.37729
 Alpha  occ. eigenvalues --   -0.37625  -0.37414  -0.35993  -0.35764  -0.35681
 Alpha  occ. eigenvalues --   -0.35493  -0.35237  -0.34459  -0.33409  -0.33242
 Alpha  occ. eigenvalues --   -0.33057  -0.32644  -0.32347  -0.32093  -0.32035
 Alpha  occ. eigenvalues --   -0.31905  -0.31477  -0.31417  -0.26027  -0.25311
 Alpha  occ. eigenvalues --   -0.22886  -0.22369
 Alpha virt. eigenvalues --   -0.07261  -0.06606   0.00521   0.00800   0.02630
 Alpha virt. eigenvalues --    0.02914   0.04362   0.04719   0.05695   0.06034
 Alpha virt. eigenvalues --    0.07402   0.07550   0.08025   0.08254   0.08649

 Mulliken charges:
               1
     1  Mg   0.956329
     2  C   -0.060990
     3  C   -0.118388
     4  C   -0.021436
     5  C   -0.098736
     6  N   -0.407348
     7  C    0.022117
     8  C   -0.102748
     9  C   -0.088038
    10  C    0.035138
    11  C    0.035025
    12  C    0.038362
    13  C   -0.123145
    14  H    0.052637
    15  N   -0.463231
    16  C    0.229405
    17  C   -0.175122
    18  C   -0.078262
    19  C    0.188555
    20  C    0.069124
    21  C    0.055827
    22  O   -0.248838
    23  C   -0.006223
    24  N   -0.316411
    25  C   -0.056785
    26  C   -0.058219
    27  C   -0.098536
    28  C    0.115955
    29  C    0.018426
    30  C   -0.033368
    31  C   -0.049169
    32  N   -0.436249
    33  C    0.098070
    34  C   -0.193480
    35  C    0.055879
    36  C    0.203633
    37  C    0.106796
    38  C    0.011998
    39  O   -0.252768
    40  C   -0.027473
    41  C    0.274782
    42  O   -0.241893
    43  O   -0.392090
    44  C    0.138905
    45  H   -0.001088
    46  H    0.018143
    47  H   -0.008833
    48  H    0.019195
    49  H    0.019542
    50  H    0.035122
    51  H    0.052668
    52  H    0.043154
    53  H    0.021657
    54  H    0.072916
    55  H    0.038871
    56  H    0.039036
    57  H    0.041473
    58  H    0.067363
    59  H    0.043380
    60  H    0.054424
    61  H    0.075343
    62  H    0.027102
    63  H    0.045737
    64  H    0.029408
    65  H    0.039916
    66  H    0.032148
    67  H    0.042851
    68  H    0.036102
    69  H    0.020620
    70  H    0.044839
    71  H    0.048283
    72  H    0.042252
    73  H    0.048883
    74  H    0.085807
    75  H    0.016167
    76  H    0.064652
    77  H    0.069752
    78  H    0.066705
    79  H    0.059476
    80  Mg   0.952062
    81  C   -0.007706
    82  C   -0.070777
    83  C   -0.063314
    84  C   -0.086628
    85  N   -0.369894
    86  C   -0.075730
    87  C   -0.019659
    88  C   -0.127509
    89  C    0.111729
    90  C    0.004697
    91  C   -0.000908
    92  C   -0.087395
    93  H    0.038138
    94  N   -0.442144
    95  C    0.154664
    96  C   -0.170672
    97  C   -0.085859
    98  C    0.094906
    99  C    0.080340
   100  C    0.058460
   101  O   -0.232376
   102  C   -0.015254
   103  N   -0.373335
   104  C    0.092560
   105  C   -0.107417
   106  C   -0.061611
   107  C    0.057996
   108  C    0.009597
   109  C    0.008958
   110  C   -0.066884
   111  N   -0.399822
   112  C    0.094840
   113  C   -0.206486
   114  C   -0.011033
   115  C    0.121861
   116  C    0.080536
   117  C    0.121819
   118  O   -0.175927
   119  C   -0.030540
   120  C    0.258979
   121  O   -0.264888
   122  O   -0.363359
   123  C    0.152006
   124  H   -0.002974
   125  H    0.021443
   126  H   -0.012232
   127  H    0.033798
   128  H    0.040996
   129  H    0.031910
   130  H    0.027247
   131  H    0.049697
   132  H    0.019504
   133  H    0.045479
   134  H    0.051289
   135  H    0.055491
   136  H    0.044602
   137  H    0.040789
   138  H    0.050091
   139  H    0.068720
   140  H    0.058122
   141  H    0.043914
   142  H    0.041540
   143  H    0.040688
   144  H    0.027254
   145  H    0.041808
   146  H    0.055574
   147  H    0.032141
   148  H    0.042055
   149  H    0.024803
   150  H    0.027932
   151  H    0.045216
   152  H    0.006432
   153  H    0.055414
   154  H    0.060555
   155  H    0.092662
   156  H    0.044520
   157  H    0.056653
   158  H    0.048769
 Sum of Mulliken charges =  -0.00000

 Dipole moment (field-independent basis, Debye):
    X=              1.2104    Y=              1.9530    Z=             -3.0693  Tot=              3.8340
 Quadrupole moment (field-independent basis, Debye-Ang):
   XX=           -436.5257   YY=           -478.9920   ZZ=           -523.9734
   XY=              1.4146   XZ=              8.6282   YZ=             -3.8134

 Normal termination of Gaussian 16 at Sun Sep 19 10:43:28 2021.
