 Gaussian 16, Revision A.03,
 Gaussian 16:  ES64L-G16RevA.03 25-Dec-2016

 --------------------------------
 #p wB97XD/Def2SVP td=(nstates=5)
 --------------------------------

 --------------------------------
 TDDFT excited states in gaussian
 --------------------------------
 Symbolic Z-matrix:
 Charge =  0 Multiplicity = 1

                         Standard orientation:
 ---------------------------------------------------------------------
 Center     Atomic      Atomic             Coordinates (Angstroms)
 Number     Number       Type             X           Y           Z
 ---------------------------------------------------------------------
      1         12           0      -25.871994    0.264919   -0.162046
      2          6           0      -22.941611   -1.375292    0.583898
      3          6           0      -27.463352   -1.132088    2.529303
      4          6           0      -28.781923    2.096932   -0.830967
      5          6           0      -24.178329    2.346091   -2.336081
      6          7           0      -25.125496   -0.941166    1.477889
      7          6           0      -23.939122   -1.677974    1.530022
      8          6           0      -23.864987   -2.530478    2.799279
      9          6           0      -25.360737   -2.511434    3.204726
     10          6           0      -26.054529   -1.384696    2.412109
     11          6           0      -26.031940   -3.899130    3.110526
     12          6           0      -22.921423   -1.923140    3.856250
     13          6           0      -21.984067   -2.918583    4.623190
     14          1           0      -21.643053   -2.553139    6.014983
     15          7           0      -27.812650    0.399091    0.685629
     16          6           0      -28.300517   -0.315689    1.725291
     17          6           0      -29.720771   -0.197110    1.867514
     18          6           0      -30.160980    0.629137    0.820450
     19          6           0      -28.881096    1.076755    0.130186
     20          6           0      -30.557491   -0.986663    2.876242
     21          6           0      -31.641969    1.046213    0.499562
     22          8           0      -32.549699    0.683227    1.290744
     23          6           0      -32.073461    1.830495   -0.813582
     24          7           0      -26.337676    2.176822   -1.188961
     25          6           0      -27.603283    2.600020   -1.425290
     26          6           0      -27.674859    3.684498   -2.469478
     27          6           0      -26.208854    3.820332   -2.934407
     28          6           0      -25.525315    2.698518   -2.148472
     29          6           0      -28.714572    3.426292   -3.609991
     30          6           0      -25.619606    5.299025   -2.747536
     31          6           0      -25.483694    6.102413   -4.046161
     32          7           0      -23.974289    0.443586   -0.821956
     33          6           0      -23.379922    1.323609   -1.753005
     34          6           0      -22.022417    0.855834   -2.062696
     35          6           0      -21.864757   -0.235023   -1.219182
     36          6           0      -23.020189   -0.338551   -0.427258
     37          6           0      -21.013347    1.399488   -3.009722
     38          6           0      -20.908257   -1.271008   -0.804053
     39          8           0      -19.844207   -1.664721   -1.309461
     40          6           0      -21.589816   -2.090760    0.363841
     41          6           0      -21.765561   -3.555166   -0.015018
     42          8           0      -22.189738   -4.012881   -1.080831
     43          8           0      -21.279659   -4.223797    1.069102
     44          6           0      -21.150117   -5.665370    0.937857
     45          1           0      -27.983566   -1.575620    3.380730
     46          1           0      -29.636816    2.673676   -1.190254
     47          1           0      -23.586506    2.959870   -3.018087
     48          1           0      -23.487059   -3.522799    2.550936
     49          1           0      -25.328768   -2.236257    4.258890
     50          1           0      -25.413988   -4.796884    3.125551
     51          1           0      -26.511845   -3.923478    2.132277
     52          1           0      -26.771987   -4.052979    3.895518
     53          1           0      -23.442886   -1.296416    4.579199
     54          1           0      -22.358249   -1.158704    3.320380
     55          1           0      -21.055757   -3.031737    4.063313
     56          1           0      -22.496702   -3.877827    4.707516
     57          1           0      -31.293795   -1.528636    2.283189
     58          1           0      -30.876930   -0.328077    3.684000
     59          1           0      -29.870922   -1.738567    3.265195
     60          1           0      -31.923523    2.887184   -0.595286
     61          1           0      -33.135044    1.626791   -0.951796
     62          1           0      -31.568269    1.335329   -1.643296
     63          1           0      -27.990559    4.603702   -1.975855
     64          1           0      -25.988469    3.485027   -3.947598
     65          1           0      -28.291690    3.633489   -4.592633
     66          1           0      -29.613789    4.032708   -3.503042
     67          1           0      -29.084919    2.405275   -3.527745
     68          1           0      -24.607286    5.296037   -2.343639
     69          1           0      -26.203273    5.841758   -2.004061
     70          1           0      -25.756271    7.142200   -3.864616
     71          1           0      -26.145730    5.687618   -4.805957
     72          1           0      -24.480298    6.089543   -4.471357
     73          1           0      -21.491822    2.203752   -3.568615
     74          1           0      -20.516354    0.582493   -3.533182
     75          1           0      -20.278022    1.918862   -2.394255
     76          1           0      -21.043786   -2.007370    1.303898
     77          1           0      -22.013861   -6.147020    0.477774
     78          1           0      -20.930631   -6.228337    1.845027
     79          1           0      -20.288590   -5.900302    0.312290
     80         12           0       26.068218    0.519115    0.136902
     81          6           0       23.174517   -1.136788   -1.110717
     82          6           0       27.964934   -2.103195   -1.024365
     83          6           0       28.629873    2.170191    1.413912
     84          6           0       23.927698    2.926020    1.731991
     85          7           0       25.611405   -1.502543   -0.920961
     86          6           0       24.356104   -1.843690   -1.390162
     87          6           0       24.538005   -3.182834   -2.183682
     88          6           0       26.119107   -3.534209   -2.123317
     89          6           0       26.585542   -2.327798   -1.302160
     90          6           0       26.484927   -4.927786   -1.571410
     91          6           0       23.886644   -3.260261   -3.626084
     92          6           0       22.883094   -4.358055   -3.828534
     93          1           0       22.903323   -5.658489   -3.069415
     94          7           0       28.132254    0.133808    0.075430
     95          6           0       28.687912   -0.996334   -0.436252
     96          6           0       30.111660   -0.779490   -0.414502
     97          6           0       30.330497    0.377372    0.364217
     98          6           0       29.002108    0.982915    0.704863
     99          6           0       31.059492   -1.830670   -1.016245
    100          6           0       31.639626    0.872454    0.900178
    101          8           0       31.700646    1.850067    1.682993
    102          6           0       32.889203    0.156160    0.543920
    103          7           0       26.189052    2.294087    1.468455
    104          6           0       27.343653    2.783657    1.759748
    105          6           0       27.363536    4.180413    2.581847
    106          6           0       25.845510    4.390987    2.688653
    107          6           0       25.284484    3.197149    1.955589
    108          6           0       28.113479    3.976545    3.949020
    109          6           0       25.275925    5.740893    2.126867
    110          6           0       25.250451    5.893913    0.587496
    111          7           0       24.051651    0.753077    0.381272
    112          6           0       23.358347    1.769622    1.079544
    113          6           0       21.921545    1.580500    0.837557
    114          6           0       21.807865    0.460600   -0.020791
    115          6           0       23.141420    0.012504   -0.308119
    116          6           0       20.783632    2.485749    1.397276
    117          6           0       20.879643   -0.292531   -0.682404
    118          8           0       19.665824   -0.266882   -0.695659
    119          6           0       21.679494   -1.351630   -1.491246
    120          6           0       21.169041   -2.661715   -1.159221
    121          8           0       21.567610   -3.356681   -0.217766
    122          8           0       20.011955   -2.919548   -1.903884
    123          6           0       19.294167   -4.156675   -1.508431
    124          1           0       28.633865   -2.962186   -1.113165
    125          1           0       29.466774    2.607959    1.962159
    126          1           0       23.232832    3.631828    2.191724
    127          1           0       23.884192   -3.807772   -1.576715
    128          1           0       26.510658   -3.560508   -3.139251
    129          1           0       27.094336   -5.478546   -2.289061
    130          1           0       25.657824   -5.565156   -1.259200
    131          1           0       27.072030   -4.707346   -0.679881
    132          1           0       24.666147   -3.350003   -4.382925
    133          1           0       23.339685   -2.324645   -3.742782
    134          1           0       23.109919   -4.803654   -4.797739
    135          1           0       21.889544   -3.915541   -3.766166
    136          1           0       30.539994   -2.517061   -1.685288
    137          1           0       31.534927   -2.396426   -0.216035
    138          1           0       31.794214   -1.246361   -1.569268
    139          1           0       32.958326    0.164651   -0.543870
    140          1           0       32.850489   -0.889257    0.852429
    141          1           0       33.744257    0.598163    1.053819
    142          1           0       27.826555    4.977325    1.999390
    143          1           0       25.522324    4.193373    3.710966
    144          1           0       27.974298    2.938765    4.251781
    145          1           0       27.628230    4.603628    4.697783
    146          1           0       29.181947    4.190845    3.983913
    147          1           0       25.736505    6.580324    2.646792
    148          1           0       24.252006    5.835352    2.487131
    149          1           0       26.044328    5.396555    0.031282
    150          1           0       25.184072    6.957371    0.355047
    151          1           0       24.287740    5.484039    0.282455
    152          1           0       20.076638    2.807696    0.632609
    153          1           0       21.152148    3.356220    1.938853
    154          1           0       20.084019    1.866195    1.958907
    155          1           0       21.422926   -1.081134   -2.514977
    156          1           0       18.841399   -4.038951   -0.524260
    157          1           0       19.928161   -5.038366   -1.422078
    158          1           0       18.646492   -4.414931   -2.346415
 ---------------------------------------------------------------------

 SCF Done:  E(RwB97XD) =  -4070.62658631     A.U. after   19 cycles

 Excitation energies and oscillator strengths:

 Excited State   1:      Singlet-A      1.6649 eV  744.70 nm  f=0.3687  <S**2>=0.000
     309 -> 315       -0.17866
     312 -> 313        0.68380
     309 <- 315       -0.11336
 This state for optimization and/or second-order correction.
 Total Energy, E(TD-HF/TD-DFT) =  -4070.56540286
 Copying the excited state density for this state as the 1-particle RhoCI density.

 Excited State   2:      Singlet-A      1.7177 eV  721.80 nm  f=0.3684  <S**2>=0.000
     310 -> 316        0.19150
     311 -> 314        0.67994
     310 <- 316        0.11531

 Excited State   3:      Singlet-A      2.1591 eV  574.24 nm  f=0.1064  <S**2>=0.000
     310 -> 314        0.63946
     311 -> 316       -0.28263

 Excited State   4:      Singlet-A      2.1965 eV  564.47 nm  f=0.0913  <S**2>=0.000
     309 -> 313        0.62316
     312 -> 315        0.31717

 Excited State   5:      Singlet-A      3.4371 eV  360.72 nm  f=0.1120  <S**2>=0.000
     299 -> 318        0.10345
     301 -> 313       -0.23244
     301 -> 315       -0.10667
     301 -> 318       -0.21889
     301 -> 319       -0.12482
     303 -> 313        0.44657
     303 -> 318        0.16172
     309 -> 313        0.11452
     312 -> 315       -0.29205

 The electronic state is 1-A.
 Alpha  occ. eigenvalues --  -46.96140 -46.95508 -19.31554 -19.29420 -19.25187
 Alpha  occ. eigenvalues --  -19.24777 -19.24155 -19.23867 -19.23451 -19.22481
 Alpha  occ. eigenvalues --  -14.47251 -14.47009 -14.46743 -14.46442 -14.44853
 Alpha  occ. eigenvalues --  -14.44366 -14.44224 -14.43652 -10.43785 -10.42385
 Alpha  occ. eigenvalues --  -10.40747 -10.39079 -10.38733 -10.37189 -10.36305
 Alpha  occ. eigenvalues --  -10.35975 -10.35798 -10.35760 -10.35724 -10.35575
 Alpha  occ. eigenvalues --  -10.35221 -10.35094 -10.35091 -10.35042 -10.34505
 Alpha  occ. eigenvalues --  -10.34474 -10.34413 -10.34137 -10.33785 -10.33621
 Alpha  occ. eigenvalues --  -10.33592 -10.32873 -10.32745 -10.32701 -10.32692
 Alpha  occ. eigenvalues --  -10.32538 -10.32425 -10.32382 -10.32184 -10.32170
 Alpha  occ. eigenvalues --  -10.32118 -10.32113 -10.32095 -10.32051 -10.32046
 Alpha  occ. eigenvalues --  -10.31977 -10.31959 -10.31957 -10.31891 -10.31768
 Alpha  occ. eigenvalues --  -10.31751 -10.31693 -10.31662 -10.31455 -10.31420
 Alpha  occ. eigenvalues --  -10.31392 -10.31374 -10.31176 -10.31141 -10.31138
 Alpha  occ. eigenvalues --  -10.30982 -10.30817 -10.30616 -10.30497 -10.30491
 Alpha  occ. eigenvalues --  -10.30254 -10.30246 -10.30204 -10.29919 -10.29860
 Alpha  occ. eigenvalues --  -10.29784 -10.29771 -10.29663 -10.29542 -10.28548
 Alpha  occ. eigenvalues --  -10.27816  -3.21944  -3.21485  -1.95543  -1.95098
 Alpha  occ. eigenvalues --   -1.95040  -1.94865  -1.94594  -1.94482  -1.18995
 Alpha  occ. eigenvalues --   -1.16430  -1.11386  -1.10892  -1.10722  -1.10522
 Alpha  occ. eigenvalues --   -1.09927  -1.08430  -1.08113  -1.06655  -1.06009
 Alpha  occ. eigenvalues --   -1.05759  -1.05572  -1.05056  -1.04152  -1.03659
 Alpha  occ. eigenvalues --   -0.94201  -0.93339  -0.91583  -0.90797  -0.90699
 Alpha  occ. eigenvalues --   -0.90546  -0.90259  -0.89652  -0.89218  -0.89168
 Alpha  occ. eigenvalues --   -0.88941  -0.88689  -0.88372  -0.87390  -0.86217
 Alpha  occ. eigenvalues --   -0.86206  -0.85752  -0.85209  -0.84422  -0.84388
 Alpha  occ. eigenvalues --   -0.84179  -0.83556  -0.83068  -0.82580  -0.82118
 Alpha  occ. eigenvalues --   -0.82013  -0.80317  -0.79848  -0.79452  -0.79416
 Alpha  occ. eigenvalues --   -0.78673  -0.78327  -0.77789  -0.77597  -0.77225
 Alpha  occ. eigenvalues --   -0.76926  -0.74675  -0.74478  -0.73699  -0.73522
 Alpha  occ. eigenvalues --   -0.72339  -0.71104  -0.71007  -0.70897  -0.69813
 Alpha  occ. eigenvalues --   -0.69793  -0.69265  -0.68919  -0.68029  -0.67232
 Alpha  occ. eigenvalues --   -0.67055  -0.66955  -0.66871  -0.66569  -0.66551
 Alpha  occ. eigenvalues --   -0.66195  -0.64645  -0.63364  -0.62255  -0.61893
 Alpha  occ. eigenvalues --   -0.61591  -0.61468  -0.60924  -0.60589  -0.60583
 Alpha  occ. eigenvalues --   -0.60078  -0.59854  -0.59677  -0.59498  -0.59199
 Alpha  occ. eigenvalues --   -0.58200  -0.57976  -0.57971  -0.57710  -0.57217
 Alpha  occ. eigenvalues --   -0.57184  -0.56942  -0.56890  -0.55697  -0.55462
 Alpha  occ. eigenvalues --   -0.55305  -0.55205  -0.55090  -0.54917  -0.54774
 Alpha  occ. eigenvalues --   -0.54750  -0.54521  -0.54473  -0.53956  -0.53894
 Alpha  occ. eigenvalues --   -0.53511  -0.53447  -0.53270  -0.53209  -0.53153
 Alpha  occ. eigenvalues --   -0.53021  -0.52763  -0.52698  -0.52434  -0.51845
 Alpha  occ. eigenvalues --   -0.51725  -0.51457  -0.51360  -0.51223  -0.51172
 Alpha  occ. eigenvalues --   -0.51113  -0.51005  -0.50936  -0.50766  -0.50498
 Alpha  occ. eigenvalues --   -0.50411  -0.50227  -0.50068  -0.49948  -0.49860
 Alpha  occ. eigenvalues --   -0.49731  -0.49670  -0.49407  -0.49380  -0.49209
 Alpha  occ. eigenvalues --   -0.49100  -0.48801  -0.48631  -0.48523  -0.48493
 Alpha  occ. eigenvalues --   -0.48423  -0.48271  -0.48077  -0.47960  -0.47714
 Alpha  occ. eigenvalues --   -0.47433  -0.47406  -0.47130  -0.46814  -0.46716
 Alpha  occ. eigenvalues --   -0.46469  -0.46332  -0.46099  -0.46055  -0.45713
 Alpha  occ. eigenvalues --   -0.45683  -0.45641  -0.45637  -0.45437  -0.45380
 Alpha  occ. eigenvalues --   -0.45187  -0.45116  -0.44914  -0.44653  -0.44494
 Alpha  occ. eigenvalues --   -0.44360  -0.44354  -0.44247  -0.44079  -0.43875
 Alpha  occ. eigenvalues --   -0.43765  -0.43716  -0.43533  -0.43471  -0.43363
 Alpha  occ. eigenvalues --   -0.43164  -0.43058  -0.43005  -0.42700  -0.42486
 Alpha  occ. eigenvalues --   -0.42472  -0.41972  -0.41665  -0.41592  -0.41254
 Alpha  occ. eigenvalues --   -0.40993  -0.40664  -0.40271  -0.40052  -0.39398
 Alpha  occ. eigenvalues --   -0.38896  -0.38868  -0.38632  -0.38416  -0.38369
 Alpha  occ. eigenvalues --   -0.38010  -0.37436  -0.36831  -0.36757  -0.35890
 Alpha  occ. eigenvalues --   -0.35530  -0.35292  -0.35260  -0.33729  -0.33521
 Alpha  occ. eigenvalues --   -0.33291  -0.33176  -0.32676  -0.32499  -0.32386
 Alpha  occ. eigenvalues --   -0.31923  -0.31915  -0.31639  -0.26116  -0.25721
 Alpha  occ. eigenvalues --   -0.23048  -0.22885
 Alpha virt. eigenvalues --   -0.06898  -0.06868  -0.00105   0.00148   0.02217
 Alpha virt. eigenvalues --    0.02257   0.04081   0.04451   0.04833   0.05709
 Alpha virt. eigenvalues --    0.07174   0.07250   0.07431   0.08132   0.09164

 Mulliken charges:
               1
     1  Mg   0.973325
     2  C   -0.080509
     3  C   -0.110021
     4  C   -0.086264
     5  C   -0.082933
     6  N   -0.403954
     7  C   -0.008475
     8  C   -0.052811
     9  C   -0.092025
    10  C    0.125883
    11  C    0.014007
    12  C    0.023146
    13  C   -0.127732
    14  H    0.043626
    15  N   -0.430201
    16  C    0.152987
    17  C   -0.190575
    18  C   -0.078522
    19  C    0.194582
    20  C    0.116301
    21  C    0.044417
    22  O   -0.256261
    23  C   -0.009342
    24  N   -0.324990
    25  C    0.023007
    26  C   -0.076438
    27  C   -0.052183
    28  C    0.038337
    29  C    0.010508
    30  C   -0.007608
    31  C   -0.058077
    32  N   -0.440957
    33  C    0.101404
    34  C   -0.206478
    35  C   -0.043989
    36  C    0.153188
    37  C    0.107369
    38  C    0.155600
    39  O   -0.229660
    40  C   -0.059939
    41  C    0.289172
    42  O   -0.247449
    43  O   -0.356431
    44  C    0.133474
    45  H    0.007783
    46  H   -0.019721
    47  H   -0.011090
    48  H    0.025041
    49  H    0.032688
    50  H    0.036831
    51  H    0.034825
    52  H    0.038386
    53  H    0.030654
    54  H    0.030155
    55  H    0.066494
    56  H    0.049599
    57  H    0.065606
    58  H    0.072131
    59  H    0.012143
    60  H    0.080705
    61  H    0.058274
    62  H    0.060702
    63  H    0.046725
    64  H    0.034047
    65  H    0.046863
    66  H    0.033541
    67  H    0.037720
    68  H    0.033001
    69  H    0.028770
    70  H    0.039089
    71  H    0.028598
    72  H    0.041155
    73  H    0.021212
    74  H    0.075395
    75  H    0.050540
    76  H    0.064493
    77  H    0.055232
    78  H    0.052209
    79  H    0.053695
    80  Mg   0.949204
    81  C    0.012712
    82  C   -0.090521
    83  C   -0.048235
    84  C   -0.087864
    85  N   -0.314529
    86  C   -0.013201
    87  C   -0.056063
    88  C   -0.105120
    89  C    0.077750
    90  C    0.018426
    91  C    0.000151
    92  C   -0.139667
    93  H    0.031641
    94  N   -0.486293
    95  C    0.140106
    96  C   -0.180322
    97  C   -0.072293
    98  C    0.161214
    99  C    0.072922
   100  C    0.036481
   101  O   -0.261910
   102  C    0.006524
   103  N   -0.272059
   104  C    0.015714
   105  C   -0.109998
   106  C    0.029118
   107  C   -0.039902
   108  C   -0.003654
   109  C   -0.032752
   110  C   -0.036142
   111  N   -0.476691
   112  C    0.148463
   113  C   -0.175953
   114  C    0.006764
   115  C    0.138718
   116  C    0.087111
   117  C    0.031574
   118  O   -0.201406
   119  C   -0.063211
   120  C    0.267106
   121  O   -0.263287
   122  O   -0.379029
   123  C    0.150054
   124  H    0.007870
   125  H    0.029017
   126  H   -0.009071
   127  H    0.057285
   128  H    0.044913
   129  H    0.035054
   130  H    0.051810
   131  H    0.033475
   132  H    0.031602
   133  H    0.036277
   134  H    0.048478
   135  H    0.062272
   136  H    0.047840
   137  H    0.064184
   138  H    0.046277
   139  H    0.050912
   140  H    0.050383
   141  H    0.058506
   142  H    0.052376
   143  H    0.036474
   144  H    0.045575
   145  H    0.037052
   146  H    0.064052
   147  H    0.030881
   148  H    0.025074
   149  H    0.049785
   150  H    0.041210
   151  H    0.038663
   152  H    0.043768
   153  H    0.031538
   154  H    0.051173
   155  H    0.073551
   156  H    0.064653
   157  H    0.041687
   158  H    0.053753
 Sum of Mulliken charges =  -0.00000

 Dipole moment (field-independent basis, Debye):
    X=              2.0940    Y=              1.4816    Z=             -1.7652  Tot=              3.1139
 Quadrupole moment (field-independent basis, Debye-Ang):
   XX=           -235.5763   YY=           -454.0905   ZZ=           -491.9847
   XY=            -53.7846   XZ=            -42.6995   YZ=            -11.6307

 Normal termination of Gaussian 16 at Mon Sep 20 16:51:59 2021.
