 Gaussian 16, Revision A.03,
 Gaussian 16:  ES64L-G16RevA.03 25-Dec-2016

 --------------------------------
 #p wB97XD/Def2SVP td=(nstates=5)
 --------------------------------

 --------------------------------
 TDDFT excited states in gaussian
 --------------------------------
 Symbolic Z-matrix:
 Charge =  0 Multiplicity = 1

                         Standard orientation:
 ---------------------------------------------------------------------
 Center     Atomic      Atomic             Coordinates (Angstroms)
 Number     Number       Type             X           Y           Z
 ---------------------------------------------------------------------
      1         12           0       23.382120   -0.562399   -0.083948
      2          6           0       21.045678    1.744816    1.039518
      3          6           0       25.577892    1.927284   -0.679087
      4          6           0       25.482388   -2.862597   -1.309853
      5          6           0       20.977436   -3.058298    0.416012
      6          7           0       23.254798    1.601327    0.211955
      7          6           0       22.291311    2.311127    0.748733
      8          6           0       22.786737    3.829256    0.806237
      9          6           0       23.731701    3.789801   -0.376110
     10          6           0       24.284170    2.332511   -0.274087
     11          6           0       22.977977    4.144354   -1.676073
     12          6           0       23.294768    4.198381    2.266000
     13          6           0       23.338441    5.700002    2.565329
     14          1           0       23.139838    6.680366    1.422250
     15          7           0       25.306021   -0.505611   -0.707592
     16          6           0       26.080912    0.647462   -0.808099
     17          6           0       27.485234    0.222182   -1.087694
     18          6           0       27.464858   -1.214145   -1.346675
     19          6           0       26.019446   -1.527157   -1.190989
     20          6           0       28.639249    1.195043   -1.142631
     21          6           0       28.642582   -2.247172   -1.663044
     22          8           0       28.472080   -3.464815   -1.786167
     23          6           0       30.034214   -1.664098   -1.793415
     24          7           0       23.220065   -2.583271   -0.498276
     25          6           0       24.203326   -3.317279   -1.012253
     26          6           0       23.771099   -4.787213   -1.305140
     27          6           0       22.450881   -4.839051   -0.522916
     28          6           0       22.196879   -3.423184   -0.110497
     29          6           0       23.640260   -5.137245   -2.813798
     30          6           0       22.284831   -5.944497    0.612534
     31          6           0       22.405908   -5.496830    2.032102
     32          7           0       21.348429   -0.668665    0.387131
     33          6           0       20.532120   -1.724806    0.615422
     34          6           0       19.222393   -1.344418    1.008940
     35          6           0       19.366954    0.065203    1.204315
     36          6           0       20.654641    0.357814    0.816806
     37          6           0       17.931723   -2.092616    1.220100
     38          6           0       18.745838    1.289131    1.614948
     39          8           0       17.627196    1.538450    2.009619
     40          6           0       19.825146    2.416118    1.684675
     41          6           0       19.345236    3.600712    0.966660
     42          8           0       19.087615    3.583203   -0.227368
     43          8           0       19.037986    4.698136    1.811074
     44          6           0       18.441189    5.871326    1.153600
     45          1           0       26.233793    2.765276   -0.919478
     46          1           0       26.174869   -3.579692   -1.753892
     47          1           0       20.238815   -3.856410    0.512036
     48          1           0       21.941026    4.498305    0.653161
     49          1           0       24.609494    4.427012   -0.271632
     50          1           0       23.427463    5.100481   -1.946299
     51          1           0       21.902912    4.255326   -1.528576
     52          1           0       23.296302    3.408947   -2.414624
     53          1           0       24.302891    3.812638    2.420244
     54          1           0       22.547119    3.774287    2.936680
     55          1           0       24.301063    5.893619    3.037586
     56          1           0       22.581401    5.889906    3.325808
     57          1           0       28.501831    2.016488   -0.438535
     58          1           0       28.875640    1.631444   -2.112539
     59          1           0       29.535863    0.682334   -0.794648
     60          1           0       29.903945   -0.859779   -2.517046
     61          1           0       30.773683   -2.343479   -2.216367
     62          1           0       30.396332   -1.350308   -0.814244
     63          1           0       24.488204   -5.500499   -0.899126
     64          1           0       21.674890   -4.960526   -1.277799
     65          1           0       22.722837   -5.721550   -2.888740
     66          1           0       24.470597   -5.673574   -3.270516
     67          1           0       23.598631   -4.200087   -3.368933
     68          1           0       22.950921   -6.775886    0.381556
     69          1           0       21.263638   -6.324087    0.586883
     70          1           0       21.419986   -5.592252    2.487638
     71          1           0       22.571295   -4.430104    2.188193
     72          1           0       23.085227   -6.095026    2.639479
     73          1           0       18.009911   -3.143903    0.940770
     74          1           0       17.124833   -1.552200    0.724294
     75          1           0       17.608004   -2.222205    2.253046
     76          1           0       20.045376    2.702666    2.712677
     77          1           0       18.372209    6.763202    1.775929
     78          1           0       17.446952    5.518246    0.878518
     79          1           0       19.017136    6.012141    0.239721
     80         12           0      -23.127299   -0.769147    0.131077
     81          6           0      -22.589933    2.517827   -1.253428
     82          6           0      -22.616288    0.674906    3.285582
     83          6           0      -23.731105   -3.727546    1.420723
     84          6           0      -23.294238   -2.058956   -3.113866
     85          7           0      -22.623196    1.413044    0.879956
     86          6           0      -22.669927    2.574851    0.176202
     87          6           0      -22.707730    3.791137    1.087062
     88          6           0      -22.358139    3.189202    2.560354
     89          6           0      -22.512515    1.675288    2.235439
     90          6           0      -20.995147    3.638101    3.144250
     91          6           0      -24.078519    4.546372    1.031040
     92          6           0      -23.958244    6.042803    0.642579
     93          1           0      -24.429507    7.069996    1.825493
     94          7           0      -23.172602   -1.411015    2.024539
     95          6           0      -22.909965   -0.714425    3.252522
     96          6           0      -23.053034   -1.567786    4.455779
     97          6           0      -23.433280   -2.821662    3.874638
     98          6           0      -23.458964   -2.684823    2.408691
     99          6           0      -22.806914   -1.106896    5.893826
    100          6           0      -23.670276   -4.116772    4.553426
    101          8           0      -24.214381   -5.095841    4.054296
    102          6           0      -23.335219   -4.215285    6.054673
    103          7           0      -23.624917   -2.546542   -0.725244
    104          6           0      -23.802996   -3.660535    0.020972
    105          6           0      -23.856435   -4.916919   -0.803024
    106          6           0      -23.767436   -4.419915   -2.266949
    107          6           0      -23.606144   -2.896786   -2.061663
    108          6           0      -22.850832   -5.977835   -0.407608
    109          6           0      -25.151293   -4.761686   -3.078859
    110          6           0      -24.968252   -5.583874   -4.467661
    111          7           0      -22.712916   -0.015591   -1.813561
    112          6           0      -22.915571   -0.683113   -3.045467
    113          6           0      -22.715489    0.295459   -4.120411
    114          6           0      -22.730023    1.539792   -3.436958
    115          6           0      -22.607609    1.290948   -2.069089
    116          6           0      -22.595831    0.085162   -5.626827
    117          6           0      -22.509910    2.992824   -3.683977
    118          8           0      -22.309183    3.711754   -4.701961
    119          6           0      -22.543319    3.657100   -2.253413
    120          6           0      -21.316946    4.506800   -2.095747
    121          8           0      -20.213636    4.167125   -2.417799
    122          8           0      -21.675392    5.747876   -1.647759
    123          6           0      -20.581078    6.741304   -1.789643
    124          1           0      -22.317583    1.142963    4.225657
    125          1           0      -23.936425   -4.736092    1.786408
    126          1           0      -23.380104   -2.432272   -4.136235
    127          1           0      -21.874600    4.422457    0.778037
    128          1           0      -23.132083    3.409908    3.295964
    129          1           0      -20.314899    2.791093    3.238075
    130          1           0      -21.134671    4.111312    4.117080
    131          1           0      -20.481998    4.430715    2.599641
    132          1           0      -24.592150    4.522246    1.992484
    133          1           0      -24.750607    4.105161    0.294534
    134          1           0      -24.665640    6.342334   -0.131147
    135          1           0      -22.991599    6.341666    0.238361
    136          1           0      -22.804806   -0.031907    6.076840
    137          1           0      -21.915709   -1.514198    6.371173
    138          1           0      -23.646813   -1.508921    6.461331
    139          1           0      -22.271550   -4.042378    6.218194
    140          1           0      -23.651922   -5.164094    6.489071
    141          1           0      -23.896227   -3.436941    6.571901
    142          1           0      -24.805659   -5.412761   -0.595551
    143          1           0      -22.883350   -4.815512   -2.766077
    144          1           0      -23.298321   -6.834722    0.096725
    145          1           0      -22.102174   -5.658256    0.317201
    146          1           0      -22.321174   -6.288098   -1.308569
    147          1           0      -25.740319   -3.882955   -3.339471
    148          1           0      -25.838967   -5.370604   -2.492575
    149          1           0      -23.995484   -6.069878   -4.390124
    150          1           0      -25.014762   -4.927403   -5.337535
    151          1           0      -25.664230   -6.420115   -4.528793
    152          1           0      -22.992756    0.927610   -6.192913
    153          1           0      -23.269547   -0.729829   -5.893946
    154          1           0      -21.557464   -0.220227   -5.756596
    155          1           0      -23.381556    4.353069   -2.274483
    156          1           0      -19.703741    6.330133   -1.290692
    157          1           0      -20.921857    7.579273   -1.181746
    158          1           0      -20.249481    7.029972   -2.787009
 ---------------------------------------------------------------------

 SCF Done:  E(RwB97XD) =  -4070.60911786     A.U. after   20 cycles

 Excitation energies and oscillator strengths:

 Excited State   1:      Singlet-A      1.6155 eV  767.45 nm  f=0.3696  <S**2>=0.000
     310 -> 315        0.19317
     312 -> 313        0.68205
     310 <- 315        0.12121
 This state for optimization and/or second-order correction.
 Total Energy, E(TD-HF/TD-DFT) =  -4070.54974835
 Copying the excited state density for this state as the 1-particle RhoCI density.

 Excited State   2:      Singlet-A      1.6905 eV  733.42 nm  f=0.3922  <S**2>=0.000
     309 -> 316        0.18169
     311 -> 314        0.68421
     309 <- 316        0.11473

 Excited State   3:      Singlet-A      2.1191 eV  585.08 nm  f=0.1294  <S**2>=0.000
     310 -> 313        0.64519
     312 -> 315       -0.27989

 Excited State   4:      Singlet-A      2.1645 eV  572.82 nm  f=0.1463  <S**2>=0.000
     309 -> 314        0.65220
     311 -> 316       -0.26035

 Excited State   5:      Singlet-A      3.3518 eV  369.90 nm  f=0.0005  <S**2>=0.000
     304 -> 319       -0.10239
     305 -> 313       -0.13851
     308 -> 313        0.64948
     308 -> 318        0.12989

 The electronic state is 1-A.
 Alpha  occ. eigenvalues --  -46.94834 -46.94119 -19.30837 -19.29141 -19.25574
 Alpha  occ. eigenvalues --  -19.24634 -19.24398 -19.23987 -19.23716 -19.22912
 Alpha  occ. eigenvalues --  -14.47218 -14.46610 -14.46476 -14.46029 -14.45340
 Alpha  occ. eigenvalues --  -14.44747 -14.43800 -14.43194 -10.42716 -10.42624
 Alpha  occ. eigenvalues --  -10.41293 -10.39153 -10.39094 -10.38076 -10.35883
 Alpha  occ. eigenvalues --  -10.35659 -10.35644 -10.35597 -10.35411 -10.35268
 Alpha  occ. eigenvalues --  -10.35252 -10.35136 -10.34887 -10.34877 -10.34785
 Alpha  occ. eigenvalues --  -10.34746 -10.34645 -10.34575 -10.34450 -10.33947
 Alpha  occ. eigenvalues --  -10.33796 -10.33264 -10.33233 -10.33094 -10.32928
 Alpha  occ. eigenvalues --  -10.32889 -10.32749 -10.32683 -10.32615 -10.32501
 Alpha  occ. eigenvalues --  -10.32479 -10.32344 -10.32269 -10.32202 -10.32044
 Alpha  occ. eigenvalues --  -10.32030 -10.32019 -10.32000 -10.31838 -10.31644
 Alpha  occ. eigenvalues --  -10.31591 -10.31589 -10.31341 -10.31270 -10.31254
 Alpha  occ. eigenvalues --  -10.31164 -10.31133 -10.31083 -10.30982 -10.30779
 Alpha  occ. eigenvalues --  -10.30689 -10.30430 -10.30233 -10.30161 -10.29924
 Alpha  occ. eigenvalues --  -10.29909 -10.29852 -10.29702 -10.29636 -10.29597
 Alpha  occ. eigenvalues --  -10.29584 -10.29527 -10.29321 -10.29179 -10.28295
 Alpha  occ. eigenvalues --  -10.28169  -3.20910  -3.20284  -1.94499  -1.94033
 Alpha  occ. eigenvalues --   -1.93900  -1.93894  -1.93379  -1.93309  -1.19090
 Alpha  occ. eigenvalues --   -1.16629  -1.12766  -1.12185  -1.11774  -1.10843
 Alpha  occ. eigenvalues --   -1.09260  -1.08934  -1.07583  -1.06740  -1.06174
 Alpha  occ. eigenvalues --   -1.05953  -1.05244  -1.05233  -1.04601  -1.04037
 Alpha  occ. eigenvalues --   -0.94088  -0.93512  -0.91093  -0.90582  -0.90446
 Alpha  occ. eigenvalues --   -0.90335  -0.90214  -0.89973  -0.89330  -0.89271
 Alpha  occ. eigenvalues --   -0.89040  -0.88916  -0.88169  -0.87519  -0.86211
 Alpha  occ. eigenvalues --   -0.85914  -0.85515  -0.85030  -0.84699  -0.84518
 Alpha  occ. eigenvalues --   -0.83670  -0.83309  -0.82886  -0.82588  -0.82037
 Alpha  occ. eigenvalues --   -0.81683  -0.81056  -0.80588  -0.79145  -0.78986
 Alpha  occ. eigenvalues --   -0.78675  -0.78570  -0.77933  -0.77760  -0.77140
 Alpha  occ. eigenvalues --   -0.76998  -0.74804  -0.74520  -0.73372  -0.73156
 Alpha  occ. eigenvalues --   -0.71130  -0.71127  -0.70732  -0.70631  -0.69892
 Alpha  occ. eigenvalues --   -0.69503  -0.69075  -0.68665  -0.67800  -0.67574
 Alpha  occ. eigenvalues --   -0.67022  -0.66580  -0.66381  -0.66182  -0.65987
 Alpha  occ. eigenvalues --   -0.65961  -0.64312  -0.63246  -0.62811  -0.62690
 Alpha  occ. eigenvalues --   -0.61546  -0.61191  -0.61120  -0.60707  -0.60300
 Alpha  occ. eigenvalues --   -0.60009  -0.59952  -0.59894  -0.59570  -0.59101
 Alpha  occ. eigenvalues --   -0.58121  -0.57836  -0.57653  -0.57355  -0.57227
 Alpha  occ. eigenvalues --   -0.56916  -0.56679  -0.56432  -0.55884  -0.55690
 Alpha  occ. eigenvalues --   -0.55569  -0.55332  -0.55317  -0.54947  -0.54598
 Alpha  occ. eigenvalues --   -0.54584  -0.54490  -0.54240  -0.54110  -0.54082
 Alpha  occ. eigenvalues --   -0.53732  -0.53583  -0.53306  -0.53259  -0.53131
 Alpha  occ. eigenvalues --   -0.52744  -0.52717  -0.52695  -0.52382  -0.52224
 Alpha  occ. eigenvalues --   -0.51947  -0.51862  -0.51814  -0.51677  -0.51414
 Alpha  occ. eigenvalues --   -0.51378  -0.51131  -0.51106  -0.50984  -0.50789
 Alpha  occ. eigenvalues --   -0.50699  -0.50481  -0.50408  -0.50180  -0.50018
 Alpha  occ. eigenvalues --   -0.49913  -0.49748  -0.49508  -0.49385  -0.49309
 Alpha  occ. eigenvalues --   -0.48948  -0.48792  -0.48743  -0.48454  -0.48349
 Alpha  occ. eigenvalues --   -0.48172  -0.48100  -0.47936  -0.47844  -0.47701
 Alpha  occ. eigenvalues --   -0.47457  -0.47446  -0.46873  -0.46851  -0.46711
 Alpha  occ. eigenvalues --   -0.46648  -0.46578  -0.46309  -0.46258  -0.46000
 Alpha  occ. eigenvalues --   -0.45932  -0.45881  -0.45756  -0.45691  -0.45436
 Alpha  occ. eigenvalues --   -0.45267  -0.45241  -0.45154  -0.44930  -0.44737
 Alpha  occ. eigenvalues --   -0.44511  -0.44429  -0.44157  -0.44023  -0.43982
 Alpha  occ. eigenvalues --   -0.43740  -0.43476  -0.43302  -0.43229  -0.42955
 Alpha  occ. eigenvalues --   -0.42858  -0.42677  -0.42574  -0.42421  -0.42352
 Alpha  occ. eigenvalues --   -0.42089  -0.42038  -0.41876  -0.41276  -0.41101
 Alpha  occ. eigenvalues --   -0.40484  -0.40196  -0.40140  -0.39974  -0.39448
 Alpha  occ. eigenvalues --   -0.39415  -0.39302  -0.38639  -0.38491  -0.38125
 Alpha  occ. eigenvalues --   -0.37617  -0.37479  -0.36609  -0.36439  -0.36361
 Alpha  occ. eigenvalues --   -0.35887  -0.35436  -0.35221  -0.34202  -0.33829
 Alpha  occ. eigenvalues --   -0.33387  -0.32936  -0.32717  -0.32566  -0.32448
 Alpha  occ. eigenvalues --   -0.32155  -0.31693  -0.31471  -0.25821  -0.25788
 Alpha  occ. eigenvalues --   -0.23213  -0.23082
 Alpha virt. eigenvalues --   -0.07315  -0.07172   0.00101   0.00664   0.02003
 Alpha virt. eigenvalues --    0.02203   0.04180   0.04577   0.06595   0.06605
 Alpha virt. eigenvalues --    0.06820   0.06980   0.07753   0.07933   0.08042

 Mulliken charges:
               1
     1  Mg   0.985952
     2  C   -0.033953
     3  C   -0.089445
     4  C   -0.081589
     5  C   -0.113163
     6  N   -0.312416
     7  C   -0.022121
     8  C   -0.084784
     9  C   -0.106335
    10  C    0.035734
    11  C    0.056920
    12  C    0.017422
    13  C   -0.109403
    14  H    0.037465
    15  N   -0.477210
    16  C    0.190105
    17  C   -0.158481
    18  C   -0.108903
    19  C    0.127239
    20  C    0.049072
    21  C    0.101743
    22  O   -0.227648
    23  C   -0.029678
    24  N   -0.378974
    25  C    0.081351
    26  C   -0.097526
    27  C   -0.032519
    28  C    0.052874
    29  C    0.021160
    30  C   -0.006307
    31  C   -0.048418
    32  N   -0.374900
    33  C    0.116258
    34  C   -0.174749
    35  C   -0.023304
    36  C    0.102138
    37  C    0.084905
    38  C    0.096531
    39  O   -0.204585
    40  C   -0.019943
    41  C    0.245814
    42  O   -0.251788
    43  O   -0.402741
    44  C    0.147362
    45  H    0.004672
    46  H    0.017883
    47  H   -0.007206
    48  H    0.021266
    49  H    0.004272
    50  H    0.035526
    51  H    0.070932
    52  H    0.037019
    53  H    0.035385
    54  H    0.041288
    55  H    0.045555
    56  H    0.053088
    57  H    0.040756
    58  H    0.065841
    59  H    0.031023
    60  H    0.059276
    61  H    0.056238
    62  H    0.081384
    63  H    0.037155
    64  H    0.030712
    65  H    0.038446
    66  H    0.045379
    67  H    0.041246
    68  H    0.033872
    69  H    0.028042
    70  H    0.018037
    71  H    0.047790
    72  H    0.040824
    73  H    0.015388
    74  H    0.066029
    75  H    0.046073
    76  H    0.068294
    77  H    0.063900
    78  H    0.057325
    79  H    0.048123
    80  Mg   0.990591
    81  C   -0.017434
    82  C   -0.078497
    83  C   -0.086385
    84  C   -0.079846
    85  N   -0.298199
    86  C   -0.019993
    87  C   -0.052919
    88  C   -0.107225
    89  C    0.010936
    90  C    0.015715
    91  C    0.042944
    92  C   -0.139035
    93  H   -0.009665
    94  N   -0.512292
    95  C    0.177294
    96  C   -0.130230
    97  C   -0.071001
    98  C    0.182110
    99  C    0.070307
   100  C    0.029677
   101  O   -0.236688
   102  C   -0.016536
   103  N   -0.420753
   104  C    0.093730
   105  C   -0.078892
   106  C   -0.074204
   107  C    0.102134
   108  C    0.012647
   109  C   -0.031796
   110  C   -0.079635
   111  N   -0.424375
   112  C    0.112303
   113  C   -0.186352
   114  C   -0.110865
   115  C    0.145652
   116  C    0.092646
   117  C    0.193590
   118  O   -0.247703
   119  C   -0.086706
   120  C    0.237176
   121  O   -0.214954
   122  O   -0.372182
   123  C    0.133749
   124  H   -0.004463
   125  H    0.020941
   126  H   -0.003322
   127  H    0.041564
   128  H    0.042912
   129  H    0.048294
   130  H    0.034627
   131  H    0.041335
   132  H    0.049069
   133  H    0.046145
   134  H    0.054697
   135  H    0.060378
   136  H    0.047041
   137  H    0.062970
   138  H    0.044801
   139  H    0.052841
   140  H    0.053674
   141  H    0.038474
   142  H    0.046232
   143  H    0.048458
   144  H    0.040244
   145  H    0.042120
   146  H    0.029156
   147  H    0.043031
   148  H    0.034642
   149  H    0.027532
   150  H    0.051957
   151  H    0.040904
   152  H    0.063917
   153  H    0.026422
   154  H    0.068725
   155  H    0.067070
   156  H    0.050185
   157  H    0.052096
   158  H    0.076491
 Sum of Mulliken charges =  -0.00000

 Dipole moment (field-independent basis, Debye):
    X=              5.2775    Y=              0.4444    Z=              4.6759  Tot=              7.0649
 Quadrupole moment (field-independent basis, Debye-Ang):
   XX=           -237.9076   YY=           -479.3915   ZZ=           -502.7740
   XY=             60.2978   XZ=            -92.8798   YZ=             30.6006

 Normal termination of Gaussian 16 at Mon Sep 20 21:20:45 2021.
