 Gaussian 16, Revision A.03,
 Gaussian 16:  ES64L-G16RevA.03 25-Dec-2016

 --------------------------------
 #p wB97XD/Def2SVP td=(nstates=5)
 --------------------------------

 --------------------------------
 TDDFT excited states in gaussian
 --------------------------------
 Symbolic Z-matrix:
 Charge =  0 Multiplicity = 1

                         Standard orientation:
 ---------------------------------------------------------------------
 Center     Atomic      Atomic             Coordinates (Angstroms)
 Number     Number       Type             X           Y           Z
 ---------------------------------------------------------------------
      1         12           0      -26.911413    0.591355   -0.064645
      2          6           0      -25.440897   -2.053190    1.634866
      3          6           0      -27.909650   -1.511419   -2.505134
      4          6           0      -28.134187    3.247021   -1.694720
      5          6           0      -25.693026    2.717162    2.437046
      6          7           0      -26.683517   -1.569691   -0.316488
      7          6           0      -26.156238   -2.450201    0.500170
      8          6           0      -26.361774   -3.894607   -0.151685
      9          6           0      -26.386522   -3.470776   -1.605030
     10          6           0      -27.087735   -2.078939   -1.502973
     11          6           0      -24.956901   -3.473474   -2.188030
     12          6           0      -27.593530   -4.642143    0.518558
     13          6           0      -27.595630   -6.162418    0.331128
     14          1           0      -26.605767   -6.781566   -0.640476
     15          7           0      -28.026719    0.810683   -1.738425
     16          6           0      -28.406472   -0.225398   -2.588401
     17          6           0      -29.393877    0.330707   -3.561508
     18          6           0      -29.425199    1.778076   -3.375321
     19          6           0      -28.435584    1.961788   -2.280633
     20          6           0      -30.123125   -0.527460   -4.567975
     21          6           0      -30.299884    2.914977   -4.080055
     22          8           0      -30.265394    4.106752   -3.755451
     23          6           0      -31.224399    2.463015   -5.191185
     24          7           0      -26.820935    2.635562    0.243391
     25          6           0      -27.380973    3.533650   -0.562548
     26          6           0      -27.074806    5.002682   -0.136501
     27          6           0      -26.526702    4.762707    1.277547
     28          6           0      -26.377298    3.277354    1.380944
     29          6           0      -26.105192    5.764525   -1.082617
     30          6           0      -27.244954    5.485791    2.502330
     31          6           0      -28.138859    4.655669    3.363765
     32          7           0      -25.624647    0.457798    1.577153
     33          6           0      -25.276426    1.362410    2.522845
     34          6           0      -24.438569    0.821163    3.532788
     35          6           0      -24.469369   -0.576287    3.229000
     36          6           0      -25.197751   -0.681627    2.066121
     37          6           0      -23.665562    1.412828    4.682835
     38          6           0      -24.059512   -1.895549    3.608431
     39          8           0      -23.390276   -2.302365    4.533585
     40          6           0      -24.784246   -2.940634    2.701555
     41          6           0      -23.804025   -3.891079    2.167756
     42          8           0      -22.879306   -3.543942    1.448889
     43          8           0      -23.921085   -5.198542    2.704988
     44          6           0      -22.888008   -6.161211    2.291666
     45          1           0      -28.156322   -2.211754   -3.304452
     46          1           0      -28.507235    4.094559   -2.272163
     47          1           0      -25.288284    3.416762    3.170877
     48          1           0      -25.512833   -4.532160    0.091444
     49          1           0      -27.044802   -4.067230   -2.236207
     50          1           0      -25.007383   -4.288379   -2.910954
     51          1           0      -24.191127   -3.674797   -1.437768
     52          1           0      -24.861264   -2.542181   -2.745847
     53          1           0      -28.529650   -4.267955    0.103152
     54          1           0      -27.477842   -4.465862    1.588225
     55          1           0      -28.607005   -6.436034    0.032115
     56          1           0      -27.439701   -6.599736    1.316998
     57          1           0      -30.326840   -1.522272   -4.170162
     58          1           0      -29.655817   -0.654653   -5.543933
     59          1           0      -31.108049   -0.092955   -4.738291
     60          1           0      -30.568035    1.895117   -5.850138
     61          1           0      -31.641592    3.270725   -5.791865
     62          1           0      -32.057866    1.899319   -4.771721
     63          1           0      -27.983403    5.603568   -0.101115
     64          1           0      -25.478961    5.057676    1.232853
     65          1           0      -25.426379    6.299938   -0.418359
     66          1           0      -26.552436    6.449557   -1.801230
     67          1           0      -25.601576    5.025500   -1.705823
     68          1           0      -27.743227    6.380152    2.128063
     69          1           0      -26.485889    5.806121    3.215626
     70          1           0      -27.659420    4.567658    4.338984
     71          1           0      -28.210907    3.598536    3.105116
     72          1           0      -29.123978    5.086755    3.542446
     73          1           0      -23.706615    2.502561    4.694705
     74          1           0      -22.656883    0.998695    4.680842
     75          1           0      -24.059267    1.224132    5.681812
     76          1           0      -25.540469   -3.499268    3.252422
     77          1           0      -23.085421   -7.196544    2.568448
     78          1           0      -21.994557   -5.793256    2.796834
     79          1           0      -22.762094   -6.005075    1.220926
     80         12           0       27.017048    0.472896   -0.040759
     81          6           0       25.020551   -1.834788   -1.543987
     82          6           0       28.634955   -1.989510    1.735705
     83          6           0       28.805364    2.894762    1.507549
     84          6           0       25.021706    2.991618   -1.512630
     85          7           0       26.688467   -1.664020    0.241741
     86          6           0       26.050103   -2.390754   -0.713977
     87          6           0       26.379375   -3.844516   -0.673088
     88          6           0       27.375186   -3.857177    0.599400
     89          6           0       27.599373   -2.411550    0.900137
     90          6           0       26.765010   -4.634466    1.852212
     91          6           0       27.128858   -4.242429   -2.029105
     92          6           0       27.091365   -5.714460   -2.445436
     93          1           0       26.661315   -6.875994   -1.515170
     94          7           0       28.583781    0.502408    1.344475
     95          6           0       29.092136   -0.642678    1.979174
     96          6           0       30.119522   -0.198051    2.892128
     97          6           0       30.200022    1.207213    2.813934
     98          6           0       29.198366    1.564022    1.818650
     99          6           0       30.958468   -1.210555    3.706265
    100          6           0       31.120800    2.194729    3.704777
    101          8           0       31.227234    3.404494    3.466856
    102          6           0       31.966814    1.742821    4.883663
    103          7           0       26.943931    2.684905   -0.081442
    104          6           0       27.785049    3.410239    0.693798
    105          6           0       27.374925    4.881295    0.737662
    106          6           0       26.335196    4.968618   -0.522426
    107          6           0       26.126858    3.478677   -0.835932
    108          6           0       26.862842    5.427448    2.148372
    109          6           0       26.906158    5.622778   -1.880971
    110          6           0       26.109556    6.701036   -2.592262
    111          7           0       25.379260    0.642821   -1.325912
    112          6           0       24.679003    1.678477   -1.820757
    113          6           0       23.640547    1.178129   -2.775155
    114          6           0       23.815941   -0.224360   -2.706384
    115          6           0       24.798818   -0.464543   -1.715315
    116          6           0       22.677236    1.908824   -3.642144
    117          6           0       23.283467   -1.412654   -3.259806
    118          8           0       22.376763   -1.574841   -4.102158
    119          6           0       24.037658   -2.519870   -2.527834
    120          6           0       23.086124   -3.334491   -1.807309
    121          8           0       22.262280   -3.038869   -0.999219
    122          8           0       23.371835   -4.653801   -2.145892
    123          6           0       22.624420   -5.822399   -1.541636
    124          1           0       29.334388   -2.714925    2.155508
    125          1           0       29.319655    3.668509    2.081975
    126          1           0       24.252809    3.692665   -1.842145
    127          1           0       25.607231   -4.601727   -0.538421
    128          1           0       28.326552   -4.328768    0.353295
    129          1           0       27.476520   -5.198604    2.454763
    130          1           0       25.910402   -5.225234    1.522812
    131          1           0       26.364782   -3.870033    2.519012
    132          1           0       28.178519   -3.948856   -2.006588
    133          1           0       26.645085   -3.647091   -2.803884
    134          1           0       28.091040   -5.935817   -2.821411
    135          1           0       26.462362   -5.806979   -3.329997
    136          1           0       30.739308   -2.255114    3.485376
    137          1           0       30.782200   -0.984378    4.757349
    138          1           0       32.006887   -0.991426    3.502713
    139          1           0       32.760481    1.146990    4.434429
    140          1           0       31.479202    0.967787    5.475320
    141          1           0       32.181460    2.583544    5.543054
    142          1           0       28.248556    5.474565    0.465035
    143          1           0       25.431255    5.511275   -0.245119
    144          1           0       25.850574    5.825716    2.075197
    145          1           0       27.544154    6.190115    2.523812
    146          1           0       26.787580    4.614205    2.870619
    147          1           0       27.179379    4.862924   -2.612995
    148          1           0       27.873919    6.051523   -1.622500
    149          1           0       25.943972    6.342125   -3.607473
    150          1           0       26.603710    7.672143   -2.582637
    151          1           0       25.118134    6.780054   -2.144042
    152          1           0       22.780328    2.993748   -3.630222
    153          1           0       21.649627    1.699417   -3.343912
    154          1           0       22.813909    1.567447   -4.668050
    155          1           0       24.599809   -3.156950   -3.211256
    156          1           0       21.908305   -5.471420   -0.798291
    157          1           0       23.324746   -6.468630   -1.010770
    158          1           0       22.130041   -6.313108   -2.379982
 ---------------------------------------------------------------------

 SCF Done:  E(RwB97XD) =  -4070.61722404     A.U. after   19 cycles

 Excitation energies and oscillator strengths:

 Excited State   1:      Singlet-A      1.6817 eV  737.26 nm  f=0.3986  <S**2>=0.000
     310 -> 315       -0.19775
     312 -> 314        0.68064
     310 <- 315       -0.11935
 This state for optimization and/or second-order correction.
 Total Energy, E(TD-HF/TD-DFT) =  -4070.55542299
 Copying the excited state density for this state as the 1-particle RhoCI density.

 Excited State   2:      Singlet-A      1.6904 eV  733.45 nm  f=0.3869  <S**2>=0.000
     309 -> 316        0.18171
     311 -> 313        0.68420
     309 <- 316        0.11474

 Excited State   3:      Singlet-A      2.1645 eV  572.81 nm  f=0.1443  <S**2>=0.000
     309 -> 313        0.65220
     311 -> 316       -0.26030

 Excited State   4:      Singlet-A      2.1739 eV  570.33 nm  f=0.1003  <S**2>=0.000
     310 -> 314        0.63668
     312 -> 315        0.29859

 Excited State   5:      Singlet-A      3.4870 eV  355.56 nm  f=0.0055  <S**2>=0.000
     300 -> 313        0.15853
     304 -> 313       -0.39290
     307 -> 313       -0.14307
     308 -> 313        0.52245

 The electronic state is 1-A.
 Alpha  occ. eigenvalues --  -46.95720 -46.94105 -19.29129 -19.28918 -19.25563
 Alpha  occ. eigenvalues --  -19.24511 -19.24387 -19.24194 -19.23885 -19.22900
 Alpha  occ. eigenvalues --  -14.47031 -14.46597 -14.46262 -14.46019 -14.44739
 Alpha  occ. eigenvalues --  -14.44114 -14.43967 -14.43179 -10.42704 -10.42470
 Alpha  occ. eigenvalues --  -10.41282 -10.40205 -10.38517 -10.38064 -10.35783
 Alpha  occ. eigenvalues --  -10.35646 -10.35399 -10.35241 -10.35125 -10.34773
 Alpha  occ. eigenvalues --  -10.34656 -10.34648 -10.34635 -10.34563 -10.34438
 Alpha  occ. eigenvalues --  -10.34194 -10.34026 -10.33876 -10.33784 -10.33710
 Alpha  occ. eigenvalues --  -10.33222 -10.33046 -10.32976 -10.32783 -10.32738
 Alpha  occ. eigenvalues --  -10.32603 -10.32370 -10.32328 -10.32315 -10.32274
 Alpha  occ. eigenvalues --  -10.32257 -10.32032 -10.32018 -10.32008 -10.32006
 Alpha  occ. eigenvalues --  -10.32000 -10.31849 -10.31632 -10.31583 -10.31579
 Alpha  occ. eigenvalues --  -10.31579 -10.31416 -10.31389 -10.31329 -10.31298
 Alpha  occ. eigenvalues --  -10.31260 -10.31072 -10.30969 -10.30767 -10.30504
 Alpha  occ. eigenvalues --  -10.30455 -10.30221 -10.30103 -10.30032 -10.30009
 Alpha  occ. eigenvalues --  -10.29942 -10.29900 -10.29841 -10.29625 -10.29586
 Alpha  occ. eigenvalues --  -10.29572 -10.29515 -10.29150 -10.28821 -10.28283
 Alpha  occ. eigenvalues --  -10.28157  -3.21574  -3.20270  -1.95183  -1.94677
 Alpha  occ. eigenvalues --   -1.94556  -1.93880  -1.93366  -1.93294  -1.17772
 Alpha  occ. eigenvalues --   -1.16617  -1.12755  -1.11762  -1.11703  -1.10580
 Alpha  occ. eigenvalues --   -1.09402  -1.08922  -1.07607  -1.07570  -1.06727
 Alpha  occ. eigenvalues --   -1.06456  -1.06163  -1.05572  -1.05222  -1.04634
 Alpha  occ. eigenvalues --   -0.95499  -0.94076  -0.91082  -0.90526  -0.90434
 Alpha  occ. eigenvalues --   -0.90202  -0.90116  -0.89418  -0.89260  -0.89029
 Alpha  occ. eigenvalues --   -0.88976  -0.88777  -0.88157  -0.88144  -0.86260
 Alpha  occ. eigenvalues --   -0.86199  -0.85503  -0.85338  -0.84687  -0.84507
 Alpha  occ. eigenvalues --   -0.84235  -0.83505  -0.83114  -0.82874  -0.82253
 Alpha  occ. eigenvalues --   -0.82025  -0.80577  -0.80355  -0.79389  -0.79134
 Alpha  occ. eigenvalues --   -0.79044  -0.78558  -0.78111  -0.77748  -0.77090
 Alpha  occ. eigenvalues --   -0.76987  -0.74792  -0.74591  -0.73942  -0.73144
 Alpha  occ. eigenvalues --   -0.71263  -0.71115  -0.70720  -0.70549  -0.70145
 Alpha  occ. eigenvalues --   -0.69880  -0.68653  -0.67948  -0.67235  -0.67149
 Alpha  occ. eigenvalues --   -0.67011  -0.66569  -0.66499  -0.66232  -0.66170
 Alpha  occ. eigenvalues --   -0.65949  -0.63822  -0.63234  -0.62679  -0.62450
 Alpha  occ. eigenvalues --   -0.61873  -0.61534  -0.61161  -0.61108  -0.60786
 Alpha  occ. eigenvalues --   -0.60422  -0.59997  -0.59940  -0.59724  -0.59559
 Alpha  occ. eigenvalues --   -0.58003  -0.57825  -0.57642  -0.57497  -0.57344
 Alpha  occ. eigenvalues --   -0.57220  -0.56667  -0.56127  -0.55872  -0.55689
 Alpha  occ. eigenvalues --   -0.55557  -0.55321  -0.54943  -0.54936  -0.54882
 Alpha  occ. eigenvalues --   -0.54689  -0.54572  -0.54228  -0.54096  -0.54071
 Alpha  occ. eigenvalues --   -0.54063  -0.53720  -0.53578  -0.53537  -0.53333
 Alpha  occ. eigenvalues --   -0.53120  -0.52745  -0.52706  -0.52684  -0.52466
 Alpha  occ. eigenvalues --   -0.52213  -0.51802  -0.51711  -0.51591  -0.51402
 Alpha  occ. eigenvalues --   -0.51352  -0.51094  -0.51051  -0.50973  -0.50801
 Alpha  occ. eigenvalues --   -0.50777  -0.50470  -0.50397  -0.50227  -0.50077
 Alpha  occ. eigenvalues --   -0.49868  -0.49737  -0.49535  -0.49297  -0.49226
 Alpha  occ. eigenvalues --   -0.48856  -0.48781  -0.48485  -0.48379  -0.48338
 Alpha  occ. eigenvalues --   -0.48160  -0.48130  -0.48072  -0.47924  -0.47689
 Alpha  occ. eigenvalues --   -0.47499  -0.47434  -0.47117  -0.46839  -0.46621
 Alpha  occ. eigenvalues --   -0.46567  -0.46254  -0.46247  -0.46217  -0.45920
 Alpha  occ. eigenvalues --   -0.45890  -0.45869  -0.45812  -0.45635  -0.45425
 Alpha  occ. eigenvalues --   -0.45255  -0.45143  -0.45055  -0.44918  -0.44574
 Alpha  occ. eigenvalues --   -0.44417  -0.44304  -0.44011  -0.43728  -0.43663
 Alpha  occ. eigenvalues --   -0.43550  -0.43291  -0.43284  -0.43050  -0.42943
 Alpha  occ. eigenvalues --   -0.42908  -0.42846  -0.42737  -0.42409  -0.42091
 Alpha  occ. eigenvalues --   -0.42077  -0.41864  -0.41637  -0.41325  -0.41090
 Alpha  occ. eigenvalues --   -0.40307  -0.40185  -0.39963  -0.39730  -0.39512
 Alpha  occ. eigenvalues --   -0.39436  -0.38749  -0.38627  -0.38555  -0.38114
 Alpha  occ. eigenvalues --   -0.38103  -0.37605  -0.36449  -0.36427  -0.36209
 Alpha  occ. eigenvalues --   -0.35875  -0.35425  -0.35391  -0.34191  -0.33376
 Alpha  occ. eigenvalues --   -0.33372  -0.33119  -0.33004  -0.32705  -0.32347
 Alpha  occ. eigenvalues --   -0.32212  -0.32143  -0.31680  -0.25810  -0.25736
 Alpha  occ. eigenvalues --   -0.23202  -0.22922
 Alpha virt. eigenvalues --   -0.07161  -0.06847   0.00207   0.00675   0.02014
 Alpha virt. eigenvalues --    0.02056   0.04457   0.04589   0.05838   0.06618
 Alpha virt. eigenvalues --    0.06991   0.07334   0.08027   0.08053   0.08383

 Mulliken charges:
               1
     1  Mg   0.985827
     2  C   -0.033960
     3  C   -0.089343
     4  C   -0.081476
     5  C   -0.112975
     6  N   -0.312295
     7  C   -0.022180
     8  C   -0.084649
     9  C   -0.106259
    10  C    0.035543
    11  C    0.056858
    12  C    0.017348
    13  C   -0.109396
    14  H    0.037461
    15  N   -0.477284
    16  C    0.190060
    17  C   -0.158436
    18  C   -0.108941
    19  C    0.127235
    20  C    0.049058
    21  C    0.101805
    22  O   -0.227646
    23  C   -0.029699
    24  N   -0.378997
    25  C    0.081058
    26  C   -0.097559
    27  C   -0.032367
    28  C    0.052852
    29  C    0.021164
    30  C   -0.006354
    31  C   -0.048377
    32  N   -0.374698
    33  C    0.116034
    34  C   -0.174739
    35  C   -0.023347
    36  C    0.102308
    37  C    0.084897
    38  C    0.096571
    39  O   -0.204585
    40  C   -0.019809
    41  C    0.245621
    42  O   -0.251725
    43  O   -0.402743
    44  C    0.147356
    45  H    0.004670
    46  H    0.017850
    47  H   -0.007210
    48  H    0.021220
    49  H    0.004255
    50  H    0.035520
    51  H    0.070987
    52  H    0.037016
    53  H    0.035376
    54  H    0.041312
    55  H    0.045549
    56  H    0.053100
    57  H    0.040750
    58  H    0.065835
    59  H    0.031005
    60  H    0.059272
    61  H    0.056244
    62  H    0.081359
    63  H    0.037156
    64  H    0.030715
    65  H    0.038449
    66  H    0.045374
    67  H    0.041250
    68  H    0.033869
    69  H    0.028045
    70  H    0.018040
    71  H    0.047782
    72  H    0.040819
    73  H    0.015384
    74  H    0.066038
    75  H    0.046086
    76  H    0.068307
    77  H    0.063905
    78  H    0.057332
    79  H    0.048120
    80  Mg   0.950665
    81  C   -0.080282
    82  C   -0.065113
    83  C   -0.054607
    84  C   -0.099679
    85  N   -0.357722
    86  C    0.029337
    87  C   -0.079446
    88  C   -0.109817
    89  C    0.090080
    90  C    0.022801
    91  C   -0.013536
    92  C   -0.098875
    93  H    0.035616
    94  N   -0.438776
    95  C    0.108601
    96  C   -0.179277
    97  C   -0.083546
    98  C    0.122476
    99  C    0.062336
   100  C    0.076024
   101  O   -0.249661
   102  C    0.010369
   103  N   -0.332099
   104  C    0.030777
   105  C   -0.062558
   106  C   -0.122871
   107  C    0.111027
   108  C    0.017306
   109  C   -0.023500
   110  C   -0.037695
   111  N   -0.390469
   112  C    0.092479
   113  C   -0.157229
   114  C   -0.058421
   115  C    0.195240
   116  C    0.082417
   117  C    0.129121
   118  O   -0.229525
   119  C   -0.055403
   120  C    0.260428
   121  O   -0.202689
   122  O   -0.416608
   123  C    0.130301
   124  H   -0.007789
   125  H    0.015253
   126  H    0.000074
   127  H    0.042229
   128  H    0.032254
   129  H    0.044439
   130  H    0.033005
   131  H    0.038543
   132  H    0.033226
   133  H    0.032470
   134  H    0.042985
   135  H    0.053462
   136  H    0.042702
   137  H    0.051432
   138  H    0.048457
   139  H    0.054866
   140  H    0.026375
   141  H    0.075590
   142  H    0.037473
   143  H    0.035314
   144  H    0.033703
   145  H    0.050442
   146  H    0.045484
   147  H    0.038390
   148  H    0.020843
   149  H    0.037095
   150  H    0.048332
   151  H    0.024440
   152  H    0.023633
   153  H    0.065379
   154  H    0.063731
   155  H    0.069626
   156  H    0.065976
   157  H    0.053343
   158  H    0.069226
 Sum of Mulliken charges =  -0.00000

 Dipole moment (field-independent basis, Debye):
    X=             -0.9008    Y=             -2.2811    Z=             -2.4745  Tot=              3.4840
 Quadrupole moment (field-independent basis, Debye-Ang):
   XX=           -129.3253   YY=           -459.7365   ZZ=           -507.9501
   XY=            -31.3599   XZ=            131.2459   YZ=              8.0145

 Normal termination of Gaussian 16 at Mon Sep 20 20:39:26 2021.
