 Gaussian 16, Revision A.03,
 Gaussian 16:  ES64L-G16RevA.03 25-Dec-2016

 --------------------------------
 #p wB97XD/Def2SVP td=(nstates=5)
 --------------------------------

 --------------------------------
 TDDFT excited states in gaussian
 --------------------------------
 Symbolic Z-matrix:
 Charge =  0 Multiplicity = 1

                         Standard orientation:
 ---------------------------------------------------------------------
 Center     Atomic      Atomic             Coordinates (Angstroms)
 Number     Number       Type             X           Y           Z
 ---------------------------------------------------------------------
      1         12           0       24.523741   -0.938194    0.154058
      2          6           0       24.429338    2.446303   -1.250816
      3          6           0       23.812948    0.553078    3.243850
      4          6           0       24.938913   -3.858768    1.541667
      5          6           0       25.032101   -2.193690   -2.996692
      6          7           0       24.372739    1.232543    0.934254
      7          6           0       24.233730    2.468947    0.174725
      8          6           0       24.001049    3.716842    1.053266
      9          6           0       24.023035    3.007562    2.528712
     10          6           0       24.087458    1.489828    2.268145
     11          6           0       25.137741    3.503404    3.429201
     12          6           0       22.693456    4.451311    0.628671
     13          6           0       22.203300    5.495360    1.586373
     14          1           0       21.718906    6.828384    1.060941
     15          7           0       24.421521   -1.603872    2.148477
     16          6           0       24.108005   -0.850845    3.285686
     17          6           0       24.082087   -1.720701    4.460150
     18          6           0       24.409747   -3.054743    3.980666
     19          6           0       24.614121   -2.918810    2.491083
     20          6           0       23.674279   -1.266731    5.909664
     21          6           0       24.593256   -4.341584    4.701326
     22          8           0       24.841421   -5.415024    4.168513
     23          6           0       24.360946   -4.412807    6.153679
     24          7           0       24.825830   -2.728875   -0.597756
     25          6           0       25.091494   -3.789505    0.166957
     26          6           0       25.378705   -5.065020   -0.659415
     27          6           0       24.968062   -4.610845   -2.044745
     28          6           0       24.998797   -3.038954   -1.911171
     29          6           0       26.832961   -5.515776   -0.585320
     30          6           0       23.688688   -5.053972   -2.706005
     31          6           0       22.431152   -4.609551   -1.990033
     32          7           0       24.798713   -0.095268   -1.730516
     33          6           0       24.898921   -0.777553   -2.956444
     34          6           0       24.988287    0.189770   -4.022351
     35          6           0       24.730005    1.412149   -3.350308
     36          6           0       24.634519    1.206413   -1.960776
     37          6           0       25.097166   -0.050701   -5.499803
     38          6           0       24.508297    2.861376   -3.646440
     39          8           0       24.394036    3.466393   -4.733841
     40          6           0       24.345873    3.539886   -2.288070
     41          6           0       25.371312    4.665766   -2.139125
     42          8           0       26.636091    4.619425   -2.093681
     43          8           0       24.669461    5.810618   -1.902313
     44          6           0       25.482271    7.020471   -1.642595
     45          1           0       23.395869    0.988920    4.153021
     46          1           0       25.144881   -4.832344    1.991206
     47          1           0       25.217223   -2.519050   -4.022634
     48          1           0       24.821454    4.391282    0.808153
     49          1           0       23.043487    3.129331    2.991095
     50          1           0       24.692490    3.914615    4.335610
     51          1           0       25.640157    4.300596    2.882480
     52          1           0       26.003000    2.854852    3.564630
     53          1           0       21.982980    3.660881    0.384237
     54          1           0       22.870004    4.944446   -0.327310
     55          1           0       22.912104    5.855085    2.331870
     56          1           0       21.309284    5.127016    2.088699
     57          1           0       22.780571   -1.848022    6.138408
     58          1           0       23.429021   -0.207125    5.980046
     59          1           0       24.514301   -1.525200    6.554505
     60          1           0       24.790045   -3.579483    6.710429
     61          1           0       24.854877   -5.339350    6.444224
     62          1           0       23.284054   -4.277239    6.249086
     63          1           0       24.753134   -5.857214   -0.247934
     64          1           0       25.689027   -4.912391   -2.805121
     65          1           0       26.853340   -6.602526   -0.512323
     66          1           0       27.330939   -5.101010    0.290437
     67          1           0       27.336929   -5.318905   -1.532238
     68          1           0       23.746138   -6.132617   -2.854607
     69          1           0       23.556881   -4.561975   -3.669536
     70          1           0       21.709129   -5.419354   -1.891762
     71          1           0       21.887034   -3.837201   -2.534104
     72          1           0       22.596539   -4.241902   -0.977244
     73          1           0       24.315084    0.503148   -6.018551
     74          1           0       25.052742   -1.061716   -5.904666
     75          1           0       26.065265    0.341798   -5.811681
     76          1           0       23.374381    4.034705   -2.271612
     77          1           0       25.522641    7.213339   -0.570754
     78          1           0       24.923874    7.728183   -2.255340
     79          1           0       26.468444    6.967525   -2.105635
     80         12           0      -24.940649   -0.508779   -0.278936
     81          6           0      -22.717526    2.222269   -0.424939
     82          6           0      -26.766417    1.322035    2.014384
     83          6           0      -27.112683   -3.121085    0.056795
     84          6           0      -22.896004   -2.300494   -2.248315
     85          7           0      -24.775293    1.580160    0.668614
     86          6           0      -23.865494    2.586190    0.366342
     87          6           0      -24.312240    3.902527    0.970032
     88          6           0      -25.397340    3.475211    2.024123
     89          6           0      -25.664224    2.070836    1.530929
     90          6           0      -24.968526    3.600278    3.538629
     91          6           0      -24.933862    4.859968   -0.057611
     92          6           0      -24.623200    6.345417    0.155225
     93          1           0      -25.251702    7.065931    1.380344
     94          7           0      -26.733830   -0.828295    0.794401
     95          6           0      -27.237532    0.055785    1.686130
     96          6           0      -28.363935   -0.538996    2.329053
     97          6           0      -28.633268   -1.807354    1.707955
     98          6           0      -27.462007   -1.979584    0.866788
     99          6           0      -29.118371    0.157571    3.427328
    100          6           0      -29.732983   -2.843832    1.939383
    101          8           0      -29.889445   -3.819235    1.172142
    102          6           0      -30.655073   -2.805409    3.152784
    103          7           0      -25.038602   -2.378647   -1.058045
    104          6           0      -25.988289   -3.344753   -0.739712
    105          6           0      -25.627402   -4.624640   -1.421234
    106          6           0      -24.307052   -4.421084   -2.247976
    107          6           0      -24.052739   -2.946658   -1.895014
    108          6           0      -25.652190   -5.882045   -0.501001
    109          6           0      -24.433291   -4.642830   -3.770817
    110          6           0      -24.006470   -6.052266   -4.224436
    111          7           0      -23.181529   -0.198558   -1.127587
    112          6           0      -22.428464   -0.989708   -1.994013
    113          6           0      -21.199845   -0.279862   -2.510148
    114          6           0      -21.314485    0.958821   -1.858489
    115          6           0      -22.525101    0.988194   -1.094298
    116          6           0      -20.164540   -0.832876   -3.472496
    117          6           0      -20.629786    2.235919   -1.725911
    118          8           0      -19.563750    2.633989   -2.197245
    119          6           0      -21.614736    3.139065   -0.868819
    120          6           0      -20.750181    3.709523    0.272631
    121          8           0      -19.896213    3.114837    0.897345
    122          8           0      -20.987167    5.079622    0.365898
    123          6           0      -20.205899    5.723741    1.421916
    124          1           0      -27.361526    1.957041    2.673692
    125          1           0      -27.742743   -4.012355    0.082574
    126          1           0      -22.231856   -2.986885   -2.777027
    127          1           0      -23.531973    4.446076    1.502230
    128          1           0      -26.316743    4.059954    1.993355
    129          1           0      -24.001776    4.072278    3.716227
    130          1           0      -24.874221    2.669426    4.097333
    131          1           0      -25.663703    4.238424    4.084182
    132          1           0      -26.018215    4.756667   -0.090457
    133          1           0      -24.549601    4.654964   -1.057019
    134          1           0      -24.834957    6.936922   -0.735386
    135          1           0      -23.550834    6.514932    0.249919
    136          1           0      -28.308781    0.471129    4.086547
    137          1           0      -29.793284   -0.441433    4.038538
    138          1           0      -29.665162    1.046734    3.114299
    139          1           0      -30.081448   -2.693923    4.073055
    140          1           0      -31.160241   -3.768492    3.080920
    141          1           0      -31.339043   -1.958374    3.099847
    142          1           0      -26.478400   -4.891482   -2.048627
    143          1           0      -23.443131   -4.980684   -1.887071
    144          1           0      -25.876121   -5.546218    0.511742
    145          1           0      -24.662286   -6.337536   -0.502751
    146          1           0      -26.454676   -6.493695   -0.914668
    147          1           0      -23.918278   -3.817005   -4.261108
    148          1           0      -25.478775   -4.627142   -4.079516
    149          1           0      -24.097322   -6.750680   -3.392300
    150          1           0      -22.965113   -6.175118   -4.522647
    151          1           0      -24.701768   -6.379805   -4.997909
    152          1           0      -20.628847   -0.867835   -4.458197
    153          1           0      -19.817722   -1.844316   -3.261747
    154          1           0      -19.339701   -0.120671   -3.456585
    155          1           0      -22.082980    3.965477   -1.403175
    156          1           0      -20.690446    5.750133    2.398404
    157          1           0      -20.023352    6.725257    1.032626
    158          1           0      -19.234113    5.310468    1.691939
 ---------------------------------------------------------------------

 SCF Done:  E(RwB97XD) =  -4070.64899566     A.U. after   19 cycles

 Excitation energies and oscillator strengths:

 Excited State   1:      Singlet-A      1.6109 eV  769.65 nm  f=0.3965  <S**2>=0.000
     309 -> 316       -0.17049
     311 -> 313        0.68652
     309 <- 316       -0.11383
 This state for optimization and/or second-order correction.
 Total Energy, E(TD-HF/TD-DFT) =  -4070.58979576
 Copying the excited state density for this state as the 1-particle RhoCI density.

 Excited State   2:      Singlet-A      1.6477 eV  752.47 nm  f=0.3759  <S**2>=0.000
     310 -> 315        0.19179
     312 -> 314        0.68144
     310 <- 315        0.11858

 Excited State   3:      Singlet-A      2.1162 eV  585.89 nm  f=0.1332  <S**2>=0.000
     309 -> 313        0.64978
     311 -> 316        0.25752

 Excited State   4:      Singlet-A      2.1798 eV  568.78 nm  f=0.0974  <S**2>=0.000
     310 -> 314        0.63414
     312 -> 315       -0.30025

 Excited State   5:      Singlet-A      3.2645 eV  379.80 nm  f=0.0056  <S**2>=0.000
     305 -> 313       -0.31809
     308 -> 313        0.60983

 The electronic state is 1-A.
 Alpha  occ. eigenvalues --  -46.94090 -46.93997 -19.30991 -19.30966 -19.25345
 Alpha  occ. eigenvalues --  -19.24591 -19.24275 -19.24142 -19.23840 -19.23475
 Alpha  occ. eigenvalues --  -14.47299 -14.47130 -14.46760 -14.45886 -14.44602
 Alpha  occ. eigenvalues --  -14.44497 -14.44108 -14.43413 -10.43807 -10.43546
 Alpha  occ. eigenvalues --  -10.39867 -10.39104 -10.38725 -10.38628 -10.35999
 Alpha  occ. eigenvalues --  -10.35628 -10.35561 -10.35502 -10.35462 -10.35234
 Alpha  occ. eigenvalues --  -10.35140 -10.34912 -10.34840 -10.34803 -10.34788
 Alpha  occ. eigenvalues --  -10.34731 -10.34581 -10.34323 -10.34289 -10.33664
 Alpha  occ. eigenvalues --  -10.33201 -10.33199 -10.33089 -10.33017 -10.32978
 Alpha  occ. eigenvalues --  -10.32929 -10.32896 -10.32895 -10.32865 -10.32845
 Alpha  occ. eigenvalues --  -10.32707 -10.32607 -10.32596 -10.32588 -10.32579
 Alpha  occ. eigenvalues --  -10.32445 -10.32434 -10.31905 -10.31696 -10.31601
 Alpha  occ. eigenvalues --  -10.31549 -10.31405 -10.31312 -10.31234 -10.31173
 Alpha  occ. eigenvalues --  -10.31030 -10.30994 -10.30978 -10.30773 -10.30488
 Alpha  occ. eigenvalues --  -10.30324 -10.30265 -10.30255 -10.30129 -10.30042
 Alpha  occ. eigenvalues --  -10.29983 -10.29783 -10.29778 -10.29727 -10.29723
 Alpha  occ. eigenvalues --  -10.29542 -10.29534 -10.29473 -10.29378 -10.28683
 Alpha  occ. eigenvalues --  -10.28348  -3.20246  -3.20191  -1.93846  -1.93786
 Alpha  occ. eigenvalues --   -1.93384  -1.93295  -1.93223  -1.93209  -1.18469
 Alpha  occ. eigenvalues --   -1.18164  -1.12638  -1.11456  -1.11172  -1.10386
 Alpha  occ. eigenvalues --   -1.09977  -1.07934  -1.07040  -1.06734  -1.05753
 Alpha  occ. eigenvalues --   -1.05083  -1.04792  -1.04342  -1.03455  -1.02599
 Alpha  occ. eigenvalues --   -0.94549  -0.94236  -0.91538  -0.91304  -0.90925
 Alpha  occ. eigenvalues --   -0.90807  -0.90545  -0.90220  -0.89408  -0.89250
 Alpha  occ. eigenvalues --   -0.88997  -0.88983  -0.88093  -0.87781  -0.86663
 Alpha  occ. eigenvalues --   -0.86334  -0.85915  -0.85444  -0.84847  -0.84267
 Alpha  occ. eigenvalues --   -0.84224  -0.83676  -0.83353  -0.82926  -0.82054
 Alpha  occ. eigenvalues --   -0.82029  -0.80514  -0.80441  -0.79393  -0.79206
 Alpha  occ. eigenvalues --   -0.79173  -0.78694  -0.78097  -0.77874  -0.77435
 Alpha  occ. eigenvalues --   -0.77011  -0.74722  -0.74683  -0.73906  -0.73642
 Alpha  occ. eigenvalues --   -0.72198  -0.71392  -0.71359  -0.70744  -0.70170
 Alpha  occ. eigenvalues --   -0.69613  -0.69335  -0.69153  -0.67731  -0.67453
 Alpha  occ. eigenvalues --   -0.67028  -0.66647  -0.66497  -0.66262  -0.66171
 Alpha  occ. eigenvalues --   -0.65791  -0.64563  -0.63900  -0.62372  -0.62235
 Alpha  occ. eigenvalues --   -0.62159  -0.61135  -0.61065  -0.60949  -0.60485
 Alpha  occ. eigenvalues --   -0.60278  -0.59712  -0.59658  -0.59506  -0.59376
 Alpha  occ. eigenvalues --   -0.58288  -0.58044  -0.57855  -0.57468  -0.57447
 Alpha  occ. eigenvalues --   -0.57206  -0.57093  -0.56701  -0.56547  -0.56218
 Alpha  occ. eigenvalues --   -0.55764  -0.55437  -0.55420  -0.55095  -0.55028
 Alpha  occ. eigenvalues --   -0.54831  -0.54689  -0.54519  -0.54384  -0.54126
 Alpha  occ. eigenvalues --   -0.54077  -0.53787  -0.53706  -0.53175  -0.53065
 Alpha  occ. eigenvalues --   -0.52786  -0.52690  -0.52402  -0.52282  -0.52204
 Alpha  occ. eigenvalues --   -0.52087  -0.52007  -0.51734  -0.51682  -0.51513
 Alpha  occ. eigenvalues --   -0.51277  -0.51021  -0.50857  -0.50735  -0.50710
 Alpha  occ. eigenvalues --   -0.50528  -0.50411  -0.50408  -0.50200  -0.50018
 Alpha  occ. eigenvalues --   -0.50016  -0.49650  -0.49590  -0.49527  -0.49336
 Alpha  occ. eigenvalues --   -0.48910  -0.48785  -0.48683  -0.48602  -0.48463
 Alpha  occ. eigenvalues --   -0.48422  -0.48223  -0.48076  -0.47918  -0.47842
 Alpha  occ. eigenvalues --   -0.47573  -0.47462  -0.47369  -0.46846  -0.46812
 Alpha  occ. eigenvalues --   -0.46597  -0.46470  -0.46461  -0.46304  -0.46270
 Alpha  occ. eigenvalues --   -0.46255  -0.46094  -0.45841  -0.45529  -0.45380
 Alpha  occ. eigenvalues --   -0.45368  -0.45150  -0.45143  -0.44969  -0.44645
 Alpha  occ. eigenvalues --   -0.44584  -0.44449  -0.44311  -0.44111  -0.43866
 Alpha  occ. eigenvalues --   -0.43832  -0.43741  -0.43710  -0.43534  -0.43215
 Alpha  occ. eigenvalues --   -0.43122  -0.42984  -0.42811  -0.42408  -0.42384
 Alpha  occ. eigenvalues --   -0.42172  -0.41863  -0.41610  -0.41139  -0.40984
 Alpha  occ. eigenvalues --   -0.40781  -0.40612  -0.40249  -0.39871  -0.39305
 Alpha  occ. eigenvalues --   -0.39297  -0.39127  -0.38860  -0.38777  -0.38728
 Alpha  occ. eigenvalues --   -0.38463  -0.38094  -0.37161  -0.36966  -0.36288
 Alpha  occ. eigenvalues --   -0.36047  -0.35285  -0.35106  -0.33712  -0.33514
 Alpha  occ. eigenvalues --   -0.33245  -0.33166  -0.32950  -0.32692  -0.32574
 Alpha  occ. eigenvalues --   -0.32277  -0.32216  -0.31278  -0.26167  -0.25883
 Alpha  occ. eigenvalues --   -0.23268  -0.22898
 Alpha virt. eigenvalues --   -0.07637  -0.06927   0.00127   0.00270   0.02034
 Alpha virt. eigenvalues --    0.02386   0.03839   0.04313   0.06270   0.06699
 Alpha virt. eigenvalues --    0.06769   0.07102   0.07410   0.07709   0.08317

 Mulliken charges:
               1
     1  Mg   0.974843
     2  C   -0.025725
     3  C   -0.091634
     4  C   -0.091398
     5  C   -0.077731
     6  N   -0.366120
     7  C   -0.005763
     8  C   -0.064826
     9  C   -0.111891
    10  C    0.088907
    11  C    0.051911
    12  C   -0.005964
    13  C   -0.128111
    14  H    0.029152
    15  N   -0.467427
    16  C    0.163120
    17  C   -0.170410
    18  C   -0.057368
    19  C    0.152382
    20  C    0.067182
    21  C    0.021965
    22  O   -0.243524
    23  C    0.002081
    24  N   -0.422420
    25  C    0.103797
    26  C   -0.088063
    27  C   -0.066272
    28  C    0.109981
    29  C    0.042976
    30  C    0.010341
    31  C   -0.067882
    32  N   -0.449658
    33  C    0.078938
    34  C   -0.151530
    35  C   -0.101608
    36  C    0.167103
    37  C    0.064793
    38  C    0.158585
    39  O   -0.236402
    40  C   -0.063553
    41  C    0.279091
    42  O   -0.286806
    43  O   -0.366320
    44  C    0.125341
    45  H   -0.007293
    46  H    0.021577
    47  H    0.001300
    48  H    0.052041
    49  H    0.035110
    50  H    0.045584
    51  H    0.021880
    52  H    0.048097
    53  H    0.034845
    54  H    0.058231
    55  H    0.052494
    56  H    0.055248
    57  H    0.061434
    58  H    0.044225
    59  H    0.067028
    60  H    0.027125
    61  H    0.066538
    62  H    0.059715
    63  H    0.041427
    64  H    0.013865
    65  H    0.035642
    66  H    0.048272
    67  H    0.036537
    68  H    0.035158
    69  H    0.029071
    70  H    0.029091
    71  H    0.034971
    72  H    0.040811
    73  H    0.061497
    74  H    0.026470
    75  H    0.055482
    76  H    0.079602
    77  H    0.065858
    78  H    0.060840
    79  H    0.076146
    80  Mg   1.001588
    81  C   -0.064949
    82  C   -0.110761
    83  C   -0.083477
    84  C   -0.100637
    85  N   -0.307810
    86  C    0.022581
    87  C   -0.031922
    88  C   -0.097654
    89  C    0.019064
    90  C    0.007949
    91  C    0.023208
    92  C   -0.123398
    93  H    0.016992
    94  N   -0.428002
    95  C    0.223967
    96  C   -0.180443
    97  C   -0.042760
    98  C    0.127608
    99  C    0.061734
   100  C    0.049264
   101  O   -0.257581
   102  C   -0.023855
   103  N   -0.456704
   104  C    0.108966
   105  C   -0.100377
   106  C   -0.055388
   107  C    0.059229
   108  C    0.015925
   109  C    0.000267
   110  C   -0.055617
   111  N   -0.483329
   112  C    0.140207
   113  C   -0.167212
   114  C   -0.071758
   115  C    0.182764
   116  C    0.080920
   117  C    0.161333
   118  O   -0.208567
   119  C   -0.105915
   120  C    0.266333
   121  O   -0.223777
   122  O   -0.369667
   123  C    0.126335
   124  H   -0.009050
   125  H    0.016372
   126  H   -0.010455
   127  H    0.030634
   128  H    0.039925
   129  H    0.034287
   130  H    0.041858
   131  H    0.034284
   132  H    0.040684
   133  H    0.036925
   134  H    0.048546
   135  H    0.050356
   136  H    0.046148
   137  H    0.026913
   138  H    0.058725
   139  H    0.061396
   140  H    0.063752
   141  H    0.063671
   142  H    0.042776
   143  H    0.042930
   144  H    0.043671
   145  H    0.034112
   146  H    0.043592
   147  H    0.037029
   148  H    0.028029
   149  H    0.024566
   150  H    0.041178
   151  H    0.040922
   152  H    0.050558
   153  H    0.047752
   154  H    0.066158
   155  H    0.072918
   156  H    0.043206
   157  H    0.055702
   158  H    0.065255
 Sum of Mulliken charges =  -0.00000

 Dipole moment (field-independent basis, Debye):
    X=             -5.8275    Y=              0.6634    Z=              7.1832  Tot=              9.2735
 Quadrupole moment (field-independent basis, Debye-Ang):
   XX=           -480.0912   YY=           -482.0486   ZZ=           -486.1098
   XY=            -54.1873   XZ=             62.5571   YZ=             55.5912

 Normal termination of Gaussian 16 at Sun Sep 19 02:42:29 2021.
