 Gaussian 16, Revision A.03,
 Gaussian 16:  ES64L-G16RevA.03 25-Dec-2016

 --------------------------------
 #p wB97XD/Def2SVP td=(nstates=5)
 --------------------------------

 --------------------------------
 TDDFT excited states in gaussian
 --------------------------------
 Symbolic Z-matrix:
 Charge =  0 Multiplicity = 1

                         Standard orientation:
 ---------------------------------------------------------------------
 Center     Atomic      Atomic             Coordinates (Angstroms)
 Number     Number       Type             X           Y           Z
 ---------------------------------------------------------------------
      1         12           0      -11.823133    0.160623   -0.543995
      2          6           0       -8.961454   -1.901764   -0.435662
      3          6           0      -13.706994   -2.484425    0.729768
      4          6           0      -14.228084    2.429621    0.281980
      5          6           0       -9.599255    2.852985   -1.341120
      6          7           0      -11.374730   -1.910128    0.022966
      7          6           0      -10.166355   -2.511811    0.011667
      8          6           0      -10.244452   -3.940963    0.640640
      9          6           0      -11.825270   -4.172163    0.624275
     10          6           0      -12.398605   -2.734341    0.407370
     11          6           0      -12.482822   -5.078389   -0.441133
     12          6           0       -9.607219   -3.899360    2.080929
     13          6           0       -8.829916   -5.188287    2.467118
     14          1           0       -9.020154   -5.679314    3.959886
     15          7           0      -13.841742   -0.021304    0.213037
     16          6           0      -14.389800   -1.210550    0.614702
     17          6           0      -15.725845   -0.935335    0.985432
     18          6           0      -15.935674    0.475282    0.949922
     19          6           0      -14.657679    1.053380    0.414699
     20          6           0      -16.728567   -1.969209    1.440517
     21          6           0      -17.111785    1.218566    1.485207
     22          8           0      -18.012986    0.655015    2.085201
     23          6           0      -17.281918    2.646757    1.420777
     24          7           0      -11.825234    2.378139   -0.441751
     25          6           0      -13.042618    3.038807   -0.220108
     26          6           0      -12.906895    4.501853   -0.505360
     27          6           0      -11.412940    4.682287   -0.965228
     28          6           0      -10.892374    3.255932   -0.923369
     29          6           0      -13.946807    4.903458   -1.559190
     30          6           0      -10.648651    5.829147   -0.202592
     31          6           0      -10.050824    6.918392   -1.040532
     32          7           0       -9.682051    0.471496   -0.881485
     33          6           0       -8.987804    1.600171   -1.242114
     34          6           0       -7.584049    1.261762   -1.564113
     35          6           0       -7.562928   -0.105632   -1.181169
     36          6           0       -8.840726   -0.532990   -0.872440
     37          6           0       -6.437654    2.173252   -1.973192
     38          6           0       -6.662589   -1.201943   -0.941036
     39          8           0       -5.426759   -1.253740   -1.040521
     40          6           0       -7.470001   -2.414244   -0.477809
     41          6           0       -7.231353   -3.580366   -1.348621
     42          8           0       -6.803648   -4.598675   -0.940332
     43          8           0       -7.732105   -3.433592   -2.609845
     44          6           0       -7.695317   -4.718997   -3.340523
     45          1           0      -14.342942   -3.311186    1.054440
     46          1           0      -15.074134    3.089882    0.479022
     47          1           0       -8.774229    3.538325   -1.549042
     48          1           0       -9.697946   -4.625636   -0.008172
     49          1           0      -12.283223   -4.324107    1.601530
     50          1           0      -11.865365   -5.117636   -1.339245
     51          1           0      -13.503063   -4.825646   -0.729981
     52          1           0      -12.484395   -6.080005   -0.012496
     53          1           0      -10.362955   -3.667802    2.832030
     54          1           0       -8.919904   -3.053901    2.049441
     55          1           0       -7.789850   -4.916295    2.286309
     56          1           0       -9.144577   -5.894773    1.698706
     57          1           0      -17.780063   -1.698763    1.343147
     58          1           0      -16.472263   -2.124132    2.488218
     59          1           0      -16.560637   -2.992661    1.105131
     60          1           0      -17.303936    2.912607    0.363148
     61          1           0      -16.495375    3.162938    1.971988
     62          1           0      -18.232927    2.901635    1.888545
     63          1           0      -12.966430    5.079408    0.416819
     64          1           0      -11.223603    4.801327   -2.032264
     65          1           0      -14.727193    4.155498   -1.701467
     66          1           0      -13.493953    5.041852   -2.540960
     67          1           0      -14.556391    5.720507   -1.174408
     68          1           0       -9.872593    5.310103    0.359941
     69          1           0      -11.287007    6.434786    0.439647
     70          1           0       -8.993748    6.976424   -0.782462
     71          1           0      -10.479170    7.892960   -0.805621
     72          1           0      -10.259489    6.805824   -2.104478
     73          1           0       -5.963718    2.661831   -1.121613
     74          1           0       -6.717611    2.901270   -2.735621
     75          1           0       -5.711196    1.440921   -2.325181
     76          1           0       -7.092246   -2.759646    0.483674
     77          1           0       -8.105039   -4.544908   -4.335812
     78          1           0       -8.271839   -5.478849   -2.813117
     79          1           0       -6.692150   -5.077312   -3.568945
     80         12           0       10.965869    0.822395    0.030080
     81          6           0       12.226789   -2.398449    0.128984
     82          6           0        8.050298   -0.301669    1.513214
     83          6           0       10.126551    4.043374    0.591931
     84          6           0       14.137776    1.807356   -1.155879
     85          7           0       10.341400   -1.096792    1.002212
     86          6           0       10.953494   -2.250448    0.720719
     87          6           0       10.209264   -3.433300    1.414022
     88          6           0        8.750352   -2.802179    1.608206
     89          6           0        9.017161   -1.282025    1.286345
     90          6           0        7.665687   -3.521922    0.770962
     91          6           0       10.833249   -3.734220    2.757713
     92          6           0       10.962064   -5.209180    3.104857
     93          1           0       10.747432   -5.764360    4.563226
     94          7           0        9.185264    1.717863    0.795807
     95          6           0        8.147377    1.130433    1.415869
     96          6           0        7.210469    2.153966    1.748650
     97          6           0        7.708237    3.425315    1.330581
     98          6           0        9.057227    3.121316    0.837372
     99          6           0        5.852680    1.831665    2.253477
    100          6           0        7.026313    4.719222    1.601141
    101          8           0        5.923636    4.733994    2.122493
    102          6           0        7.639875    6.048931    1.179244
    103          7           0       12.019650    2.734154   -0.345713
    104          6           0       11.427641    3.890409    0.065209
    105          6           0       12.395540    5.027353    0.009236
    106          6           0       13.696093    4.281104   -0.553823
    107          6           0       13.298055    2.844247   -0.783583
    108          6           0       11.917697    6.243136   -0.806630
    109          6           0       15.015639    4.418648    0.327551
    110          6           0       16.342936    4.889053   -0.312466
    111          7           0       12.777702   -0.056272   -0.445255
    112          6           0       13.924380    0.448711   -0.972863
    113          6           0       14.718447   -0.584952   -1.471393
    114          6           0       14.103997   -1.771670   -1.096462
    115          6           0       12.972748   -1.399186   -0.414620
    116          6           0       16.093583   -0.382263   -2.172609
    117          6           0       14.163738   -3.157410   -1.136639
    118          8           0       15.079050   -3.862618   -1.546564
    119          6           0       12.935287   -3.734656   -0.281189
    120          6           0       12.028919   -4.472311   -1.085098
    121          8           0       11.172428   -4.096892   -1.889201
    122          8           0       12.260626   -5.812592   -0.791471
    123          6           0       11.497307   -6.860675   -1.447000
    124          1           0        7.073535   -0.668924    1.834232
    125          1           0        9.995014    5.121538    0.708717
    126          1           0       15.046418    2.216936   -1.602292
    127          1           0       10.274989   -4.299491    0.756204
    128          1           0        8.426179   -2.744463    2.646777
    129          1           0        8.097395   -4.271072    0.107550
    130          1           0        7.109233   -2.787192    0.188168
    131          1           0        6.954328   -3.963514    1.468484
    132          1           0       10.402657   -3.250439    3.634674
    133          1           0       11.794376   -3.220928    2.728813
    134          1           0       11.929049   -5.531866    2.719338
    135          1           0       10.204361   -5.643262    2.452529
    136          1           0        5.243179    1.892470    1.352054
    137          1           0        5.531889    2.538073    3.019341
    138          1           0        5.782434    0.836161    2.691945
    139          1           0        8.383496    6.283503    1.941041
    140          1           0        6.855980    6.791740    1.325007
    141          1           0        8.049479    5.983761    0.171319
    142          1           0       12.472875    5.259147    1.071002
    143          1           0       14.043300    4.729138   -1.484869
    144          1           0       11.665235    7.011073   -0.074694
    145          1           0       11.074786    6.012798   -1.459022
    146          1           0       12.747901    6.629214   -1.397574
    147          1           0       15.234496    3.444994    0.765722
    148          1           0       14.910123    5.139859    1.138295
    149          1           0       16.750760    3.922404   -0.607768
    150          1           0       16.993495    5.327489    0.443161
    151          1           0       16.335147    5.417482   -1.265685
    152          1           0       16.829106   -0.113159   -1.415603
    153          1           0       16.152021    0.439467   -2.886628
    154          1           0       16.420979   -1.300916   -2.660213
    155          1           0       13.385064   -4.304715    0.531875
    156          1           0       12.150949   -7.729163   -1.522061
    157          1           0       11.027842   -6.574284   -2.388484
    158          1           0       10.719345   -7.180159   -0.753454
 ---------------------------------------------------------------------

 SCF Done:  E(RwB97XD) =  -4070.56134475     A.U. after   20 cycles

 Excitation energies and oscillator strengths:

 Excited State   1:      Singlet-A      1.6179 eV  766.32 nm  f=0.5737  <S**2>=0.000
     309 -> 315       -0.17251
     311 -> 313        0.66162
     312 -> 314       -0.17627
     309 <- 315       -0.11246
 This state for optimization and/or second-order correction.
 Total Energy, E(TD-HF/TD-DFT) =  -4070.50188765
 Copying the excited state density for this state as the 1-particle RhoCI density.

 Excited State   2:      Singlet-A      1.6390 eV  756.44 nm  f=0.2495  <S**2>=0.000
     310 -> 316        0.18480
     311 -> 313        0.17615
     312 -> 314        0.65941
     310 <- 316        0.11564

 Excited State   3:      Singlet-A      2.1454 eV  577.89 nm  f=0.1041  <S**2>=0.000
     309 -> 313        0.63957
     311 -> 315        0.28453

 Excited State   4:      Singlet-A      2.1720 eV  570.83 nm  f=0.1003  <S**2>=0.000
     310 -> 314        0.63428
     312 -> 316       -0.29650

 Excited State   5:      Singlet-A      3.5688 eV  347.41 nm  f=0.0000  <S**2>=0.000
     312 -> 313        0.70682

 The electronic state is 1-A.
 Alpha  occ. eigenvalues --  -46.97132 -46.95926 -19.30323 -19.29775 -19.25026
 Alpha  occ. eigenvalues --  -19.24831 -19.24223 -19.23913 -19.23272 -19.22281
 Alpha  occ. eigenvalues --  -14.47574 -14.47244 -14.46820 -14.46516 -14.44446
 Alpha  occ. eigenvalues --  -14.44318 -14.43864 -14.43716 -10.43346 -10.42546
 Alpha  occ. eigenvalues --  -10.39155 -10.38792 -10.38483 -10.37377 -10.36277
 Alpha  occ. eigenvalues --  -10.35980 -10.35847 -10.35559 -10.35456 -10.35329
 Alpha  occ. eigenvalues --  -10.35295 -10.35203 -10.35063 -10.35059 -10.34970
 Alpha  occ. eigenvalues --  -10.34793 -10.34211 -10.33829 -10.33703 -10.33489
 Alpha  occ. eigenvalues --  -10.33331 -10.33089 -10.33079 -10.33042 -10.32744
 Alpha  occ. eigenvalues --  -10.32688 -10.32657 -10.32551 -10.32463 -10.32456
 Alpha  occ. eigenvalues --  -10.32385 -10.32373 -10.32315 -10.32273 -10.32247
 Alpha  occ. eigenvalues --  -10.32170 -10.32122 -10.32095 -10.31814 -10.31813
 Alpha  occ. eigenvalues --  -10.31809 -10.31788 -10.31540 -10.31521 -10.31319
 Alpha  occ. eigenvalues --  -10.30978 -10.30919 -10.30862 -10.30733 -10.30702
 Alpha  occ. eigenvalues --  -10.30670 -10.30665 -10.30604 -10.30358 -10.30356
 Alpha  occ. eigenvalues --  -10.30231 -10.29871 -10.29831 -10.29665 -10.29535
 Alpha  occ. eigenvalues --  -10.29517 -10.29499 -10.29138 -10.29104 -10.28767
 Alpha  occ. eigenvalues --  -10.28686  -3.22775  -3.21716  -1.96368  -1.95866
 Alpha  occ. eigenvalues --   -1.95727  -1.95314  -1.94828  -1.94674  -1.20123
 Alpha  occ. eigenvalues --   -1.17802  -1.12187  -1.12099  -1.11698  -1.11241
 Alpha  occ. eigenvalues --   -1.11188  -1.09606  -1.07461  -1.07144  -1.05981
 Alpha  occ. eigenvalues --   -1.05778  -1.05720  -1.05409  -1.04567  -1.04528
 Alpha  occ. eigenvalues --   -0.95800  -0.94606  -0.91316  -0.91252  -0.90924
 Alpha  occ. eigenvalues --   -0.90888  -0.90185  -0.90095  -0.89933  -0.89729
 Alpha  occ. eigenvalues --   -0.88959  -0.88749  -0.88063  -0.87724  -0.87270
 Alpha  occ. eigenvalues --   -0.86754  -0.86565  -0.86436  -0.84854  -0.84604
 Alpha  occ. eigenvalues --   -0.84376  -0.84058  -0.83358  -0.82862  -0.82653
 Alpha  occ. eigenvalues --   -0.82496  -0.80577  -0.80044  -0.79528  -0.79461
 Alpha  occ. eigenvalues --   -0.78777  -0.78399  -0.78389  -0.78318  -0.77336
 Alpha  occ. eigenvalues --   -0.77016  -0.75402  -0.75125  -0.74470  -0.74279
 Alpha  occ. eigenvalues --   -0.71736  -0.71330  -0.71165  -0.71120  -0.69990
 Alpha  occ. eigenvalues --   -0.69903  -0.69249  -0.68824  -0.68260  -0.68009
 Alpha  occ. eigenvalues --   -0.67736  -0.67628  -0.67391  -0.66982  -0.66763
 Alpha  occ. eigenvalues --   -0.66624  -0.65294  -0.64607  -0.62385  -0.62060
 Alpha  occ. eigenvalues --   -0.61998  -0.61823  -0.61000  -0.60960  -0.60960
 Alpha  occ. eigenvalues --   -0.60841  -0.60255  -0.60069  -0.59906  -0.59026
 Alpha  occ. eigenvalues --   -0.58427  -0.58235  -0.58005  -0.58000  -0.57515
 Alpha  occ. eigenvalues --   -0.57361  -0.57053  -0.56703  -0.56484  -0.56220
 Alpha  occ. eigenvalues --   -0.55467  -0.55408  -0.55287  -0.55219  -0.55059
 Alpha  occ. eigenvalues --   -0.54749  -0.54545  -0.54498  -0.54185  -0.54169
 Alpha  occ. eigenvalues --   -0.53950  -0.53913  -0.53711  -0.53648  -0.53403
 Alpha  occ. eigenvalues --   -0.53348  -0.53254  -0.53101  -0.52793  -0.52215
 Alpha  occ. eigenvalues --   -0.51976  -0.51941  -0.51831  -0.51753  -0.51511
 Alpha  occ. eigenvalues --   -0.51417  -0.51323  -0.51210  -0.51002  -0.50872
 Alpha  occ. eigenvalues --   -0.50838  -0.50536  -0.50297  -0.50222  -0.50084
 Alpha  occ. eigenvalues --   -0.50079  -0.49435  -0.49363  -0.49226  -0.48907
 Alpha  occ. eigenvalues --   -0.48743  -0.48681  -0.48613  -0.48593  -0.48540
 Alpha  occ. eigenvalues --   -0.48437  -0.48243  -0.48227  -0.47975  -0.47782
 Alpha  occ. eigenvalues --   -0.47667  -0.47648  -0.47303  -0.47156  -0.47067
 Alpha  occ. eigenvalues --   -0.47005  -0.46987  -0.46774  -0.46603  -0.46548
 Alpha  occ. eigenvalues --   -0.46385  -0.46270  -0.45963  -0.45734  -0.45502
 Alpha  occ. eigenvalues --   -0.45456  -0.45285  -0.45275  -0.44975  -0.44898
 Alpha  occ. eigenvalues --   -0.44791  -0.44728  -0.44522  -0.44312  -0.44050
 Alpha  occ. eigenvalues --   -0.43913  -0.43754  -0.43694  -0.43674  -0.43276
 Alpha  occ. eigenvalues --   -0.43250  -0.42869  -0.42820  -0.42616  -0.42126
 Alpha  occ. eigenvalues --   -0.42024  -0.41517  -0.41503  -0.41104  -0.40554
 Alpha  occ. eigenvalues --   -0.40187  -0.40058  -0.39901  -0.39817  -0.39638
 Alpha  occ. eigenvalues --   -0.39302  -0.39214  -0.39132  -0.38911  -0.38303
 Alpha  occ. eigenvalues --   -0.38174  -0.37482  -0.36884  -0.36726  -0.36394
 Alpha  occ. eigenvalues --   -0.36103  -0.35723  -0.35661  -0.33935  -0.33683
 Alpha  occ. eigenvalues --   -0.33172  -0.32946  -0.32579  -0.32573  -0.32528
 Alpha  occ. eigenvalues --   -0.31884  -0.31542  -0.31300  -0.26397  -0.26381
 Alpha  occ. eigenvalues --   -0.23335  -0.23248
 Alpha virt. eigenvalues --   -0.07724  -0.07449  -0.00310  -0.00278   0.01995
 Alpha virt. eigenvalues --    0.02363   0.04440   0.04545   0.04579   0.05782
 Alpha virt. eigenvalues --    0.06330   0.07296   0.07297   0.08027   0.08234

 Mulliken charges:
               1
     1  Mg   0.930400
     2  C   -0.012473
     3  C   -0.078810
     4  C   -0.029823
     5  C   -0.055243
     6  N   -0.359431
     7  C   -0.011373
     8  C   -0.090378
     9  C   -0.100405
    10  C    0.079590
    11  C    0.033039
    12  C    0.011780
    13  C   -0.106957
    14  H    0.041598
    15  N   -0.446431
    16  C    0.131498
    17  C   -0.166356
    18  C   -0.071362
    19  C    0.121504
    20  C    0.092428
    21  C   -0.000473
    22  O   -0.245999
    23  C    0.011372
    24  N   -0.354207
    25  C    0.049245
    26  C   -0.068665
    27  C   -0.054155
    28  C    0.053382
    29  C    0.028830
    30  C   -0.008430
    31  C   -0.059154
    32  N   -0.367943
    33  C    0.038847
    34  C   -0.158653
    35  C   -0.038338
    36  C    0.117478
    37  C    0.062115
    38  C    0.094608
    39  O   -0.225546
    40  C   -0.017628
    41  C    0.221554
    42  O   -0.212759
    43  O   -0.366461
    44  C    0.140048
    45  H    0.005957
    46  H   -0.031121
    47  H   -0.001099
    48  H    0.037956
    49  H    0.035436
    50  H    0.032243
    51  H    0.046093
    52  H    0.040043
    53  H    0.042501
    54  H    0.036195
    55  H    0.065908
    56  H    0.053199
    57  H    0.070682
    58  H    0.039733
    59  H    0.017239
    60  H    0.051084
    61  H    0.064341
    62  H    0.052207
    63  H    0.048001
    64  H    0.037653
    65  H    0.035066
    66  H    0.041394
    67  H    0.037030
    68  H    0.042135
    69  H    0.039567
    70  H    0.042614
    71  H    0.030726
    72  H    0.032908
    73  H    0.065369
    74  H    0.051584
    75  H    0.065848
    76  H    0.062031
    77  H    0.046742
    78  H    0.053276
    79  H    0.057595
    80  Mg   0.938958
    81  C   -0.063421
    82  C   -0.087822
    83  C   -0.039896
    84  C   -0.124485
    85  N   -0.332263
    86  C    0.013039
    87  C   -0.124692
    88  C   -0.103038
    89  C    0.083749
    90  C    0.035694
    91  C    0.029753
    92  C   -0.116611
    93  H    0.044675
    94  N   -0.455921
    95  C    0.158243
    96  C   -0.181932
    97  C   -0.057439
    98  C    0.198511
    99  C    0.076071
   100  C    0.004747
   101  O   -0.235875
   102  C    0.002924
   103  N   -0.353997
   104  C   -0.009437
   105  C   -0.086528
   106  C   -0.051275
   107  C    0.062214
   108  C    0.023005
   109  C   -0.053147
   110  C   -0.067797
   111  N   -0.433998
   112  C    0.194484
   113  C   -0.187600
   114  C    0.053593
   115  C    0.162161
   116  C    0.075235
   117  C    0.056191
   118  O   -0.207282
   119  C   -0.077478
   120  C    0.295467
   121  O   -0.257179
   122  O   -0.388946
   123  C    0.139747
   124  H    0.000760
   125  H   -0.030397
   126  H   -0.003890
   127  H    0.037099
   128  H    0.045870
   129  H    0.048909
   130  H    0.034532
   131  H    0.036693
   132  H    0.037200
   133  H    0.026929
   134  H    0.055591
   135  H    0.044742
   136  H    0.061479
   137  H    0.065533
   138  H    0.024984
   139  H    0.059192
   140  H    0.051654
   141  H    0.063570
   142  H    0.052931
   143  H    0.023909
   144  H    0.042194
   145  H    0.053138
   146  H    0.040222
   147  H    0.043666
   148  H    0.030732
   149  H    0.022360
   150  H    0.047825
   151  H    0.039992
   152  H    0.047270
   153  H    0.037636
   154  H    0.062113
   155  H    0.082924
   156  H    0.056659
   157  H    0.068918
   158  H    0.036659
 Sum of Mulliken charges =  -0.00000

 Dipole moment (field-independent basis, Debye):
    X=             -0.6648    Y=              5.4586    Z=             -2.7142  Tot=              6.1323
 Quadrupole moment (field-independent basis, Debye-Ang):
   XX=           -520.4190   YY=           -455.5669   ZZ=           -513.1043
   XY=             35.8213   XZ=             56.4465   YZ=            -11.8289

 Normal termination of Gaussian 16 at Sat Sep 18 21:23:04 2021.
