 Gaussian 16, Revision A.03,
 Gaussian 16:  ES64L-G16RevA.03 25-Dec-2016

 --------------------------------
 #p wB97XD/Def2SVP td=(nstates=5)
 --------------------------------

 --------------------------------
 TDDFT excited states in gaussian
 --------------------------------
 Symbolic Z-matrix:
 Charge =  0 Multiplicity = 1

                         Standard orientation:
 ---------------------------------------------------------------------
 Center     Atomic      Atomic             Coordinates (Angstroms)
 Number     Number       Type             X           Y           Z
 ---------------------------------------------------------------------
      1         12           0      -27.277160   -0.524187   -0.013775
      2          6           0      -25.868900    2.337526   -1.411964
      3          6           0      -28.377223    1.349879    2.653168
      4          6           0      -28.341921   -3.430198    1.336681
      5          6           0      -25.743297   -2.420123   -2.625747
      6          7           0      -27.024634    1.557084    0.565914
      7          6           0      -26.447792    2.560177   -0.149966
      8          6           0      -26.648544    3.920725    0.529956
      9          6           0      -27.335412    3.492149    1.901405
     10          6           0      -27.608265    2.002382    1.668971
     11          6           0      -26.417104    3.715604    3.096873
     12          6           0      -27.627676    4.912283   -0.193756
     13          6           0      -27.399107    6.386717    0.015336
     14          1           0      -26.537041    6.836941    1.108438
     15          7           0      -28.288268   -0.947470    1.676730
     16          6           0      -28.646841   -0.013626    2.669373
     17          6           0      -29.489598   -0.718999    3.599023
     18          6           0      -29.554706   -2.088191    3.236587
     19          6           0      -28.700644   -2.215943    2.030126
     20          6           0      -29.997925   -0.105170    4.885961
     21          6           0      -30.300561   -3.213439    3.821395
     22          8           0      -30.102751   -4.371453    3.520996
     23          6           0      -31.301115   -2.972919    5.009482
     24          7           0      -27.236257   -2.677877   -0.635607
     25          6           0      -27.716567   -3.629917    0.107109
     26          6           0      -27.455047   -5.031141   -0.522747
     27          6           0      -26.703810   -4.735265   -1.808076
     28          6           0      -26.470226   -3.184536   -1.712681
     29          6           0      -26.745380   -5.997517    0.538246
     30          6           0      -27.455316   -5.205148   -3.071539
     31          6           0      -27.062207   -6.610807   -3.661864
     32          7           0      -26.317547   -0.174294   -1.762642
     33          6           0      -25.743765   -1.032616   -2.733232
     34          6           0      -25.129835   -0.294951   -3.770660
     35          6           0      -25.098869    1.053747   -3.213677
     36          6           0      -25.872491    1.021810   -2.018299
     37          6           0      -24.331585   -0.873226   -4.924792
     38          6           0      -24.565786    2.335015   -3.497181
     39          8           0      -23.914740    2.765060   -4.441040
     40          6           0      -25.167895    3.305439   -2.281986
     41          6           0      -23.968144    3.995905   -1.702832
     42          8           0      -22.999174    3.414038   -1.203855
     43          8           0      -23.993609    5.407314   -1.908101
     44          6           0      -22.821754    6.164455   -1.367032
     45          1           0      -28.693329    2.005145    3.468399
     46          1           0      -28.550674   -4.326009    1.924626
     47          1           0      -25.298278   -2.944414   -3.473581
     48          1           0      -25.650681    4.331872    0.684304
     49          1           0      -28.246631    4.051509    2.112892
     50          1           0      -25.578445    4.360275    2.835300
     51          1           0      -26.093544    2.783337    3.560585
     52          1           0      -26.856490    4.333657    3.879883
     53          1           0      -28.640626    4.649881    0.109499
     54          1           0      -27.613184    4.643140   -1.250132
     55          1           0      -28.364791    6.821857    0.271702
     56          1           0      -27.000698    6.818042   -0.903029
     57          1           0      -29.562550   -0.555754    5.777819
     58          1           0      -31.086143   -0.180234    4.887259
     59          1           0      -29.775678    0.951453    5.034272
     60          1           0      -30.686086   -2.925511    5.908518
     61          1           0      -31.915479   -3.859452    5.167289
     62          1           0      -31.824235   -2.024660    4.892142
     63          1           0      -28.462322   -5.405996   -0.705313
     64          1           0      -25.686432   -5.122451   -1.780512
     65          1           0      -25.805865   -6.380261    0.139839
     66          1           0      -27.306115   -6.910583    0.739190
     67          1           0      -26.559873   -5.359599    1.403374
     68          1           0      -27.260295   -4.449921   -3.833733
     69          1           0      -28.518177   -5.166031   -2.832542
     70          1           0      -26.207070   -6.462753   -4.322293
     71          1           0      -27.829221   -7.211555   -4.151004
     72          1           0      -26.667220   -7.093337   -2.768493
     73          1           0      -25.098981   -1.107278   -5.662180
     74          1           0      -23.817736   -1.788827   -4.634385
     75          1           0      -23.462549   -0.299734   -5.249808
     76          1           0      -25.899450    3.990897   -2.711645
     77          1           0      -21.894031    5.872530   -1.857861
     78          1           0      -22.626474    6.122058   -0.295174
     79          1           0      -23.095582    7.163086   -1.707400
     80         12           0       27.301970   -0.750189    0.247254
     81          6           0       25.586922    2.193396    1.251313
     82          6           0       29.260841    1.379532   -1.787232
     83          6           0       28.722885   -3.391848   -1.036091
     84          6           0       25.047580   -2.634344    2.108509
     85          7           0       27.407367    1.574223   -0.231861
     86          6           0       26.645251    2.517554    0.412653
     87          6           0       27.047012    3.943409    0.075232
     88          6           0       28.159674    3.631680   -1.015206
     89          6           0       28.327702    2.104556   -0.996894
     90          6           0       27.815186    4.285178   -2.350303
     91          6           0       27.594678    4.667875    1.324526
     92          6           0       27.285501    6.203308    1.501664
     93          1           0       26.883250    7.014906    0.247744
     94          7           0       28.847336   -0.987626   -1.159604
     95          6           0       29.451567    0.006572   -1.929657
     96          6           0       30.457887   -0.633042   -2.791938
     97          6           0       30.373077   -2.033621   -2.500587
     98          6           0       29.302426   -2.151542   -1.492212
     99          6           0       31.242412    0.085540   -3.754565
    100          6           0       31.181846   -3.179229   -3.100779
    101          8           0       30.925846   -4.360290   -2.817392
    102          6           0       32.399537   -2.909950   -3.894528
    103          7           0       26.867921   -2.740283    0.421764
    104          6           0       27.673986   -3.648877   -0.133763
    105          6           0       27.174862   -5.100072    0.164206
    106          6           0       26.142410   -4.842736    1.307340
    107          6           0       25.969345   -3.356241    1.298026
    108          6           0       26.635620   -5.870196   -1.094597
    109          6           0       26.857746   -5.327917    2.625714
    110          6           0       27.658267   -4.312008    3.511414
    111          7           0       25.723059   -0.358118    1.518799
    112          6           0       24.882626   -1.257622    2.199441
    113          6           0       23.835604   -0.474389    2.901340
    114          6           0       24.059444    0.837656    2.500773
    115          6           0       25.188574    0.917759    1.713470
    116          6           0       22.708363   -1.147934    3.522702
    117          6           0       23.447092    2.162513    2.562603
    118          8           0       22.400662    2.483722    3.114427
    119          6           0       24.409240    3.124049    1.719074
    120          6           0       23.675302    3.777586    0.608239
    121          8           0       23.607891    3.377413   -0.550398
    122          8           0       23.073661    4.956469    1.087764
    123          6           0       22.239140    5.777942    0.240369
    124          1           0       30.058917    1.967859   -2.245700
    125          1           0       29.168290   -4.316391   -1.410315
    126          1           0       24.433239   -3.327691    2.686197
    127          1           0       26.224272    4.524113   -0.342681
    128          1           0       29.047363    4.177811   -0.697239
    129          1           0       28.585871    4.941243   -2.753406
    130          1           0       26.888177    4.857820   -2.380202
    131          1           0       27.759983    3.477634   -3.081531
    132          1           0       28.676171    4.552930    1.396068
    133          1           0       27.140340    4.067160    2.113211
    134          1           0       28.176479    6.731743    1.839152
    135          1           0       26.647610    6.262012    2.383552
    136          1           0       32.281889   -0.175499   -3.554900
    137          1           0       30.929931    1.127710   -3.812947
    138          1           0       30.842835   -0.336103   -4.677415
    139          1           0       32.192841   -2.506216   -4.886138
    140          1           0       32.934446   -3.844476   -4.062667
    141          1           0       32.947899   -2.111914   -3.394820
    142          1           0       28.128959   -5.527348    0.472895
    143          1           0       25.236166   -5.434820    1.177373
    144          1           0       27.419285   -6.506119   -1.506601
    145          1           0       26.233370   -5.117451   -1.771817
    146          1           0       25.811854   -6.486436   -0.734764
    147          1           0       27.384778   -6.260937    2.425176
    148          1           0       26.022894   -5.479422    3.310589
    149          1           0       28.565392   -4.861310    3.761715
    150          1           0       27.147484   -4.062155    4.442240
    151          1           0       27.969414   -3.389414    3.022601
    152          1           0       22.304139   -1.870270    2.814671
    153          1           0       21.950824   -0.383063    3.696591
    154          1           0       22.962674   -1.493950    4.524184
    155          1           0       24.705065    3.879653    2.447505
    156          1           0       21.174837    5.571091    0.349825
    157          1           0       22.647386    5.852641   -0.767642
    158          1           0       22.489020    6.770476    0.616338
 ---------------------------------------------------------------------

 SCF Done:  E(RwB97XD) =  -4070.63727722     A.U. after   19 cycles

 Excitation energies and oscillator strengths:

 Excited State   1:      Singlet-A      1.6919 eV  732.81 nm  f=0.3771  <S**2>=0.000
     309 -> 316        0.17802
     311 -> 313        0.68408
     309 <- 316        0.11256
 This state for optimization and/or second-order correction.
 Total Energy, E(TD-HF/TD-DFT) =  -4070.57510138
 Copying the excited state density for this state as the 1-particle RhoCI density.

 Excited State   2:      Singlet-A      1.6998 eV  729.42 nm  f=0.3674  <S**2>=0.000
     310 -> 315        0.19453
     312 -> 314        0.67891
     310 <- 315        0.11677

 Excited State   3:      Singlet-A      2.1733 eV  570.48 nm  f=0.1429  <S**2>=0.000
     309 -> 313        0.64712
     311 -> 316       -0.26325

 Excited State   4:      Singlet-A      2.2204 eV  558.38 nm  f=0.0707  <S**2>=0.000
     310 -> 314        0.62145
     312 -> 315       -0.32312

 Excited State   5:      Singlet-A      3.3916 eV  365.56 nm  f=0.0271  <S**2>=0.000
     299 -> 313       -0.24203
     301 -> 313       -0.14324
     304 -> 313        0.49431
     306 -> 313       -0.23610
     307 -> 313       -0.20938
     311 -> 316        0.23073

 The electronic state is 1-A.
 Alpha  occ. eigenvalues --  -46.94806 -46.94328 -19.29343 -19.29193 -19.24781
 Alpha  occ. eigenvalues --  -19.24363 -19.24347 -19.24310 -19.23794 -19.23194
 Alpha  occ. eigenvalues --  -14.47270 -14.46714 -14.46235 -14.45820 -14.44844
 Alpha  occ. eigenvalues --  -14.44266 -14.43900 -14.43494 -10.43296 -10.42893
 Alpha  occ. eigenvalues --  -10.39503 -10.39348 -10.39274 -10.38291 -10.35871
 Alpha  occ. eigenvalues --  -10.35694 -10.35328 -10.35032 -10.34902 -10.34869
 Alpha  occ. eigenvalues --  -10.34858 -10.34824 -10.34733 -10.34659 -10.34514
 Alpha  occ. eigenvalues --  -10.34431 -10.34418 -10.34184 -10.33960 -10.33209
 Alpha  occ. eigenvalues --  -10.33194 -10.33137 -10.32890 -10.32801 -10.32775
 Alpha  occ. eigenvalues --  -10.32385 -10.32191 -10.32183 -10.32143 -10.32045
 Alpha  occ. eigenvalues --  -10.32044 -10.31986 -10.31857 -10.31827 -10.31773
 Alpha  occ. eigenvalues --  -10.31676 -10.31655 -10.31562 -10.31509 -10.31492
 Alpha  occ. eigenvalues --  -10.31423 -10.31401 -10.31392 -10.31329 -10.31172
 Alpha  occ. eigenvalues --  -10.31043 -10.30795 -10.30771 -10.30741 -10.30451
 Alpha  occ. eigenvalues --  -10.30384 -10.30377 -10.30285 -10.30273 -10.30269
 Alpha  occ. eigenvalues --  -10.29873 -10.29727 -10.29668 -10.29595 -10.29589
 Alpha  occ. eigenvalues --  -10.29349 -10.29181 -10.29074 -10.28891 -10.28657
 Alpha  occ. eigenvalues --  -10.28484  -3.20796  -3.20435  -1.94392  -1.94044
 Alpha  occ. eigenvalues --   -1.93930  -1.93752  -1.93558  -1.93426  -1.16780
 Alpha  occ. eigenvalues --   -1.15553  -1.13408  -1.11843  -1.11433  -1.10789
 Alpha  occ. eigenvalues --   -1.09406  -1.07987  -1.07192  -1.06780  -1.06069
 Alpha  occ. eigenvalues --   -1.05935  -1.05385  -1.05057  -1.04531  -1.03339
 Alpha  occ. eigenvalues --   -0.94020  -0.93906  -0.91847  -0.91207  -0.90829
 Alpha  occ. eigenvalues --   -0.90508  -0.90341  -0.90223  -0.89778  -0.89394
 Alpha  occ. eigenvalues --   -0.89278  -0.88614  -0.88178  -0.88071  -0.86228
 Alpha  occ. eigenvalues --   -0.86037  -0.85179  -0.84871  -0.84560  -0.84131
 Alpha  occ. eigenvalues --   -0.83838  -0.83437  -0.82733  -0.82386  -0.82323
 Alpha  occ. eigenvalues --   -0.81968  -0.80937  -0.80788  -0.79168  -0.78988
 Alpha  occ. eigenvalues --   -0.78756  -0.78747  -0.77782  -0.77674  -0.76986
 Alpha  occ. eigenvalues --   -0.76711  -0.75103  -0.74071  -0.73596  -0.73259
 Alpha  occ. eigenvalues --   -0.71555  -0.71111  -0.70896  -0.70842  -0.69938
 Alpha  occ. eigenvalues --   -0.69809  -0.69301  -0.68720  -0.67708  -0.67172
 Alpha  occ. eigenvalues --   -0.66953  -0.66908  -0.66612  -0.66604  -0.66403
 Alpha  occ. eigenvalues --   -0.66152  -0.63494  -0.63369  -0.62418  -0.62342
 Alpha  occ. eigenvalues --   -0.61590  -0.61319  -0.61287  -0.61024  -0.60529
 Alpha  occ. eigenvalues --   -0.59991  -0.59816  -0.59729  -0.59299  -0.59119
 Alpha  occ. eigenvalues --   -0.58273  -0.58253  -0.57442  -0.57174  -0.56990
 Alpha  occ. eigenvalues --   -0.56552  -0.56152  -0.55942  -0.55917  -0.55726
 Alpha  occ. eigenvalues --   -0.55369  -0.55268  -0.55139  -0.55077  -0.54877
 Alpha  occ. eigenvalues --   -0.54682  -0.54427  -0.54266  -0.54213  -0.54164
 Alpha  occ. eigenvalues --   -0.53941  -0.53685  -0.53475  -0.53417  -0.53202
 Alpha  occ. eigenvalues --   -0.52888  -0.52743  -0.52497  -0.52471  -0.52127
 Alpha  occ. eigenvalues --   -0.51873  -0.51760  -0.51683  -0.51635  -0.51517
 Alpha  occ. eigenvalues --   -0.51479  -0.51196  -0.50994  -0.50877  -0.50808
 Alpha  occ. eigenvalues --   -0.50567  -0.50415  -0.50300  -0.50292  -0.50045
 Alpha  occ. eigenvalues --   -0.50001  -0.49588  -0.49523  -0.49410  -0.49276
 Alpha  occ. eigenvalues --   -0.49190  -0.49056  -0.48831  -0.48830  -0.48603
 Alpha  occ. eigenvalues --   -0.48595  -0.48001  -0.47911  -0.47740  -0.47266
 Alpha  occ. eigenvalues --   -0.47025  -0.46925  -0.46909  -0.46644  -0.46488
 Alpha  occ. eigenvalues --   -0.46474  -0.46216  -0.46184  -0.46127  -0.46072
 Alpha  occ. eigenvalues --   -0.45963  -0.45803  -0.45797  -0.45530  -0.45350
 Alpha  occ. eigenvalues --   -0.45271  -0.45261  -0.44937  -0.44880  -0.44808
 Alpha  occ. eigenvalues --   -0.44557  -0.44494  -0.44412  -0.43914  -0.43829
 Alpha  occ. eigenvalues --   -0.43748  -0.43662  -0.43448  -0.43324  -0.43174
 Alpha  occ. eigenvalues --   -0.42862  -0.42677  -0.42564  -0.42185  -0.42164
 Alpha  occ. eigenvalues --   -0.41767  -0.41733  -0.41315  -0.41255  -0.40537
 Alpha  occ. eigenvalues --   -0.40480  -0.39796  -0.39682  -0.39336  -0.39236
 Alpha  occ. eigenvalues --   -0.39078  -0.38955  -0.38595  -0.38094  -0.38091
 Alpha  occ. eigenvalues --   -0.37759  -0.37613  -0.36444  -0.36093  -0.35983
 Alpha  occ. eigenvalues --   -0.35900  -0.35538  -0.35496  -0.33840  -0.33164
 Alpha  occ. eigenvalues --   -0.33151  -0.33125  -0.32757  -0.32739  -0.32363
 Alpha  occ. eigenvalues --   -0.31736  -0.31583  -0.31445  -0.26132  -0.25786
 Alpha  occ. eigenvalues --   -0.23376  -0.22563
 Alpha virt. eigenvalues --   -0.07406  -0.06460   0.00231   0.00264   0.02252
 Alpha virt. eigenvalues --    0.02322   0.04306   0.04500   0.06398   0.06852
 Alpha virt. eigenvalues --    0.06909   0.07108   0.07694   0.07900   0.08331

 Mulliken charges:
               1
     1  Mg   0.981249
     2  C   -0.071149
     3  C   -0.108079
     4  C   -0.077240
     5  C   -0.077054
     6  N   -0.334070
     7  C    0.003417
     8  C   -0.040134
     9  C   -0.140169
    10  C    0.072919
    11  C    0.018678
    12  C    0.018224
    13  C   -0.105816
    14  H    0.036536
    15  N   -0.531771
    16  C    0.234371
    17  C   -0.151109
    18  C   -0.045548
    19  C    0.152365
    20  C    0.052012
    21  C    0.017202
    22  O   -0.224864
    23  C   -0.005302
    24  N   -0.321110
    25  C    0.055820
    26  C   -0.094119
    27  C   -0.043708
    28  C    0.027519
    29  C    0.014747
    30  C   -0.005379
    31  C   -0.042813
    32  N   -0.449258
    33  C    0.125097
    34  C   -0.138796
    35  C   -0.084719
    36  C    0.187777
    37  C    0.059645
    38  C    0.113528
    39  O   -0.211580
    40  C   -0.083680
    41  C    0.288640
    42  O   -0.260455
    43  O   -0.404792
    44  C    0.141028
    45  H    0.004113
    46  H    0.032106
    47  H    0.000459
    48  H    0.043821
    49  H    0.038814
    50  H    0.033335
    51  H    0.049274
    52  H    0.023050
    53  H    0.024357
    54  H    0.025355
    55  H    0.048822
    56  H    0.067400
    57  H    0.063471
    58  H    0.049937
    59  H    0.030835
    60  H    0.053331
    61  H    0.056012
    62  H    0.038205
    63  H    0.048284
    64  H    0.027386
    65  H    0.030061
    66  H    0.045665
    67  H    0.051204
    68  H    0.026150
    69  H    0.026656
    70  H    0.037045
    71  H    0.054568
    72  H    0.027415
    73  H    0.054128
    74  H    0.037489
    75  H    0.064167
    76  H    0.072237
    77  H    0.058607
    78  H    0.054421
    79  H    0.053763
    80  Mg   0.959047
    81  C    0.014230
    82  C   -0.115966
    83  C   -0.071739
    84  C   -0.091909
    85  N   -0.268482
    86  C   -0.050294
    87  C   -0.080392
    88  C   -0.081146
    89  C    0.061342
    90  C    0.017844
    91  C   -0.000863
    92  C   -0.101180
    93  H    0.041895
    94  N   -0.420512
    95  C    0.160489
    96  C   -0.187196
    97  C   -0.089467
    98  C    0.146053
    99  C    0.087289
   100  C    0.060750
   101  O   -0.251537
   102  C   -0.004309
   103  N   -0.411572
   104  C    0.041658
   105  C   -0.106299
   106  C   -0.056966
   107  C    0.053353
   108  C    0.041979
   109  C   -0.057080
   110  C   -0.040340
   111  N   -0.481854
   112  C    0.164162
   113  C   -0.192781
   114  C   -0.021479
   115  C    0.160163
   116  C    0.078076
   117  C    0.119480
   118  O   -0.197004
   119  C   -0.104518
   120  C    0.295934
   121  O   -0.245602
   122  O   -0.393137
   123  C    0.148811
   124  H    0.010769
   125  H    0.016608
   126  H   -0.005057
   127  H    0.045968
   128  H    0.028854
   129  H    0.025206
   130  H    0.045313
   131  H    0.027080
   132  H    0.030837
   133  H    0.034371
   134  H    0.044109
   135  H    0.052223
   136  H    0.062381
   137  H    0.037772
   138  H    0.061607
   139  H    0.050565
   140  H    0.063432
   141  H    0.049801
   142  H    0.039307
   143  H    0.036141
   144  H    0.056260
   145  H    0.049516
   146  H    0.029632
   147  H    0.044644
   148  H    0.027427
   149  H    0.033408
   150  H    0.043540
   151  H    0.047370
   152  H    0.057802
   153  H    0.044342
   154  H    0.045810
   155  H    0.074985
   156  H    0.071706
   157  H    0.047354
   158  H    0.039988
 Sum of Mulliken charges =  -0.00000

 Dipole moment (field-independent basis, Debye):
    X=              0.5039    Y=              1.5825    Z=              3.1309  Tot=              3.5441
 Quadrupole moment (field-independent basis, Debye-Ang):
   XX=            -82.1688   YY=           -472.9838   ZZ=           -504.8817
   XY=             25.4140   XZ=           -150.9216   YZ=             13.9583

 Normal termination of Gaussian 16 at Mon Sep 20 09:36:54 2021.
