 Gaussian 16, Revision A.03,
 Gaussian 16:  ES64L-G16RevA.03 25-Dec-2016

 --------------------------------
 #p wB97XD/Def2SVP td=(nstates=5)
 --------------------------------

 --------------------------------
 TDDFT excited states in gaussian
 --------------------------------
 Symbolic Z-matrix:
 Charge =  0 Multiplicity = 1

                         Standard orientation:
 ---------------------------------------------------------------------
 Center     Atomic      Atomic             Coordinates (Angstroms)
 Number     Number       Type             X           Y           Z
 ---------------------------------------------------------------------
      1         12           0      -23.925504    0.423607    0.206472
      2          6           0      -22.257276   -2.471411   -0.446124
      3          6           0      -20.839799    1.996165    0.392843
      4          6           0      -25.580795    3.332922    0.468182
      5          6           0      -26.969182   -1.115436   -0.661363
      6          7           0      -21.792918   -0.143403   -0.265283
      7          6           0      -21.401759   -1.418009   -0.464652
      8          6           0      -19.946018   -1.531177   -0.735555
      9          6           0      -19.451511   -0.101526   -0.069176
     10          6           0      -20.781293    0.673503    0.042790
     11          6           0      -18.684074   -0.293082    1.272219
     12          6           0      -19.705866   -1.587101   -2.235875
     13          6           0      -20.285914   -0.421836   -3.164011
     14          1           0      -19.462631    0.120645   -4.325612
     15          7           0      -23.313125    2.382856    0.400976
     16          6           0      -21.982031    2.828702    0.600199
     17          6           0      -22.053137    4.204040    0.965628
     18          6           0      -23.369815    4.647375    0.953024
     19          6           0      -24.188253    3.462819    0.643889
     20          6           0      -20.757070    4.927009    1.271103
     21          6           0      -23.867343    6.060996    1.138408
     22          8           0      -22.980128    6.927398    1.339444
     23          6           0      -25.194904    6.520860    0.903585
     24          7           0      -25.966073    1.042570   -0.279546
     25          6           0      -26.401658    2.306893   -0.011108
     26          6           0      -27.910240    2.458185   -0.320932
     27          6           0      -28.329614    0.994464   -0.686490
     28          6           0      -27.000043    0.262786   -0.613766
     29          6           0      -28.702843    3.065736    0.816704
     30          6           0      -29.037873    0.933780   -2.143276
     31          6           0      -30.262245    0.013413   -2.205082
     32          7           0      -24.593213   -1.458973   -0.441267
     33          6           0      -25.832601   -2.002354   -0.556573
     34          6           0      -25.658263   -3.426968   -0.639974
     35          6           0      -24.254924   -3.730588   -0.562844
     36          6           0      -23.661120   -2.482728   -0.469630
     37          6           0      -26.716998   -4.402258   -1.026182
     38          6           0      -23.218660   -4.710138   -0.631276
     39          8           0      -23.411967   -5.928837   -0.724889
     40          6           0      -21.914373   -3.942076   -0.522719
     41          6           0      -21.170568   -4.439733    0.660026
     42          8           0      -20.895235   -5.621164    0.733390
     43          8           0      -20.782969   -3.471689    1.535375
     44          6           0      -20.027573   -3.948223    2.695638
     45          1           0      -19.892307    2.427696    0.721876
     46          1           0      -26.114627    4.229786    0.788762
     47          1           0      -27.887145   -1.698553   -0.763407
     48          1           0      -19.410370   -2.386483   -0.323565
     49          1           0      -18.669972    0.359332   -0.674654
     50          1           0      -17.685939    0.136393    1.194468
     51          1           0      -18.572326   -1.367553    1.419965
     52          1           0      -19.191784    0.109892    2.149505
     53          1           0      -20.024840   -2.573993   -2.571767
     54          1           0      -18.624575   -1.713954   -2.287593
     55          1           0      -20.553771    0.502179   -2.651445
     56          1           0      -21.143751   -0.914829   -3.620439
     57          1           0      -20.375930    5.256450    0.304328
     58          1           0      -20.047036    4.215346    1.690541
     59          1           0      -20.823694    5.773929    1.954689
     60          1           0      -25.211927    7.562420    0.581156
     61          1           0      -25.883425    6.304238    1.721373
     62          1           0      -25.511112    5.996841    0.002653
     63          1           0      -27.915645    3.096671   -1.205029
     64          1           0      -28.937777    0.581061    0.117851
     65          1           0      -28.090802    3.408060    1.650736
     66          1           0      -29.579258    2.564660    1.226820
     67          1           0      -29.007548    4.026669    0.401112
     68          1           0      -28.375094    0.602804   -2.942894
     69          1           0      -29.324830    1.922711   -2.500284
     70          1           0      -31.151477    0.640070   -2.267781
     71          1           0      -30.339760   -0.512991   -1.253534
     72          1           0      -30.237798   -0.671640   -3.052693
     73          1           0      -27.522838   -4.579150   -0.314859
     74          1           0      -26.184454   -5.331031   -1.234272
     75          1           0      -27.245253   -4.097962   -1.929823
     76          1           0      -21.350338   -4.175756   -1.426164
     77          1           0      -19.147918   -4.475476    2.325319
     78          1           0      -20.620841   -4.553878    3.380892
     79          1           0      -19.781773   -3.120083    3.360208
     80         12           0       24.185702    0.341398   -0.136620
     81          6           0       22.504011   -2.262464    1.432547
     82          6           0       22.757411    2.480306    2.134548
     83          6           0       25.636440    2.970653   -1.838758
     84          6           0       25.143989   -1.779157   -2.731907
     85          7           0       22.871605    0.094110    1.634598
     86          6           0       22.394943   -1.046504    2.161878
     87          6           0       21.680680   -0.883824    3.523859
     88          6           0       21.563372    0.697863    3.615352
     89          6           0       22.424374    1.169023    2.347297
     90          6           0       20.046180    1.101635    3.582698
     91          6           0       22.634726   -1.553162    4.641013
     92          6           0       21.983025   -2.629875    5.557841
     93          1           0       20.414779   -2.551419    5.622572
     94          7           0       24.167870    2.436421    0.028327
     95          6           0       23.572060    3.115454    1.111205
     96          6           0       23.984208    4.502377    1.072448
     97          6           0       24.763037    4.678609   -0.078243
     98          6           0       24.965103    3.303035   -0.666916
     99          6           0       23.327969    5.553146    1.979318
    100          6           0       25.357736    5.998277   -0.637443
    101          8           0       26.051033    6.092146   -1.667556
    102          6           0       25.146993    7.289386    0.172036
    103          7           0       25.166543    0.524958   -2.065152
    104          6           0       25.728844    1.768636   -2.485518
    105          6           0       26.275566    1.651242   -3.923618
    106          6           0       26.363366    0.060934   -4.072583
    107          6           0       25.542623   -0.440715   -2.855563
    108          6           0       25.362647    2.405352   -4.876315
    109          6           0       27.863013   -0.449859   -3.982017
    110          6           0       28.867059   -0.108273   -2.828849
    111          7           0       23.849122   -1.573328   -0.636245
    112          6           0       24.279209   -2.328474   -1.731648
    113          6           0       23.804777   -3.666702   -1.589535
    114          6           0       23.153578   -3.708129   -0.369908
    115          6           0       23.103461   -2.389598    0.146141
    116          6           0       23.930181   -4.799069   -2.588226
    117          6           0       22.471651   -4.560840    0.520871
    118          8           0       22.177466   -5.699916    0.343533
    119          6           0       21.921690   -3.620881    1.672161
    120          6           0       20.424159   -3.631767    1.536265
    121          8           0       19.776585   -2.708016    1.089694
    122          8           0       19.992699   -4.827690    1.954153
    123          6           0       18.670249   -5.146817    1.474663
    124          1           0       22.374238    3.158577    2.899466
    125          1           0       25.874789    3.824067   -2.475940
    126          1           0       25.426472   -2.454207   -3.543086
    127          1           0       20.711413   -1.376164    3.600394
    128          1           0       22.031131    1.142025    4.494301
    129          1           0       19.808013    1.954155    2.946184
    130          1           0       19.915093    1.327805    4.640508
    131          1           0       19.484718    0.191270    3.374058
    132          1           0       23.109579   -0.737641    5.186082
    133          1           0       23.455787   -2.027647    4.103030
    134          1           0       22.442170   -2.387915    6.515738
    135          1           0       22.234940   -3.660355    5.309094
    136          1           0       22.913468    6.322166    1.326987
    137          1           0       24.097407    6.045844    2.575239
    138          1           0       22.574215    5.080996    2.608659
    139          1           0       24.100316    7.570311    0.048093
    140          1           0       25.718605    8.056844   -0.349586
    141          1           0       25.604791    7.181976    1.155085
    142          1           0       27.296877    2.027826   -3.859907
    143          1           0       26.037999   -0.235044   -5.069243
    144          1           0       24.848824    3.242905   -4.404236
    145          1           0       24.607633    1.738543   -5.292124
    146          1           0       25.937709    2.864688   -5.680052
    147          1           0       28.348425   -0.213409   -4.928942
    148          1           0       27.736209   -1.526039   -3.864030
    149          1           0       29.377577    0.819993   -3.085743
    150          1           0       29.572313   -0.939892   -2.806490
    151          1           0       28.455941   -0.104004   -1.818855
    152          1           0       24.969803   -5.039359   -2.811551
    153          1           0       23.449718   -4.407005   -3.484400
    154          1           0       23.584482   -5.774502   -2.243128
    155          1           0       22.127062   -3.907184    2.703800
    156          1           0       18.500381   -6.212393    1.322210
    157          1           0       18.209092   -4.594474    0.656035
    158          1           0       17.881471   -4.909172    2.188752
 ---------------------------------------------------------------------

 SCF Done:  E(RwB97XD) =  -4070.61302094     A.U. after   19 cycles

 Excitation energies and oscillator strengths:

 Excited State   1:      Singlet-A      1.6514 eV  750.78 nm  f=0.3813  <S**2>=0.000
     310 -> 316       -0.18082
     312 -> 314        0.68423
     310 <- 316       -0.11556
 This state for optimization and/or second-order correction.
 Total Energy, E(TD-HF/TD-DFT) =  -4070.55233305
 Copying the excited state density for this state as the 1-particle RhoCI density.

 Excited State   2:      Singlet-A      1.6884 eV  734.31 nm  f=0.3978  <S**2>=0.000
     309 -> 315       -0.18195
     311 -> 313        0.68308
     309 <- 315       -0.11275

 Excited State   3:      Singlet-A      2.1633 eV  573.14 nm  f=0.1277  <S**2>=0.000
     309 -> 313        0.64773
     311 -> 315        0.25628

 Excited State   4:      Singlet-A      2.1706 eV  571.19 nm  f=0.1231  <S**2>=0.000
     310 -> 314        0.64456
     312 -> 316        0.27780

 Excited State   5:      Singlet-A      3.2087 eV  386.40 nm  f=0.0008  <S**2>=0.000
     305 -> 313       -0.33691
     308 -> 313        0.59928

 The electronic state is 1-A.
 Alpha  occ. eigenvalues --  -46.95473 -46.94411 -19.31593 -19.31391 -19.25015
 Alpha  occ. eigenvalues --  -19.24442 -19.24420 -19.23575 -19.23313 -19.23240
 Alpha  occ. eigenvalues --  -14.46832 -14.46671 -14.46656 -14.46016 -14.44449
 Alpha  occ. eigenvalues --  -14.44110 -14.43697 -14.43178 -10.43297 -10.43164
 Alpha  occ. eigenvalues --  -10.39043 -10.38860 -10.38821 -10.38440 -10.36486
 Alpha  occ. eigenvalues --  -10.35743 -10.35665 -10.35339 -10.35237 -10.35102
 Alpha  occ. eigenvalues --  -10.34688 -10.34505 -10.34481 -10.34324 -10.34273
 Alpha  occ. eigenvalues --  -10.34186 -10.33882 -10.33816 -10.33607 -10.33597
 Alpha  occ. eigenvalues --  -10.33169 -10.33033 -10.32959 -10.32611 -10.32598
 Alpha  occ. eigenvalues --  -10.32510 -10.32460 -10.32440 -10.32438 -10.32423
 Alpha  occ. eigenvalues --  -10.32342 -10.32200 -10.32169 -10.32096 -10.31904
 Alpha  occ. eigenvalues --  -10.31813 -10.31750 -10.31702 -10.31626 -10.31530
 Alpha  occ. eigenvalues --  -10.31444 -10.31373 -10.31269 -10.31191 -10.31070
 Alpha  occ. eigenvalues --  -10.31032 -10.30934 -10.30784 -10.30774 -10.30743
 Alpha  occ. eigenvalues --  -10.30568 -10.30478 -10.30429 -10.30346 -10.30218
 Alpha  occ. eigenvalues --  -10.30191 -10.29653 -10.29612 -10.29525 -10.29426
 Alpha  occ. eigenvalues --  -10.29418 -10.29173 -10.29075 -10.28817 -10.28775
 Alpha  occ. eigenvalues --  -10.28557  -3.21378  -3.20444  -1.94939  -1.94518
 Alpha  occ. eigenvalues --   -1.94327  -1.94037  -1.93546  -1.93436  -1.20360
 Alpha  occ. eigenvalues --   -1.19580  -1.14300  -1.11278  -1.11238  -1.10637
 Alpha  occ. eigenvalues --   -1.10477  -1.10204  -1.06985  -1.06546  -1.06180
 Alpha  occ. eigenvalues --   -1.05324  -1.04745  -1.04738  -1.03603  -1.03131
 Alpha  occ. eigenvalues --   -0.96052  -0.94819  -0.91242  -0.90914  -0.90636
 Alpha  occ. eigenvalues --   -0.90426  -0.89982  -0.89714  -0.89621  -0.89018
 Alpha  occ. eigenvalues --   -0.88423  -0.88345  -0.87916  -0.87785  -0.87023
 Alpha  occ. eigenvalues --   -0.86012  -0.85877  -0.85293  -0.85256  -0.84706
 Alpha  occ. eigenvalues --   -0.84148  -0.83396  -0.83153  -0.82858  -0.82798
 Alpha  occ. eigenvalues --   -0.81865  -0.80573  -0.79975  -0.79635  -0.79011
 Alpha  occ. eigenvalues --   -0.78976  -0.78653  -0.78062  -0.77778  -0.76935
 Alpha  occ. eigenvalues --   -0.76880  -0.74959  -0.74482  -0.74120  -0.73136
 Alpha  occ. eigenvalues --   -0.72083  -0.71079  -0.70816  -0.70792  -0.70628
 Alpha  occ. eigenvalues --   -0.69929  -0.69170  -0.68484  -0.68320  -0.67805
 Alpha  occ. eigenvalues --   -0.67350  -0.67210  -0.66538  -0.66452  -0.66365
 Alpha  occ. eigenvalues --   -0.65861  -0.65808  -0.64364  -0.62226  -0.61979
 Alpha  occ. eigenvalues --   -0.61711  -0.61409  -0.61337  -0.60900  -0.60735
 Alpha  occ. eigenvalues --   -0.60381  -0.60380  -0.60033  -0.59991  -0.59234
 Alpha  occ. eigenvalues --   -0.58749  -0.58581  -0.58203  -0.57778  -0.57656
 Alpha  occ. eigenvalues --   -0.57096  -0.56900  -0.56471  -0.56360  -0.56218
 Alpha  occ. eigenvalues --   -0.55888  -0.55703  -0.55447  -0.55308  -0.55055
 Alpha  occ. eigenvalues --   -0.55028  -0.54463  -0.54433  -0.54094  -0.53891
 Alpha  occ. eigenvalues --   -0.53821  -0.53814  -0.53718  -0.53675  -0.53344
 Alpha  occ. eigenvalues --   -0.53021  -0.52861  -0.52817  -0.52575  -0.52327
 Alpha  occ. eigenvalues --   -0.51842  -0.51757  -0.51580  -0.51449  -0.51435
 Alpha  occ. eigenvalues --   -0.51056  -0.51051  -0.50734  -0.50703  -0.50589
 Alpha  occ. eigenvalues --   -0.50478  -0.50420  -0.50217  -0.50070  -0.49845
 Alpha  occ. eigenvalues --   -0.49656  -0.49551  -0.49389  -0.49084  -0.49037
 Alpha  occ. eigenvalues --   -0.48661  -0.48576  -0.48418  -0.48382  -0.48177
 Alpha  occ. eigenvalues --   -0.48084  -0.48010  -0.47743  -0.47676  -0.47561
 Alpha  occ. eigenvalues --   -0.47479  -0.47145  -0.47135  -0.46890  -0.46825
 Alpha  occ. eigenvalues --   -0.46589  -0.46523  -0.46516  -0.46480  -0.46433
 Alpha  occ. eigenvalues --   -0.46244  -0.45699  -0.45666  -0.45568  -0.45512
 Alpha  occ. eigenvalues --   -0.45364  -0.44988  -0.44905  -0.44750  -0.44566
 Alpha  occ. eigenvalues --   -0.44330  -0.44282  -0.44235  -0.44191  -0.43838
 Alpha  occ. eigenvalues --   -0.43792  -0.43743  -0.43700  -0.43307  -0.43260
 Alpha  occ. eigenvalues --   -0.43079  -0.42938  -0.42687  -0.42595  -0.42352
 Alpha  occ. eigenvalues --   -0.42177  -0.41445  -0.41431  -0.41099  -0.41038
 Alpha  occ. eigenvalues --   -0.40663  -0.39799  -0.39707  -0.39658  -0.39473
 Alpha  occ. eigenvalues --   -0.39386  -0.39092  -0.38995  -0.38974  -0.38435
 Alpha  occ. eigenvalues --   -0.38147  -0.37893  -0.36750  -0.36721  -0.36078
 Alpha  occ. eigenvalues --   -0.35981  -0.35299  -0.34925  -0.33997  -0.33802
 Alpha  occ. eigenvalues --   -0.33047  -0.32822  -0.32477  -0.32398  -0.32313
 Alpha  occ. eigenvalues --   -0.32303  -0.31686  -0.31138  -0.26226  -0.25679
 Alpha  occ. eigenvalues --   -0.23479  -0.22774
 Alpha virt. eigenvalues --   -0.07499  -0.06893   0.00048   0.00614   0.02214
 Alpha virt. eigenvalues --    0.02621   0.04120   0.04461   0.04608   0.05626
 Alpha virt. eigenvalues --    0.07115   0.07357   0.08021   0.08330   0.08577

 Mulliken charges:
               1
     1  Mg   0.931805
     2  C   -0.001242
     3  C   -0.065700
     4  C   -0.091515
     5  C   -0.077517
     6  N   -0.307327
     7  C    0.004381
     8  C   -0.074739
     9  C   -0.126315
    10  C    0.080489
    11  C    0.020497
    12  C    0.007965
    13  C   -0.131072
    14  H    0.036925
    15  N   -0.514492
    16  C    0.148822
    17  C   -0.151885
    18  C   -0.055423
    19  C    0.178030
    20  C    0.087405
    21  C    0.034422
    22  O   -0.271030
    23  C    0.017082
    24  N   -0.324786
    25  C    0.043668
    26  C   -0.057449
    27  C   -0.088523
    28  C    0.105963
    29  C    0.017425
    30  C   -0.009886
    31  C   -0.055795
    32  N   -0.439956
    33  C    0.094686
    34  C   -0.179715
    35  C    0.011861
    36  C    0.117636
    37  C    0.048047
    38  C    0.070971
    39  O   -0.201902
    40  C   -0.081113
    41  C    0.257042
    42  O   -0.227858
    43  O   -0.352612
    44  C    0.138916
    45  H   -0.003850
    46  H   -0.037287
    47  H   -0.005215
    48  H    0.022152
    49  H    0.037583
    50  H    0.038108
    51  H    0.026473
    52  H    0.039070
    53  H    0.025047
    54  H    0.032730
    55  H    0.078011
    56  H    0.066405
    57  H    0.053645
    58  H    0.029912
    59  H    0.063894
    60  H    0.061101
    61  H    0.077272
    62  H    0.047631
    63  H    0.049736
    64  H    0.040762
    65  H    0.036114
    66  H    0.051920
    67  H    0.027123
    68  H    0.036493
    69  H    0.027989
    70  H    0.034953
    71  H    0.031358
    72  H    0.047289
    73  H    0.038322
    74  H    0.058177
    75  H    0.037803
    76  H    0.089631
    77  H    0.063423
    78  H    0.059056
    79  H    0.050983
    80  Mg   0.964299
    81  C   -0.022370
    82  C   -0.067104
    83  C   -0.064538
    84  C   -0.108239
    85  N   -0.333631
    86  C    0.014080
    87  C   -0.076066
    88  C   -0.120537
    89  C    0.066995
    90  C    0.027400
    91  C   -0.000244
    92  C   -0.127145
    93  H    0.034989
    94  N   -0.460762
    95  C    0.133475
    96  C   -0.174152
    97  C   -0.090031
    98  C    0.138116
    99  C    0.086264
   100  C    0.051143
   101  O   -0.252405
   102  C   -0.016171
   103  N   -0.338767
   104  C    0.022122
   105  C   -0.061283
   106  C   -0.072424
   107  C    0.096945
   108  C    0.041997
   109  C   -0.059417
   110  C   -0.054436
   111  N   -0.488624
   112  C    0.148411
   113  C   -0.184004
   114  C   -0.008240
   115  C    0.148215
   116  C    0.079499
   117  C    0.095205
   118  O   -0.162830
   119  C   -0.097330
   120  C    0.245582
   121  O   -0.237008
   122  O   -0.309752
   123  C    0.140923
   124  H   -0.012965
   125  H    0.030846
   126  H    0.003278
   127  H    0.039874
   128  H    0.038818
   129  H    0.052150
   130  H    0.032866
   131  H    0.049458
   132  H    0.033231
   133  H    0.042336
   134  H    0.057023
   135  H    0.070051
   136  H    0.044607
   137  H    0.039407
   138  H    0.041537
   139  H    0.061794
   140  H    0.044444
   141  H    0.063923
   142  H    0.035102
   143  H    0.030283
   144  H    0.046246
   145  H    0.035065
   146  H    0.037258
   147  H    0.038906
   148  H    0.021492
   149  H    0.047718
   150  H    0.037254
   151  H    0.043653
   152  H    0.037577
   153  H    0.056851
   154  H    0.057401
   155  H    0.056450
   156  H    0.058032
   157  H    0.054718
   158  H    0.025164
 Sum of Mulliken charges =  -0.00000

 Dipole moment (field-independent basis, Debye):
    X=             -1.7041    Y=              3.8020    Z=              4.0322  Tot=              5.7981
 Quadrupole moment (field-independent basis, Debye-Ang):
   XX=           -364.9378   YY=           -591.9903   ZZ=           -478.0974
   XY=           -122.5368   XZ=             16.5270   YZ=              5.0305

 Normal termination of Gaussian 16 at Sun Sep 19 19:47:06 2021.
