 Gaussian 16, Revision A.03,
 Gaussian 16:  ES64L-G16RevA.03 25-Dec-2016

 --------------------------------
 #p wB97XD/Def2SVP td=(nstates=5)
 --------------------------------

 --------------------------------
 TDDFT excited states in gaussian
 --------------------------------
 Symbolic Z-matrix:
 Charge =  0 Multiplicity = 1

                         Standard orientation:
 ---------------------------------------------------------------------
 Center     Atomic      Atomic             Coordinates (Angstroms)
 Number     Number       Type             X           Y           Z
 ---------------------------------------------------------------------
      1         12           0      -27.211057   -0.623046   -0.147678
      2          6           0      -25.439090    2.097419   -1.256274
      3          6           0      -28.969924    1.452521    1.939386
      4          6           0      -28.934738   -3.376468    1.067121
      5          6           0      -25.113426   -2.723349   -1.939054
      6          7           0      -27.190282    1.563532    0.355723
      7          6           0      -26.414986    2.458090   -0.325532
      8          6           0      -26.678273    3.816736    0.113253
      9          6           0      -27.642649    3.686317    1.281581
     10          6           0      -27.963819    2.128214    1.251022
     11          6           0      -27.181725    4.174264    2.698406
     12          6           0      -27.217121    4.709419   -1.056060
     13          6           0      -26.822790    6.226654   -1.034403
     14          1           0      -26.560858    6.866675    0.343059
     15          7           0      -28.827283   -0.872965    1.232294
     16          6           0      -29.410853    0.141113    1.972234
     17          6           0      -30.470647   -0.437794    2.822638
     18          6           0      -30.478401   -1.877264    2.570330
     19          6           0      -29.412404   -2.102893    1.578734
     20          6           0      -31.330683    0.355556    3.792820
     21          6           0      -31.456079   -2.900297    3.099820
     22          8           0      -31.362747   -4.079509    2.716166
     23          6           0      -32.523203   -2.616705    4.089709
     24          7           0      -27.011034   -2.758830   -0.329137
     25          6           0      -27.865871   -3.628918    0.216165
     26          6           0      -27.587232   -5.055193   -0.286650
     27          6           0      -26.499193   -4.861010   -1.477948
     28          6           0      -26.246263   -3.323620   -1.290255
     29          6           0      -27.125677   -5.987612    0.875474
     30          6           0      -27.015845   -5.163409   -2.911279
     31          6           0      -26.409285   -6.400392   -3.590502
     32          7           0      -25.540364   -0.417944   -1.318572
     33          6           0      -24.763114   -1.368060   -1.985049
     34          6           0      -23.673780   -0.701498   -2.732571
     35          6           0      -23.928961    0.657247   -2.431710
     36          6           0      -25.054079    0.772773   -1.572173
     37          6           0      -22.671551   -1.298701   -3.591866
     38          6           0      -23.509704    2.034452   -2.764397
     39          8           0      -22.672485    2.454784   -3.518139
     40          6           0      -24.453417    3.009975   -1.974816
     41          6           0      -23.617156    3.928987   -1.186238
     42          8           0      -23.004810    3.518014   -0.187408
     43          8           0      -23.694501    5.236369   -1.557639
     44          6           0      -23.063455    6.244153   -0.711289
     45          1           0      -29.512363    2.140599    2.591135
     46          1           0      -29.463746   -4.233855    1.488998
     47          1           0      -24.562448   -3.410086   -2.584863
     48          1           0      -25.738869    4.239759    0.470830
     49          1           0      -28.618327    4.109528    1.039916
     50          1           0      -26.204126    4.629306    2.860869
     51          1           0      -27.253498    3.328455    3.381749
     52          1           0      -27.878921    4.869924    3.166042
     53          1           0      -28.296127    4.582769   -1.145234
     54          1           0      -26.954448    4.240327   -2.004060
     55          1           0      -27.590213    6.818416   -1.534181
     56          1           0      -25.862907    6.422372   -1.511420
     57          1           0      -31.186924    1.432760    3.716143
     58          1           0      -31.087040    0.107545    4.826271
     59          1           0      -32.380844    0.274877    3.512762
     60          1           0      -33.100345   -3.535569    4.188633
     61          1           0      -33.176015   -1.791311    3.802700
     62          1           0      -32.072457   -2.264426    5.017675
     63          1           0      -28.493279   -5.393786   -0.789345
     64          1           0      -25.568183   -5.393562   -1.284076
     65          1           0      -27.667686   -6.932535    0.915810
     66          1           0      -27.270474   -5.503686    1.841753
     67          1           0      -26.054823   -6.104839    0.707559
     68          1           0      -26.860155   -4.340372   -3.607752
     69          1           0      -28.096754   -5.304088   -2.931929
     70          1           0      -26.110505   -7.121652   -2.829746
     71          1           0      -25.517584   -6.082762   -4.130029
     72          1           0      -27.138253   -6.739382   -4.325414
     73          1           0      -22.218796   -0.580575   -4.275181
     74          1           0      -23.052411   -2.129099   -4.186089
     75          1           0      -21.812159   -1.548862   -2.969629
     76          1           0      -24.978210    3.496880   -2.797476
     77          1           0      -21.975658    6.180360   -0.672885
     78          1           0      -23.513141    6.257648    0.281491
     79          1           0      -23.245598    7.233920   -1.129669
     80         12           0       27.350938   -0.619057    0.151130
     81          6           0       25.513238    2.237144    1.071970
     82          6           0       28.354430    1.109768   -2.694000
     83          6           0       28.798670   -3.440692   -0.833767
     84          6           0       25.556372   -2.501216    2.626507
     85          7           0       26.962421    1.399267   -0.711578
     86          6           0       26.267826    2.433354   -0.068402
     87          6           0       26.658767    3.759349   -0.694245
     88          6           0       27.328462    3.384310   -2.046858
     89          6           0       27.571423    1.864243   -1.803538
     90          6           0       26.540148    3.762183   -3.340115
     91          6           0       27.531995    4.683872    0.223100
     92          6           0       27.306410    6.241372   -0.017795
     93          1           0       26.333078    6.660216   -1.122875
     94          7           0       28.493580   -1.039253   -1.415909
     95          6           0       28.860184   -0.183759   -2.440546
     96          6           0       29.801340   -0.816728   -3.318784
     97          6           0       29.856998   -2.179708   -2.884300
     98          6           0       29.071035   -2.243123   -1.665018
     99          6           0       30.421815   -0.120016   -4.568106
    100          6           0       30.566224   -3.334167   -3.513246
    101          8           0       30.397121   -4.508187   -3.105745
    102          6           0       31.510675   -3.351272   -4.751091
    103          7           0       27.012342   -2.730480    0.608577
    104          6           0       27.828588   -3.688319    0.129857
    105          6           0       27.671173   -4.994082    0.948922
    106          6           0       26.627105   -4.713196    2.035564
    107          6           0       26.410950   -3.159445    1.763109
    108          6           0       27.461583   -6.185893    0.065395
    109          6           0       27.022184   -5.036853    3.492442
    110          6           0       28.272721   -4.291572    4.020547
    111          7           0       25.777834   -0.284922    1.560111
    112          6           0       25.312153   -1.082339    2.549581
    113          6           0       24.519620   -0.231120    3.435593
    114          6           0       24.559345    1.106219    2.950935
    115          6           0       25.311204    1.023531    1.753738
    116          6           0       23.875199   -0.668266    4.748424
    117          6           0       24.123649    2.448106    3.172172
    118          8           0       23.535420    3.013062    4.090420
    119          6           0       24.705104    3.279059    1.852000
    120          6           0       23.557238    4.003276    1.174096
    121          8           0       22.775755    3.463452    0.415754
    122          8           0       23.592918    5.350092    1.455667
    123          6           0       22.393915    6.150666    1.229777
    124          1           0       28.705862    1.783948   -3.477620
    125          1           0       29.376311   -4.311335   -1.150309
    126          1           0       25.154054   -3.111542    3.437373
    127          1           0       25.758937    4.338123   -0.902129
    128          1           0       28.294541    3.887653   -2.071488
    129          1           0       26.453389    2.801969   -3.847498
    130          1           0       27.146893    4.394238   -3.989666
    131          1           0       25.541972    4.192456   -3.259145
    132          1           0       28.594939    4.555482    0.021100
    133          1           0       27.358528    4.404894    1.261625
    134          1           0       28.249387    6.652312   -0.378718
    135          1           0       27.001322    6.673753    0.934821
    136          1           0       30.480821   -0.864721   -5.362791
    137          1           0       31.436952    0.233152   -4.389966
    138          1           0       29.966679    0.767787   -5.006889
    139          1           0       32.339513   -2.656649   -4.611716
    140          1           0       30.980956   -3.154865   -5.683213
    141          1           0       32.147862   -4.232387   -4.816883
    142          1           0       28.666494   -5.215626    1.331947
    143          1           0       25.709134   -5.165395    1.658482
    144          1           0       28.362840   -6.787312   -0.054940
    145          1           0       27.065996   -5.867765   -0.899315
    146          1           0       26.688503   -6.871036    0.415061
    147          1           0       27.255294   -6.101128    3.453754
    148          1           0       26.174648   -4.869621    4.157797
    149          1           0       27.921257   -3.718790    4.878501
    150          1           0       28.618442   -3.647251    3.212150
    151          1           0       29.123226   -4.938083    4.237360
    152          1           0       24.014091    0.060373    5.546602
    153          1           0       24.362283   -1.553347    5.156663
    154          1           0       22.836006   -0.927609    4.544286
    155          1           0       25.358476    4.037907    2.283286
    156          1           0       21.955919    5.794491    0.296990
    157          1           0       22.571546    7.220555    1.120205
    158          1           0       21.781434    6.012915    2.120874
 ---------------------------------------------------------------------

 SCF Done:  E(RwB97XD) =  -4070.65503645     A.U. after   20 cycles

 Excitation energies and oscillator strengths:

 Excited State   1:      Singlet-A      1.6019 eV  773.96 nm  f=0.4034  <S**2>=0.000
     309 -> 316       -0.17292
     311 -> 313        0.68565
     309 <- 316       -0.11419
 This state for optimization and/or second-order correction.
 Total Energy, E(TD-HF/TD-DFT) =  -4070.59616601
 Copying the excited state density for this state as the 1-particle RhoCI density.

 Excited State   2:      Singlet-A      1.6696 eV  742.58 nm  f=0.3860  <S**2>=0.000
     310 -> 315       -0.19468
     312 -> 314        0.68027
     310 <- 315       -0.11868

 Excited State   3:      Singlet-A      2.1364 eV  580.34 nm  f=0.1498  <S**2>=0.000
     309 -> 313        0.65483
     311 -> 316        0.24832

 Excited State   4:      Singlet-A      2.1969 eV  564.37 nm  f=0.0831  <S**2>=0.000
     310 -> 314        0.62404
     312 -> 315        0.31825

 Excited State   5:      Singlet-A      3.2950 eV  376.28 nm  f=0.0030  <S**2>=0.000
     305 -> 313        0.52479
     305 -> 316       -0.13538
     305 -> 317        0.34595
     305 -> 319        0.20415

 The electronic state is 1-A.
 Alpha  occ. eigenvalues --  -46.95243 -46.95206 -19.31172 -19.29469 -19.24389
 Alpha  occ. eigenvalues --  -19.24244 -19.24169 -19.24073 -19.23411 -19.23395
 Alpha  occ. eigenvalues --  -14.47163 -14.46394 -14.46273 -14.45971 -14.44888
 Alpha  occ. eigenvalues --  -14.44106 -14.43945 -14.43816 -10.43403 -10.42944
 Alpha  occ. eigenvalues --  -10.39593 -10.39477 -10.38921 -10.38857 -10.36057
 Alpha  occ. eigenvalues --  -10.35630 -10.35111 -10.34944 -10.34907 -10.34785
 Alpha  occ. eigenvalues --  -10.34754 -10.34677 -10.34650 -10.34537 -10.34405
 Alpha  occ. eigenvalues --  -10.34330 -10.34106 -10.34056 -10.33937 -10.33821
 Alpha  occ. eigenvalues --  -10.33720 -10.33329 -10.33277 -10.33235 -10.33005
 Alpha  occ. eigenvalues --  -10.32662 -10.32505 -10.32314 -10.32312 -10.32292
 Alpha  occ. eigenvalues --  -10.32187 -10.32094 -10.32044 -10.32025 -10.31951
 Alpha  occ. eigenvalues --  -10.31877 -10.31807 -10.31643 -10.31613 -10.31557
 Alpha  occ. eigenvalues --  -10.31460 -10.31418 -10.31417 -10.31409 -10.31317
 Alpha  occ. eigenvalues --  -10.31239 -10.31017 -10.30880 -10.30634 -10.30567
 Alpha  occ. eigenvalues --  -10.30510 -10.30195 -10.30113 -10.30106 -10.30085
 Alpha  occ. eigenvalues --  -10.29957 -10.29917 -10.29913 -10.29910 -10.29422
 Alpha  occ. eigenvalues --  -10.29406 -10.29346 -10.29303 -10.29300 -10.29145
 Alpha  occ. eigenvalues --  -10.28729  -3.21255  -3.21076  -1.94815  -1.94686
 Alpha  occ. eigenvalues --   -1.94378  -1.94235  -1.94182  -1.94052  -1.18599
 Alpha  occ. eigenvalues --   -1.17597  -1.13173  -1.11665  -1.11121  -1.10626
 Alpha  occ. eigenvalues --   -1.09628  -1.09296  -1.07100  -1.06344  -1.06043
 Alpha  occ. eigenvalues --   -1.05466  -1.05381  -1.05219  -1.04114  -1.02991
 Alpha  occ. eigenvalues --   -0.94439  -0.94134  -0.91029  -0.90996  -0.90398
 Alpha  occ. eigenvalues --   -0.90154  -0.90098  -0.89578  -0.89265  -0.89114
 Alpha  occ. eigenvalues --   -0.88769  -0.88645  -0.88196  -0.87234  -0.85871
 Alpha  occ. eigenvalues --   -0.85688  -0.85435  -0.85211  -0.84193  -0.84074
 Alpha  occ. eigenvalues --   -0.83777  -0.83138  -0.82979  -0.82561  -0.82497
 Alpha  occ. eigenvalues --   -0.81951  -0.80657  -0.80390  -0.79473  -0.79229
 Alpha  occ. eigenvalues --   -0.78839  -0.78662  -0.78136  -0.77748  -0.76923
 Alpha  occ. eigenvalues --   -0.76804  -0.74582  -0.74496  -0.73474  -0.73026
 Alpha  occ. eigenvalues --   -0.71810  -0.71154  -0.71104  -0.70311  -0.70253
 Alpha  occ. eigenvalues --   -0.70005  -0.69507  -0.68911  -0.67761  -0.67326
 Alpha  occ. eigenvalues --   -0.67195  -0.67032  -0.66842  -0.66316  -0.66130
 Alpha  occ. eigenvalues --   -0.66044  -0.64696  -0.63616  -0.62922  -0.61823
 Alpha  occ. eigenvalues --   -0.61550  -0.61435  -0.61201  -0.60780  -0.60700
 Alpha  occ. eigenvalues --   -0.60201  -0.60032  -0.59378  -0.59264  -0.58903
 Alpha  occ. eigenvalues --   -0.58029  -0.57882  -0.57817  -0.57658  -0.57339
 Alpha  occ. eigenvalues --   -0.56770  -0.56723  -0.56656  -0.55901  -0.55837
 Alpha  occ. eigenvalues --   -0.55384  -0.55383  -0.54974  -0.54863  -0.54711
 Alpha  occ. eigenvalues --   -0.54667  -0.54476  -0.54329  -0.54261  -0.54134
 Alpha  occ. eigenvalues --   -0.53901  -0.53537  -0.53398  -0.53257  -0.53221
 Alpha  occ. eigenvalues --   -0.53057  -0.52941  -0.52592  -0.52119  -0.51981
 Alpha  occ. eigenvalues --   -0.51898  -0.51795  -0.51479  -0.51279  -0.51145
 Alpha  occ. eigenvalues --   -0.51099  -0.50918  -0.50915  -0.50654  -0.50539
 Alpha  occ. eigenvalues --   -0.50441  -0.50364  -0.50120  -0.50001  -0.49838
 Alpha  occ. eigenvalues --   -0.49811  -0.49655  -0.49392  -0.49338  -0.49145
 Alpha  occ. eigenvalues --   -0.49048  -0.48627  -0.48596  -0.48300  -0.48241
 Alpha  occ. eigenvalues --   -0.48170  -0.47798  -0.47766  -0.47613  -0.47431
 Alpha  occ. eigenvalues --   -0.47372  -0.47140  -0.47126  -0.46829  -0.46656
 Alpha  occ. eigenvalues --   -0.46457  -0.46399  -0.46242  -0.46132  -0.45971
 Alpha  occ. eigenvalues --   -0.45886  -0.45742  -0.45545  -0.45386  -0.45371
 Alpha  occ. eigenvalues --   -0.45098  -0.45079  -0.44950  -0.44943  -0.44528
 Alpha  occ. eigenvalues --   -0.44506  -0.44283  -0.44057  -0.43851  -0.43778
 Alpha  occ. eigenvalues --   -0.43776  -0.43553  -0.43492  -0.43363  -0.43122
 Alpha  occ. eigenvalues --   -0.42823  -0.42632  -0.42568  -0.42509  -0.42231
 Alpha  occ. eigenvalues --   -0.41972  -0.41848  -0.41499  -0.41398  -0.41137
 Alpha  occ. eigenvalues --   -0.40550  -0.40072  -0.39737  -0.39574  -0.39407
 Alpha  occ. eigenvalues --   -0.39187  -0.38885  -0.38764  -0.38689  -0.38249
 Alpha  occ. eigenvalues --   -0.37958  -0.37919  -0.36017  -0.36008  -0.35901
 Alpha  occ. eigenvalues --   -0.35687  -0.35349  -0.35236  -0.33665  -0.33265
 Alpha  occ. eigenvalues --   -0.32951  -0.32880  -0.32750  -0.32686  -0.32232
 Alpha  occ. eigenvalues --   -0.32216  -0.31685  -0.31631  -0.26022  -0.25783
 Alpha  occ. eigenvalues --   -0.23174  -0.22591
 Alpha virt. eigenvalues --   -0.07591  -0.06639   0.00199   0.00534   0.02021
 Alpha virt. eigenvalues --    0.02602   0.04096   0.04690   0.04699   0.06134
 Alpha virt. eigenvalues --    0.06626   0.07387   0.07784   0.07954   0.08617

 Mulliken charges:
               1
     1  Mg   0.952424
     2  C   -0.030041
     3  C   -0.087590
     4  C   -0.053750
     5  C   -0.079047
     6  N   -0.317069
     7  C   -0.009137
     8  C   -0.053954
     9  C   -0.041575
    10  C   -0.008995
    11  C    0.019989
    12  C    0.021069
    13  C   -0.115103
    14  H    0.015628
    15  N   -0.461349
    16  C    0.197403
    17  C   -0.169642
    18  C   -0.061206
    19  C    0.119876
    20  C    0.061253
    21  C    0.038516
    22  O   -0.262829
    23  C    0.013389
    24  N   -0.333084
    25  C    0.064254
    26  C   -0.091962
    27  C   -0.098932
    28  C    0.041258
    29  C    0.031143
    30  C   -0.015236
    31  C   -0.053814
    32  N   -0.449234
    33  C    0.129851
    34  C   -0.162196
    35  C   -0.055545
    36  C    0.145162
    37  C    0.075961
    38  C    0.096368
    39  O   -0.183866
    40  C   -0.042124
    41  C    0.280566
    42  O   -0.276041
    43  O   -0.352445
    44  C    0.141000
    45  H   -0.023833
    46  H    0.028201
    47  H   -0.002387
    48  H    0.045933
    49  H    0.034445
    50  H    0.048889
    51  H    0.031141
    52  H    0.026851
    53  H    0.018629
    54  H    0.024806
    55  H    0.055068
    56  H    0.066996
    57  H    0.025617
    58  H    0.064193
    59  H    0.051398
    60  H    0.063672
    61  H    0.041619
    62  H    0.053102
    63  H    0.040543
    64  H    0.038383
    65  H    0.048232
    66  H    0.046066
    67  H    0.029742
    68  H    0.031755
    69  H    0.025719
    70  H    0.040606
    71  H    0.032186
    72  H    0.041527
    73  H    0.049769
    74  H    0.047511
    75  H    0.057529
    76  H    0.066900
    77  H    0.067244
    78  H    0.052489
    79  H    0.050120
    80  Mg   0.972022
    81  C    0.006961
    82  C   -0.061593
    83  C   -0.062970
    84  C   -0.063059
    85  N   -0.337685
    86  C   -0.003294
    87  C   -0.035431
    88  C   -0.097855
    89  C    0.010261
    90  C    0.027404
    91  C   -0.006687
    92  C   -0.129131
    93  H    0.034105
    94  N   -0.495044
    95  C    0.189786
    96  C   -0.136882
    97  C   -0.054454
    98  C    0.137793
    99  C    0.058943
   100  C    0.036198
   101  O   -0.271630
   102  C   -0.006984
   103  N   -0.340820
   104  C    0.077686
   105  C   -0.129593
   106  C   -0.020084
   107  C    0.012654
   108  C    0.021353
   109  C   -0.019652
   110  C   -0.045851
   111  N   -0.429077
   112  C    0.150760
   113  C   -0.205191
   114  C    0.004366
   115  C    0.123000
   116  C    0.072283
   117  C    0.116710
   118  O   -0.207610
   119  C   -0.128507
   120  C    0.274781
   121  O   -0.237531
   122  O   -0.379801
   123  C    0.133597
   124  H   -0.002999
   125  H    0.023033
   126  H   -0.004366
   127  H    0.030771
   128  H    0.033129
   129  H    0.030654
   130  H    0.034871
   131  H    0.058477
   132  H    0.029790
   133  H    0.037217
   134  H    0.054503
   135  H    0.069161
   136  H    0.037198
   137  H    0.051141
   138  H    0.045657
   139  H    0.030948
   140  H    0.073533
   141  H    0.048593
   142  H    0.037205
   143  H    0.038785
   144  H    0.043478
   145  H    0.041863
   146  H    0.022295
   147  H    0.033282
   148  H    0.039436
   149  H    0.046924
   150  H    0.038534
   151  H    0.042997
   152  H    0.057611
   153  H    0.018513
   154  H    0.059417
   155  H    0.065554
   156  H    0.060246
   157  H    0.053709
   158  H    0.064595
 Sum of Mulliken charges =  -0.00000

 Dipole moment (field-independent basis, Debye):
    X=              1.4207    Y=              3.4699    Z=             -0.8713  Tot=              3.8494
 Quadrupole moment (field-independent basis, Debye-Ang):
   XX=            -97.6237   YY=           -472.0458   ZZ=           -497.1354
   XY=            -15.6309   XZ=            -65.2119   YZ=             -7.4388

 Normal termination of Gaussian 16 at Sun Sep 19 23:02:28 2021.
