 Gaussian 16, Revision A.03,
 Gaussian 16:  ES64L-G16RevA.03 25-Dec-2016

 --------------------------------
 #p wB97XD/Def2SVP td=(nstates=5)
 --------------------------------

 --------------------------------
 TDDFT excited states in gaussian
 --------------------------------
 Symbolic Z-matrix:
 Charge =  0 Multiplicity = 1

                         Standard orientation:
 ---------------------------------------------------------------------
 Center     Atomic      Atomic             Coordinates (Angstroms)
 Number     Number       Type             X           Y           Z
 ---------------------------------------------------------------------
      1         12           0      -25.192229   -0.516837   -0.066967
      2          6           0      -22.952720    2.107213   -0.445563
      3          6           0      -27.093689    1.379497    1.973250
      4          6           0      -27.181279   -3.174926    0.360956
      5          6           0      -23.069177   -2.456422   -2.065126
      6          7           0      -24.987084    1.549782    0.620407
      7          6           0      -24.091188    2.449547    0.291705
      8          6           0      -24.495527    3.817000    1.012852
      9          6           0      -25.219158    3.224052    2.203327
     10          6           0      -25.868762    1.956449    1.562606
     11          6           0      -24.228982    2.972276    3.360855
     12          6           0      -25.228178    4.792572   -0.005351
     13          6           0      -25.232024    6.265903    0.413757
     14          1           0      -24.776674    6.629108    1.816584
     15          7           0      -26.969876   -0.796364    0.857903
     16          6           0      -27.643374    0.167096    1.605085
     17          6           0      -29.000190   -0.373904    1.917375
     18          6           0      -29.022330   -1.771369    1.496515
     19          6           0      -27.648424   -1.943754    0.954208
     20          6           0      -30.065201    0.439837    2.613656
     21          6           0      -30.187093   -2.865292    1.526944
     22          8           0      -30.072204   -4.002579    1.057621
     23          6           0      -31.496127   -2.439256    2.158238
     24          7           0      -25.083552   -2.502220   -0.639940
     25          6           0      -26.004353   -3.413779   -0.338397
     26          6           0      -25.617903   -4.846133   -0.820401
     27          6           0      -24.460949   -4.505819   -1.770759
     28          6           0      -24.197353   -3.050389   -1.543764
     29          6           0      -25.246150   -5.836277    0.318505
     30          6           0      -24.564273   -4.974823   -3.290032
     31          6           0      -24.904860   -3.937585   -4.309038
     32          7           0      -23.282965   -0.347560   -0.900733
     33          6           0      -22.585265   -1.165820   -1.723883
     34          6           0      -21.344111   -0.615803   -2.138558
     35          6           0      -21.434475    0.725987   -1.651181
     36          6           0      -22.613993    0.779474   -0.944218
     37          6           0      -20.158517   -1.155177   -2.895961
     38          6           0      -20.821534    2.018690   -1.576157
     39          8           0      -19.776337    2.447506   -2.015434
     40          6           0      -21.825596    3.028072   -0.933606
     41          6           0      -21.155908    3.772470    0.137147
     42          8           0      -20.694471    3.224174    1.126502
     43          8           0      -20.935150    5.140305   -0.166285
     44          6           0      -20.161916    5.904820    0.824896
     45          1           0      -27.644948    2.001779    2.679724
     46          1           0      -27.827586   -4.032481    0.555414
     47          1           0      -22.408892   -3.106239   -2.642642
     48          1           0      -23.596885    4.365933    1.291060
     49          1           0      -26.061162    3.817392    2.558926
     50          1           0      -24.564980    3.691657    4.108407
     51          1           0      -23.191700    3.164989    3.083830
     52          1           0      -24.457112    1.974841    3.735946
     53          1           0      -26.269341    4.492742   -0.127750
     54          1           0      -24.636979    4.736058   -0.919646
     55          1           0      -26.248915    6.627545    0.264416
     56          1           0      -24.609908    6.797789   -0.305667
     57          1           0      -30.003545    1.493882    2.340537
     58          1           0      -30.100811    0.385110    3.701215
     59          1           0      -31.038504    0.117069    2.244360
     60          1           0      -31.192203   -2.045378    3.127790
     61          1           0      -32.190004   -3.254838    2.359793
     62          1           0      -32.004509   -1.726372    1.508843
     63          1           0      -26.437222   -5.317056   -1.363365
     64          1           0      -23.573491   -4.935453   -1.307512
     65          1           0      -24.367158   -6.368092   -0.046512
     66          1           0      -26.014673   -6.541814    0.630419
     67          1           0      -25.050770   -5.250073    1.216483
     68          1           0      -25.228974   -5.837436   -3.338040
     69          1           0      -23.579476   -5.299180   -3.625513
     70          1           0      -24.021767   -3.792101   -4.931648
     71          1           0      -25.029704   -2.919881   -3.937131
     72          1           0      -25.715341   -4.213979   -4.983537
     73          1           0      -20.250464   -2.220909   -3.108339
     74          1           0      -19.245769   -0.876714   -2.368425
     75          1           0      -20.029443   -0.796141   -3.917234
     76          1           0      -22.204778    3.742291   -1.664025
     77          1           0      -20.148879    6.983031    0.667459
     78          1           0      -19.158256    5.490792    0.724464
     79          1           0      -20.559027    5.603197    1.793423
     80         12           0       24.601656   -0.801012    0.141970
     81          6           0       24.173123    2.423763   -0.989004
     82          6           0       24.970011    0.515601    3.443353
     83          6           0       25.373778   -3.792638    1.245000
     84          6           0       24.402482   -2.017433   -3.120573
     85          7           0       24.553084    1.253436    1.031061
     86          6           0       24.331362    2.402515    0.386055
     87          6           0       24.255498    3.562818    1.431337
     88          6           0       24.657861    2.888998    2.822495
     89          6           0       24.793516    1.413483    2.399557
     90          6           0       25.999340    3.277409    3.413860
     91          6           0       22.924869    4.330158    1.447725
     92          6           0       23.148762    5.830160    1.355203
     93          1           0       22.131285    6.820881    1.939437
     94          7           0       25.022194   -1.529841    2.095003
     95          6           0       25.079529   -0.885928    3.297350
     96          6           0       25.321289   -1.760080    4.356746
     97          6           0       25.573626   -3.042251    3.755333
     98          6           0       25.311069   -2.838394    2.288683
     99          6           0       25.361030   -1.339367    5.818695
    100          6           0       26.047259   -4.329447    4.410426
    101          8           0       26.369085   -5.284495    3.677172
    102          6           0       26.248327   -4.437024    5.866910
    103          7           0       24.807956   -2.587282   -0.808135
    104          6           0       25.081035   -3.762496   -0.138748
    105          6           0       25.204889   -5.029665   -1.063919
    106          6           0       24.603863   -4.426069   -2.404486
    107          6           0       24.619125   -2.914142   -2.114030
    108          6           0       26.594990   -5.737249   -1.313668
    109          6           0       23.254117   -5.050304   -2.984027
    110          6           0       21.989134   -4.619263   -2.289959
    111          7           0       24.484506   -0.031803   -1.690671
    112          6           0       24.411561   -0.596382   -2.949864
    113          6           0       24.262397    0.369471   -3.960238
    114          6           0       24.129199    1.548014   -3.217071
    115          6           0       24.265022    1.275601   -1.824580
    116          6           0       24.127913    0.007658   -5.377967
    117          6           0       24.025771    2.939183   -3.437076
    118          8           0       24.036473    3.534227   -4.516536
    119          6           0       24.018237    3.628892   -1.974468
    120          6           0       25.108694    4.584820   -1.894949
    121          8           0       26.286256    4.334101   -1.776270
    122          8           0       24.656755    5.818173   -2.085754
    123          6           0       25.593605    6.897687   -2.168053
    124          1           0       25.132329    0.931778    4.439370
    125          1           0       25.618616   -4.834548    1.460147
    126          1           0       24.348470   -2.439929   -4.126123
    127          1           0       25.085267    4.180085    1.088482
    128          1           0       23.919016    3.250758    3.538448
    129          1           0       26.519601    4.070385    2.875793
    130          1           0       26.682618    2.429061    3.385282
    131          1           0       25.892181    3.461681    4.483240
    132          1           0       22.284748    4.123644    2.305630
    133          1           0       22.338244    3.987173    0.595796
    134          1           0       23.119634    6.068874    0.291445
    135          1           0       24.118981    6.015811    1.815589
    136          1           0       24.970573   -0.331328    5.958718
    137          1           0       26.402519   -1.247740    6.127709
    138          1           0       24.915958   -2.100390    6.458587
    139          1           0       26.926449   -5.257237    6.105188
    140          1           0       25.282225   -4.698120    6.299966
    141          1           0       26.653557   -3.506444    6.263552
    142          1           0       24.473767   -5.798742   -0.812725
    143          1           0       25.280640   -4.667078   -3.223287
    144          1           0       27.346270   -5.203515   -0.732934
    145          1           0       26.927623   -5.509257   -2.327107
    146          1           0       26.668916   -6.810743   -1.137361
    147          1           0       23.322248   -6.123332   -2.806622
    148          1           0       23.144523   -4.948007   -4.062995
    149          1           0       21.201337   -4.622944   -3.042452
    150          1           0       21.945186   -3.687145   -1.728038
    151          1           0       21.790455   -5.368893   -1.523991
    152          1           0       23.660640   -0.943012   -5.633585
    153          1           0       25.006689    0.173293   -6.000031
    154          1           0       23.471113    0.803468   -5.728334
    155          1           0       23.067020    4.148023   -1.858633
    156          1           0       25.810969    7.333647   -1.192297
    157          1           0       25.115845    7.684806   -2.751105
    158          1           0       26.527909    6.544666   -2.604840
 ---------------------------------------------------------------------

 SCF Done:  E(RwB97XD) =  -4070.63262099     A.U. after   19 cycles

 Excitation energies and oscillator strengths:

 Excited State   1:      Singlet-A      1.6476 eV  752.51 nm  f=0.4131  <S**2>=0.000
     309 -> 315        0.17813
     311 -> 313        0.68443
     309 <- 315        0.11440
 This state for optimization and/or second-order correction.
 Total Energy, E(TD-HF/TD-DFT) =  -4070.57207230
 Copying the excited state density for this state as the 1-particle RhoCI density.

 Excited State   2:      Singlet-A      1.6906 eV  733.38 nm  f=0.3930  <S**2>=0.000
     310 -> 316        0.18169
     312 -> 314        0.68421
     310 <- 316        0.11473

 Excited State   3:      Singlet-A      2.1645 eV  572.82 nm  f=0.0996  <S**2>=0.000
     309 -> 313        0.10553
     310 -> 314        0.64359
     312 -> 316       -0.25690

 Excited State   4:      Singlet-A      2.1651 eV  572.66 nm  f=0.2019  <S**2>=0.000
     309 -> 313        0.64245
     310 -> 314       -0.10566
     311 -> 315       -0.25367

 Excited State   5:      Singlet-A      3.3545 eV  369.60 nm  f=0.0031  <S**2>=0.000
     305 -> 318       -0.10708
     307 -> 313        0.67503

 The electronic state is 1-A.
 Alpha  occ. eigenvalues --  -46.94127 -46.94014 -19.29990 -19.29151 -19.25583
 Alpha  occ. eigenvalues --  -19.24410 -19.23629 -19.23514 -19.23276 -19.22921
 Alpha  occ. eigenvalues --  -14.46873 -14.46766 -14.46622 -14.46039 -14.44758
 Alpha  occ. eigenvalues --  -14.44303 -14.43540 -14.43203 -10.42727 -10.42069
 Alpha  occ. eigenvalues --  -10.41302 -10.38825 -10.38504 -10.38086 -10.35540
 Alpha  occ. eigenvalues --  -10.35422 -10.35262 -10.35219 -10.35147 -10.35137
 Alpha  occ. eigenvalues --  -10.34904 -10.34796 -10.34784 -10.34656 -10.34585
 Alpha  occ. eigenvalues --  -10.34460 -10.34119 -10.33806 -10.33393 -10.33243
 Alpha  occ. eigenvalues --  -10.33029 -10.32958 -10.32760 -10.32623 -10.32592
 Alpha  occ. eigenvalues --  -10.32460 -10.32416 -10.32383 -10.32282 -10.32278
 Alpha  occ. eigenvalues --  -10.32054 -10.32040 -10.32028 -10.31996 -10.31717
 Alpha  occ. eigenvalues --  -10.31653 -10.31624 -10.31614 -10.31602 -10.31601
 Alpha  occ. eigenvalues --  -10.31600 -10.31366 -10.31351 -10.31281 -10.31212
 Alpha  occ. eigenvalues --  -10.31091 -10.30990 -10.30789 -10.30696 -10.30499
 Alpha  occ. eigenvalues --  -10.30274 -10.30241 -10.30238 -10.30152 -10.30003
 Alpha  occ. eigenvalues --  -10.29862 -10.29646 -10.29608 -10.29599 -10.29594
 Alpha  occ. eigenvalues --  -10.29538 -10.29402 -10.28742 -10.28644 -10.28302
 Alpha  occ. eigenvalues --  -10.28179  -3.20293  -3.20206  -1.93902  -1.93801
 Alpha  occ. eigenvalues --   -1.93388  -1.93353  -1.93317  -1.93184  -1.20072
 Alpha  occ. eigenvalues --   -1.16639  -1.12776  -1.11783  -1.11061  -1.10705
 Alpha  occ. eigenvalues --   -1.09935  -1.08944  -1.07593  -1.06750  -1.06584
 Alpha  occ. eigenvalues --   -1.06184  -1.05732  -1.05309  -1.05244  -1.04559
 Alpha  occ. eigenvalues --   -0.94098  -0.94024  -0.91255  -0.91103  -0.90625
 Alpha  occ. eigenvalues --   -0.90455  -0.90224  -0.90185  -0.89558  -0.89423
 Alpha  occ. eigenvalues --   -0.89281  -0.89050  -0.88707  -0.88179  -0.86498
 Alpha  occ. eigenvalues --   -0.86221  -0.85729  -0.85525  -0.84810  -0.84708
 Alpha  occ. eigenvalues --   -0.84527  -0.84304  -0.83123  -0.82896  -0.82544
 Alpha  occ. eigenvalues --   -0.82047  -0.80598  -0.80292  -0.79230  -0.79155
 Alpha  occ. eigenvalues --   -0.78809  -0.78580  -0.77859  -0.77770  -0.77192
 Alpha  occ. eigenvalues --   -0.77008  -0.75415  -0.74814  -0.73400  -0.73166
 Alpha  occ. eigenvalues --   -0.71535  -0.71136  -0.70807  -0.70742  -0.69901
 Alpha  occ. eigenvalues --   -0.69724  -0.69065  -0.68674  -0.67316  -0.67033
 Alpha  occ. eigenvalues --   -0.66895  -0.66590  -0.66547  -0.66328  -0.66192
 Alpha  occ. eigenvalues --   -0.65971  -0.64277  -0.63256  -0.62700  -0.62399
 Alpha  occ. eigenvalues --   -0.61964  -0.61556  -0.61130  -0.60970  -0.60471
 Alpha  occ. eigenvalues --   -0.60280  -0.60019  -0.59962  -0.59643  -0.59580
 Alpha  occ. eigenvalues --   -0.58481  -0.58072  -0.57846  -0.57663  -0.57365
 Alpha  occ. eigenvalues --   -0.57074  -0.56689  -0.56564  -0.56271  -0.55894
 Alpha  occ. eigenvalues --   -0.55580  -0.55430  -0.55342  -0.55108  -0.54957
 Alpha  occ. eigenvalues --   -0.54678  -0.54593  -0.54428  -0.54249  -0.54212
 Alpha  occ. eigenvalues --   -0.54092  -0.53993  -0.53742  -0.53649  -0.53259
 Alpha  occ. eigenvalues --   -0.53142  -0.52726  -0.52705  -0.52250  -0.52234
 Alpha  occ. eigenvalues --   -0.52193  -0.51907  -0.51824  -0.51580  -0.51424
 Alpha  occ. eigenvalues --   -0.51395  -0.51134  -0.51116  -0.51054  -0.50994
 Alpha  occ. eigenvalues --   -0.50846  -0.50799  -0.50491  -0.50419  -0.50304
 Alpha  occ. eigenvalues --   -0.50041  -0.49758  -0.49687  -0.49319  -0.49264
 Alpha  occ. eigenvalues --   -0.48802  -0.48787  -0.48430  -0.48359  -0.48286
 Alpha  occ. eigenvalues --   -0.48182  -0.47946  -0.47924  -0.47711  -0.47456
 Alpha  occ. eigenvalues --   -0.47416  -0.47325  -0.47032  -0.46862  -0.46837
 Alpha  occ. eigenvalues --   -0.46588  -0.46492  -0.46272  -0.46268  -0.45941
 Alpha  occ. eigenvalues --   -0.45890  -0.45815  -0.45538  -0.45445  -0.45413
 Alpha  occ. eigenvalues --   -0.45276  -0.45177  -0.45164  -0.44940  -0.44587
 Alpha  occ. eigenvalues --   -0.44462  -0.44439  -0.44033  -0.43898  -0.43750
 Alpha  occ. eigenvalues --   -0.43499  -0.43399  -0.43312  -0.43310  -0.42987
 Alpha  occ. eigenvalues --   -0.42965  -0.42884  -0.42868  -0.42431  -0.42356
 Alpha  occ. eigenvalues --   -0.42099  -0.41886  -0.41112  -0.41086  -0.40836
 Alpha  occ. eigenvalues --   -0.40206  -0.40079  -0.39984  -0.39637  -0.39458
 Alpha  occ. eigenvalues --   -0.39144  -0.38648  -0.38606  -0.38309  -0.38136
 Alpha  occ. eigenvalues --   -0.38089  -0.37627  -0.36449  -0.36204  -0.35898
 Alpha  occ. eigenvalues --   -0.35772  -0.35447  -0.35359  -0.34211  -0.33649
 Alpha  occ. eigenvalues --   -0.33397  -0.32727  -0.32696  -0.32529  -0.32198
 Alpha  occ. eigenvalues --   -0.32165  -0.31921  -0.31702  -0.26022  -0.25831
 Alpha  occ. eigenvalues --   -0.23265  -0.23223
 Alpha virt. eigenvalues --   -0.07441  -0.07182   0.00521   0.00654   0.01994
 Alpha virt. eigenvalues --    0.02558   0.04567   0.04606   0.06240   0.06597
 Alpha virt. eigenvalues --    0.06969   0.07948   0.08032   0.08271   0.08708

 Mulliken charges:
               1
     1  Mg   0.985931
     2  C   -0.033909
     3  C   -0.089336
     4  C   -0.081506
     5  C   -0.112890
     6  N   -0.312466
     7  C   -0.022106
     8  C   -0.084840
     9  C   -0.106203
    10  C    0.035572
    11  C    0.056878
    12  C    0.017384
    13  C   -0.109418
    14  H    0.037441
    15  N   -0.477257
    16  C    0.189924
    17  C   -0.158456
    18  C   -0.108918
    19  C    0.127467
    20  C    0.049094
    21  C    0.101702
    22  O   -0.227638
    23  C   -0.029568
    24  N   -0.379008
    25  C    0.081083
    26  C   -0.097490
    27  C   -0.032333
    28  C    0.052602
    29  C    0.021145
    30  C   -0.006362
    31  C   -0.048360
    32  N   -0.374849
    33  C    0.116078
    34  C   -0.174729
    35  C   -0.023332
    36  C    0.102297
    37  C    0.084915
    38  C    0.096543
    39  O   -0.204579
    40  C   -0.019728
    41  C    0.245612
    42  O   -0.251750
    43  O   -0.402721
    44  C    0.147353
    45  H    0.004683
    46  H    0.017881
    47  H   -0.007236
    48  H    0.021242
    49  H    0.004277
    50  H    0.035516
    51  H    0.070948
    52  H    0.037004
    53  H    0.035397
    54  H    0.041307
    55  H    0.045575
    56  H    0.053114
    57  H    0.040763
    58  H    0.065827
    59  H    0.030991
    60  H    0.059228
    61  H    0.056239
    62  H    0.081365
    63  H    0.037170
    64  H    0.030695
    65  H    0.038438
    66  H    0.045379
    67  H    0.041228
    68  H    0.033873
    69  H    0.028035
    70  H    0.018050
    71  H    0.047774
    72  H    0.040840
    73  H    0.015366
    74  H    0.066005
    75  H    0.046104
    76  H    0.068311
    77  H    0.063922
    78  H    0.057312
    79  H    0.048108
    80  Mg   0.992252
    81  C   -0.044831
    82  C   -0.105224
    83  C   -0.051577
    84  C   -0.104043
    85  N   -0.349859
    86  C   -0.028267
    87  C   -0.021250
    88  C   -0.162823
    89  C    0.116104
    90  C    0.006221
    91  C    0.037816
    92  C   -0.145915
    93  H    0.028875
    94  N   -0.425547
    95  C    0.160295
    96  C   -0.175155
    97  C   -0.074181
    98  C    0.171386
    99  C    0.066546
   100  C    0.038162
   101  O   -0.260174
   102  C    0.004588
   103  N   -0.396000
   104  C    0.027688
   105  C   -0.070211
   106  C   -0.076039
   107  C    0.086903
   108  C    0.029258
   109  C   -0.031231
   110  C   -0.058234
   111  N   -0.470086
   112  C    0.132149
   113  C   -0.134387
   114  C   -0.037990
   115  C    0.195294
   116  C    0.072394
   117  C    0.096078
   118  O   -0.219388
   119  C   -0.078133
   120  C    0.235491
   121  O   -0.251513
   122  O   -0.328070
   123  C    0.135850
   124  H   -0.002124
   125  H    0.021821
   126  H   -0.004688
   127  H    0.033178
   128  H    0.042985
   129  H    0.043807
   130  H    0.040393
   131  H    0.035191
   132  H    0.039583
   133  H    0.030079
   134  H    0.063216
   135  H    0.056117
   136  H    0.042437
   137  H    0.057023
   138  H    0.056359
   139  H    0.055854
   140  H    0.067041
   141  H    0.044990
   142  H    0.038427
   143  H    0.027398
   144  H    0.039868
   145  H    0.027320
   146  H    0.056771
   147  H    0.029184
   148  H    0.032963
   149  H    0.037831
   150  H    0.047638
   151  H    0.028757
   152  H    0.046016
   153  H    0.055572
   154  H    0.045414
   155  H    0.065587
   156  H    0.042543
   157  H    0.055550
   158  H    0.066678
 Sum of Mulliken charges =  -0.00000

 Dipole moment (field-independent basis, Debye):
    X=             -7.2393    Y=             -0.4886    Z=              5.4617  Tot=              9.0816
 Quadrupole moment (field-independent basis, Debye-Ang):
   XX=           -331.4771   YY=           -484.8043   ZZ=           -484.2984
   XY=            -62.0492   XZ=             51.5816   YZ=             43.8304

 Normal termination of Gaussian 16 at Mon Sep 20 21:12:32 2021.
