 Gaussian 16, Revision A.03,
 Gaussian 16:  ES64L-G16RevA.03 25-Dec-2016

 --------------------------------
 #p wB97XD/Def2SVP td=(nstates=5)
 --------------------------------

 --------------------------------
 TDDFT excited states in gaussian
 --------------------------------
 Symbolic Z-matrix:
 Charge =  0 Multiplicity = 1

                         Standard orientation:
 ---------------------------------------------------------------------
 Center     Atomic      Atomic             Coordinates (Angstroms)
 Number     Number       Type             X           Y           Z
 ---------------------------------------------------------------------
      1         12           0       -9.245369   -0.845910    0.586136
      2          6           0       -9.932398    2.449699   -0.305201
      3          6           0       -7.450403    0.286360    3.293702
      4          6           0       -8.440850   -4.075723    1.154830
      5          6           0      -10.790899   -1.876472   -2.466565
      6          7           0       -8.684892    1.132227    1.296301
      7          6           0       -9.087579    2.338920    0.813430
      8          6           0       -8.622909    3.487616    1.718010
      9          6           0       -7.708899    2.714785    2.768560
     10          6           0       -7.990691    1.249824    2.418756
     11          6           0       -6.232996    3.057700    2.605812
     12          6           0       -9.749352    4.221793    2.529031
     13          6           0       -9.508155    5.661833    2.900557
     14          1           0       -8.156581    6.215011    2.811282
     15          7           0       -8.198051   -1.747940    2.052010
     16          6           0       -7.514458   -1.087500    3.092441
     17          6           0       -7.054781   -2.116522    3.987903
     18          6           0       -7.360157   -3.390081    3.444693
     19          6           0       -8.032083   -3.114185    2.150983
     20          6           0       -6.168472   -1.838678    5.183165
     21          6           0       -7.147500   -4.747201    3.971463
     22          8           0       -7.283776   -5.749893    3.303329
     23          6           0       -6.563182   -4.957627    5.415348
     24          7           0       -9.705533   -2.800439   -0.411258
     25          6           0       -9.236270   -3.933251    0.019131
     26          6           0       -9.627163   -5.108358   -0.926843
     27          6           0      -10.430671   -4.452326   -2.034980
     28          6           0      -10.290554   -2.925032   -1.694153
     29          6           0       -8.326672   -5.938771   -1.353871
     30          6           0      -11.881699   -4.971065   -2.120508
     31          6           0      -12.176734   -6.115945   -3.160266
     32          7           0      -10.365710   -0.021797   -0.886104
     33          6           0      -10.933090   -0.549331   -2.072601
     34          6           0      -11.594904    0.455044   -2.814589
     35          6           0      -11.132052    1.675971   -2.162453
     36          6           0      -10.427507    1.274009   -0.991776
     37          6           0      -12.231002    0.281317   -4.181639
     38          6           0      -11.180833    3.081931   -2.327066
     39          8           0      -11.732218    3.794803   -3.156196
     40          6           0      -10.413364    3.678246   -0.971943
     41          6           0       -9.369986    4.620351   -1.496695
     42          8           0       -8.461298    4.297946   -2.269218
     43          8           0       -9.611217    5.974302   -1.117901
     44          6           0       -8.616712    6.975799   -1.615118
     45          1           0       -6.895196    0.716534    4.130717
     46          1           0       -7.985560   -5.056189    1.306912
     47          1           0      -11.320002   -2.140374   -3.384253
     48          1           0       -8.039912    4.155454    1.083421
     49          1           0       -7.960173    2.948788    3.802985
     50          1           0       -6.100072    3.948775    1.992880
     51          1           0       -5.641289    2.215656    2.245693
     52          1           0       -5.761935    3.419793    3.519674
     53          1           0       -9.938504    3.636132    3.427979
     54          1           0      -10.670414    4.096375    1.959388
     55          1           0       -9.740558    5.756638    3.961036
     56          1           0      -10.153424    6.297797    2.294469
     57          1           0       -5.161745   -2.241903    5.074096
     58          1           0       -6.666392   -2.233422    6.069792
     59          1           0       -5.970040   -0.789149    5.399855
     60          1           0       -5.484027   -4.836499    5.317753
     61          1           0       -6.676609   -5.998867    5.717406
     62          1           0       -6.940249   -4.200822    6.102142
     63          1           0      -10.240742   -5.741264   -0.285438
     64          1           0       -9.924264   -4.520001   -2.996596
     65          1           0       -8.234055   -5.974871   -2.439242
     66          1           0       -8.376232   -6.994323   -1.085832
     67          1           0       -7.495423   -5.381844   -0.919523
     68          1           0      -12.493116   -4.107207   -2.383684
     69          1           0      -12.160980   -5.278281   -1.112567
     70          1           0      -12.373219   -5.643176   -4.123193
     71          1           0      -12.943842   -6.855093   -2.928596
     72          1           0      -11.186206   -6.561621   -3.245056
     73          1           0      -13.230762   -0.081097   -3.943834
     74          1           0      -11.705830   -0.467823   -4.772981
     75          1           0      -12.137942    1.121510   -4.870965
     76          1           0      -11.154632    4.161147   -0.334007
     77          1           0       -8.614545    7.033195   -2.703009
     78          1           0       -7.574755    6.866581   -1.313115
     79          1           0       -9.078348    7.880875   -1.220368
     80         12           0        9.518282   -0.455616   -0.328593
     81          6           0        7.521977    2.382381   -0.258474
     82          6           0       12.114567    1.321383    0.886192
     83          6           0       11.390983   -3.215731   -0.610792
     84          6           0        6.812689   -2.175458   -1.737097
     85          7           0        9.705235    1.642299    0.262410
     86          6           0        8.787738    2.578639    0.303842
     87          6           0        9.464596    3.888631    0.919678
     88          6           0       10.887255    3.622252    0.475222
     89          6           0       10.950760    2.065173    0.579139
     90          6           0       11.131995    4.223173   -0.925744
     91          6           0        9.087765    4.045326    2.455485
     92          6           0        9.265995    5.460197    3.014722
     93          1           0        9.986728    6.496070    2.169326
     94          7           0       11.401535   -0.929529    0.239134
     95          6           0       12.312062   -0.043468    0.810073
     96          6           0       13.484938   -0.842515    1.275951
     97          6           0       13.315242   -2.202947    0.775002
     98          6           0       12.025780   -2.094749    0.042194
     99          6           0       14.627470   -0.239065    2.058062
    100          6           0       14.203056   -3.517848    0.967589
    101          8           0       13.882840   -4.630725    0.536481
    102          6           0       15.492969   -3.352953    1.743825
    103          7           0        9.204253   -2.329793   -1.147554
    104          6           0       10.118770   -3.295775   -1.164297
    105          6           0        9.639205   -4.569395   -1.926676
    106          6           0        8.137107   -4.268999   -2.031567
    107          6           0        7.997903   -2.855090   -1.561705
    108          6           0       10.344068   -4.813969   -3.290142
    109          6           0        7.108682   -5.320081   -1.418053
    110          6           0        6.468978   -4.976081   -0.113184
    111          7           0        7.627697    0.007699   -1.090258
    112          6           0        6.630644   -0.778201   -1.561595
    113          6           0        5.455736   -0.053214   -1.891631
    114          6           0        5.754189    1.248368   -1.378881
    115          6           0        7.051275    1.173920   -0.925067
    116          6           0        4.162604   -0.407953   -2.578788
    117          6           0        5.287750    2.583547   -1.150546
    118          8           0        4.233979    3.128331   -1.399671
    119          6           0        6.331655    3.351557   -0.278602
    120          6           0        6.627047    4.648471   -0.894946
    121          8           0        7.119377    4.747484   -2.008582
    122          8           0        6.126037    5.757449   -0.166292
    123          6           0        6.292083    7.074740   -0.800315
    124          1           0       12.946729    1.944696    1.216665
    125          1           0       12.040490   -4.084814   -0.728092
    126          1           0        6.008585   -2.731834   -2.222512
    127          1           0        9.033840    4.776583    0.458943
    128          1           0       11.649000    3.977678    1.168685
    129          1           0       11.845030    5.019698   -0.710418
    130          1           0       10.227419    4.631728   -1.378135
    131          1           0       11.656707    3.453954   -1.491953
    132          1           0        9.705209    3.382167    3.062017
    133          1           0        8.020198    3.829425    2.503798
    134          1           0        9.785015    5.353620    3.966780
    135          1           0        8.269013    5.831764    3.250235
    136          1           0       14.282849    0.562013    2.712980
    137          1           0       15.472126    0.145401    1.487282
    138          1           0       15.017392   -0.998740    2.735360
    139          1           0       15.984694   -2.519987    1.241913
    140          1           0       16.174965   -4.200105    1.676908
    141          1           0       15.270977   -3.190568    2.798681
    142          1           0        9.812024   -5.471840   -1.340510
    143          1           0        7.944743   -4.136758   -3.095650
    144          1           0        9.545263   -5.108439   -3.971237
    145          1           0       11.147347   -5.548937   -3.306400
    146          1           0       10.834957   -3.885093   -3.580643
    147          1           0        7.588729   -6.298570   -1.399459
    148          1           0        6.243285   -5.390578   -2.076612
    149          1           0        5.410351   -4.801519   -0.306830
    150          1           0        6.733863   -4.007418    0.312432
    151          1           0        6.518970   -5.764610    0.637777
    152          1           0        4.163779   -1.427155   -2.966821
    153          1           0        3.935226    0.357802   -3.320989
    154          1           0        3.277885   -0.475869   -1.945366
    155          1           0        5.964217    3.526718    0.732194
    156          1           0        6.063806    7.926568   -0.160180
    157          1           0        5.599200    7.030710   -1.641038
    158          1           0        7.307137    7.077065   -1.195761
 ---------------------------------------------------------------------

 SCF Done:  E(RwB97XD) =  -4070.64735550     A.U. after   19 cycles

 Excitation energies and oscillator strengths:

 Excited State   1:      Singlet-A      1.6887 eV  734.18 nm  f=0.6763  <S**2>=0.000
     309 -> 315       -0.10646
     310 -> 316        0.14493
     311 -> 314        0.54704
     312 -> 313       -0.41108
 This state for optimization and/or second-order correction.
 Total Energy, E(TD-HF/TD-DFT) =  -4070.58529536
 Copying the excited state density for this state as the 1-particle RhoCI density.

 Excited State   2:      Singlet-A      1.6929 eV  732.38 nm  f=0.0939  <S**2>=0.000
     309 -> 315        0.14255
     310 -> 316        0.10952
     311 -> 314        0.41099
     312 -> 313        0.54682

 Excited State   3:      Singlet-A      2.1642 eV  572.88 nm  f=0.0840  <S**2>=0.000
     309 -> 313        0.13687
     310 -> 314        0.63765
     311 -> 316       -0.25440

 Excited State   4:      Singlet-A      2.1730 eV  570.58 nm  f=0.1965  <S**2>=0.000
     309 -> 313        0.63261
     310 -> 314       -0.13677
     312 -> 315       -0.25734

 Excited State   5:      Singlet-A      3.5448 eV  349.77 nm  f=0.0000  <S**2>=0.000
     311 -> 313        0.70686

 The electronic state is 1-A.
 Alpha  occ. eigenvalues --  -46.94193 -46.94164 -19.29191 -19.29170 -19.25615
 Alpha  occ. eigenvalues --  -19.24443 -19.24257 -19.24172 -19.23057 -19.22956
 Alpha  occ. eigenvalues --  -14.47132 -14.46655 -14.46104 -14.46075 -14.44795
 Alpha  occ. eigenvalues --  -14.44714 -14.43766 -14.43236 -10.42762 -10.42722
 Alpha  occ. eigenvalues --  -10.41334 -10.39400 -10.38152 -10.38121 -10.35745
 Alpha  occ. eigenvalues --  -10.35550 -10.35457 -10.35295 -10.35195 -10.35181
 Alpha  occ. eigenvalues --  -10.34832 -10.34734 -10.34716 -10.34688 -10.34682
 Alpha  occ. eigenvalues --  -10.34618 -10.34535 -10.34499 -10.33839 -10.33838
 Alpha  occ. eigenvalues --  -10.33277 -10.32793 -10.32686 -10.32671 -10.32640
 Alpha  occ. eigenvalues --  -10.32315 -10.32239 -10.32088 -10.32076 -10.32073
 Alpha  occ. eigenvalues --  -10.32052 -10.31922 -10.31899 -10.31827 -10.31722
 Alpha  occ. eigenvalues --  -10.31697 -10.31662 -10.31652 -10.31640 -10.31635
 Alpha  occ. eigenvalues --  -10.31548 -10.31401 -10.31383 -10.31362 -10.31308
 Alpha  occ. eigenvalues --  -10.31123 -10.31049 -10.30817 -10.30650 -10.30644
 Alpha  occ. eigenvalues --  -10.30322 -10.30274 -10.30182 -10.30173 -10.29894
 Alpha  occ. eigenvalues --  -10.29773 -10.29680 -10.29628 -10.29606 -10.29569
 Alpha  occ. eigenvalues --  -10.29547 -10.29519 -10.29510 -10.28351 -10.28349
 Alpha  occ. eigenvalues --  -10.28213  -3.20330  -3.20301  -1.93940  -1.93910
 Alpha  occ. eigenvalues --   -1.93425  -1.93423  -1.93355  -1.93291  -1.16676
 Alpha  occ. eigenvalues --   -1.15379  -1.13304  -1.12808  -1.11818  -1.10651
 Alpha  occ. eigenvalues --   -1.08981  -1.07813  -1.07629  -1.07049  -1.06785
 Alpha  occ. eigenvalues --   -1.06218  -1.05806  -1.05278  -1.05254  -1.04402
 Alpha  occ. eigenvalues --   -0.94135  -0.93880  -0.91136  -0.91074  -0.90685
 Alpha  occ. eigenvalues --   -0.90496  -0.90260  -0.90217  -0.89652  -0.89315
 Alpha  occ. eigenvalues --   -0.89269  -0.89082  -0.88209  -0.88050  -0.86264
 Alpha  occ. eigenvalues --   -0.86082  -0.85560  -0.84751  -0.84747  -0.84561
 Alpha  occ. eigenvalues --   -0.83997  -0.83324  -0.82930  -0.82206  -0.82083
 Alpha  occ. eigenvalues --   -0.81816  -0.80669  -0.80631  -0.79186  -0.79044
 Alpha  occ. eigenvalues --   -0.78616  -0.78611  -0.77809  -0.77620  -0.77040
 Alpha  occ. eigenvalues --   -0.76859  -0.74973  -0.74846  -0.73457  -0.73199
 Alpha  occ. eigenvalues --   -0.71428  -0.71173  -0.70787  -0.70778  -0.69942
 Alpha  occ. eigenvalues --   -0.69800  -0.69168  -0.68713  -0.67557  -0.67070
 Alpha  occ. eigenvalues --   -0.67051  -0.66822  -0.66625  -0.66467  -0.66227
 Alpha  occ. eigenvalues --   -0.66011  -0.63293  -0.63212  -0.62734  -0.62296
 Alpha  occ. eigenvalues --   -0.61590  -0.61445  -0.61186  -0.61165  -0.60390
 Alpha  occ. eigenvalues --   -0.60055  -0.59995  -0.59619  -0.59597  -0.59155
 Alpha  occ. eigenvalues --   -0.58149  -0.57880  -0.57697  -0.57400  -0.56861
 Alpha  occ. eigenvalues --   -0.56723  -0.56410  -0.55942  -0.55795  -0.55617
 Alpha  occ. eigenvalues --   -0.55375  -0.55245  -0.55000  -0.54992  -0.54750
 Alpha  occ. eigenvalues --   -0.54629  -0.54295  -0.54285  -0.54129  -0.54124
 Alpha  occ. eigenvalues --   -0.54071  -0.53828  -0.53779  -0.53328  -0.53174
 Alpha  occ. eigenvalues --   -0.52760  -0.52755  -0.52741  -0.52365  -0.52267
 Alpha  occ. eigenvalues --   -0.52008  -0.51863  -0.51652  -0.51528  -0.51454
 Alpha  occ. eigenvalues --   -0.51356  -0.51148  -0.51063  -0.51027  -0.50831
 Alpha  occ. eigenvalues --   -0.50816  -0.50526  -0.50448  -0.50437  -0.50155
 Alpha  occ. eigenvalues --   -0.49914  -0.49792  -0.49453  -0.49357  -0.49287
 Alpha  occ. eigenvalues --   -0.49067  -0.48912  -0.48837  -0.48698  -0.48469
 Alpha  occ. eigenvalues --   -0.48391  -0.48210  -0.47980  -0.47744  -0.47621
 Alpha  occ. eigenvalues --   -0.47484  -0.46896  -0.46889  -0.46780  -0.46623
 Alpha  occ. eigenvalues --   -0.46511  -0.46358  -0.46305  -0.46082  -0.45975
 Alpha  occ. eigenvalues --   -0.45950  -0.45928  -0.45662  -0.45481  -0.45308
 Alpha  occ. eigenvalues --   -0.45206  -0.45134  -0.44970  -0.44818  -0.44657
 Alpha  occ. eigenvalues --   -0.44473  -0.44448  -0.44367  -0.44070  -0.43792
 Alpha  occ. eigenvalues --   -0.43755  -0.43597  -0.43345  -0.43330  -0.43049
 Alpha  occ. eigenvalues --   -0.43004  -0.42903  -0.42561  -0.42463  -0.42147
 Alpha  occ. eigenvalues --   -0.41999  -0.41920  -0.41622  -0.41208  -0.41149
 Alpha  occ. eigenvalues --   -0.40425  -0.40248  -0.40022  -0.39663  -0.39495
 Alpha  occ. eigenvalues --   -0.39102  -0.38813  -0.38691  -0.38170  -0.37953
 Alpha  occ. eigenvalues --   -0.37665  -0.37583  -0.36485  -0.36311  -0.35932
 Alpha  occ. eigenvalues --   -0.35764  -0.35481  -0.35375  -0.34243  -0.33717
 Alpha  occ. eigenvalues --   -0.33432  -0.33042  -0.32762  -0.32607  -0.32200
 Alpha  occ. eigenvalues --   -0.31735  -0.31598  -0.31450  -0.25999  -0.25867
 Alpha  occ. eigenvalues --   -0.23257  -0.23244
 Alpha virt. eigenvalues --   -0.07277  -0.07217   0.00396   0.00618   0.01960
 Alpha virt. eigenvalues --    0.02378   0.04533   0.04627   0.06547   0.06933
 Alpha virt. eigenvalues --    0.06983   0.07076   0.07995   0.08045   0.08668

 Mulliken charges:
               1
     1  Mg   0.981500
     2  C   -0.071053
     3  C   -0.107771
     4  C   -0.077543
     5  C   -0.076964
     6  N   -0.334100
     7  C    0.003832
     8  C   -0.040108
     9  C   -0.140366
    10  C    0.073023
    11  C    0.018420
    12  C    0.018305
    13  C   -0.105929
    14  H    0.037148
    15  N   -0.531779
    16  C    0.234434
    17  C   -0.151232
    18  C   -0.045711
    19  C    0.152488
    20  C    0.052236
    21  C    0.017174
    22  O   -0.225131
    23  C   -0.005315
    24  N   -0.321121
    25  C    0.055972
    26  C   -0.094106
    27  C   -0.043762
    28  C    0.027592
    29  C    0.014795
    30  C   -0.005267
    31  C   -0.042844
    32  N   -0.449326
    33  C    0.125196
    34  C   -0.139000
    35  C   -0.084565
    36  C    0.187644
    37  C    0.059577
    38  C    0.113618
    39  O   -0.211674
    40  C   -0.083783
    41  C    0.288659
    42  O   -0.259828
    43  O   -0.405038
    44  C    0.140899
    45  H    0.004279
    46  H    0.031793
    47  H    0.000228
    48  H    0.044355
    49  H    0.038512
    50  H    0.034135
    51  H    0.050073
    52  H    0.023112
    53  H    0.024078
    54  H    0.025103
    55  H    0.048495
    56  H    0.067246
    57  H    0.063543
    58  H    0.049529
    59  H    0.031022
    60  H    0.053281
    61  H    0.055633
    62  H    0.038135
    63  H    0.048025
    64  H    0.027379
    65  H    0.029942
    66  H    0.045302
    67  H    0.051347
    68  H    0.026125
    69  H    0.026512
    70  H    0.037021
    71  H    0.054324
    72  H    0.027345
    73  H    0.053864
    74  H    0.037506
    75  H    0.064217
    76  H    0.072051
    77  H    0.058689
    78  H    0.055222
    79  H    0.053379
    80  Mg   0.985894
    81  C   -0.033935
    82  C   -0.089433
    83  C   -0.081494
    84  C   -0.113402
    85  N   -0.312344
    86  C   -0.022232
    87  C   -0.084690
    88  C   -0.106271
    89  C    0.035565
    90  C    0.056916
    91  C    0.017369
    92  C   -0.109387
    93  H    0.037735
    94  N   -0.477285
    95  C    0.190037
    96  C   -0.158514
    97  C   -0.108873
    98  C    0.127373
    99  C    0.049032
   100  C    0.101641
   101  O   -0.227613
   102  C   -0.029474
   103  N   -0.379066
   104  C    0.081040
   105  C   -0.097535
   106  C   -0.032819
   107  C    0.053495
   108  C    0.021137
   109  C   -0.006320
   110  C   -0.048469
   111  N   -0.374801
   112  C    0.115953
   113  C   -0.174703
   114  C   -0.023457
   115  C    0.102271
   116  C    0.084882
   117  C    0.096529
   118  O   -0.204423
   119  C   -0.020020
   120  C    0.245850
   121  O   -0.251497
   122  O   -0.402972
   123  C    0.147216
   124  H    0.004662
   125  H    0.017967
   126  H   -0.007018
   127  H    0.021259
   128  H    0.004215
   129  H    0.035547
   130  H    0.071008
   131  H    0.037129
   132  H    0.035309
   133  H    0.041004
   134  H    0.045440
   135  H    0.052816
   136  H    0.040662
   137  H    0.065925
   138  H    0.030980
   139  H    0.059278
   140  H    0.056284
   141  H    0.081236
   142  H    0.037137
   143  H    0.030930
   144  H    0.038597
   145  H    0.045428
   146  H    0.041306
   147  H    0.033961
   148  H    0.028269
   149  H    0.018030
   150  H    0.047568
   151  H    0.040711
   152  H    0.015599
   153  H    0.066573
   154  H    0.045951
   155  H    0.067770
   156  H    0.063691
   157  H    0.057627
   158  H    0.048245
 Sum of Mulliken charges =  -0.00000

 Dipole moment (field-independent basis, Debye):
    X=              6.9526    Y=             -1.8719    Z=              8.5227  Tot=             11.1570
 Quadrupole moment (field-independent basis, Debye-Ang):
   XX=           -457.3899   YY=           -501.1380   ZZ=           -492.3896
   XY=             47.6567   XZ=             -5.1085   YZ=             45.8228

 Normal termination of Gaussian 16 at Mon Sep 20 11:37:33 2021.
