 Gaussian 16, Revision A.03,
 Gaussian 16:  ES64L-G16RevA.03 25-Dec-2016

 --------------------------------
 #p wB97XD/Def2SVP td=(nstates=5)
 --------------------------------

 --------------------------------
 TDDFT excited states in gaussian
 --------------------------------
 Symbolic Z-matrix:
 Charge =  0 Multiplicity = 1

                         Standard orientation:
 ---------------------------------------------------------------------
 Center     Atomic      Atomic             Coordinates (Angstroms)
 Number     Number       Type             X           Y           Z
 ---------------------------------------------------------------------
      1         12           0       -9.521593    0.462379    0.732370
      2          6           0       -9.280341   -2.442681   -1.230440
      3          6           0       -7.206815   -0.888607    2.886155
      4          6           0       -9.245429    3.477311    2.066337
      5          6           0      -11.702574    1.844134   -1.707284
      6          7           0       -8.210684   -1.314472    0.668989
      7          6           0       -8.278135   -2.402985   -0.238588
      8          6           0       -7.582003   -3.603589    0.255349
      9          6           0       -6.997344   -3.104327    1.646649
     10          6           0       -7.526937   -1.684914    1.776572
     11          6           0       -7.309143   -4.080348    2.806900
     12          6           0       -6.421909   -4.044798   -0.583962
     13          6           0       -5.563466   -2.937621   -1.213561
     14          1           0       -4.002547   -3.101671   -1.380323
     15          7           0       -8.406160    1.229431    2.308713
     16          6           0       -7.631615    0.477448    3.113861
     17          6           0       -7.176857    1.300538    4.206418
     18          6           0       -7.808074    2.558524    4.044913
     19          6           0       -8.562663    2.477167    2.783950
     20          6           0       -6.198133    0.890000    5.273575
     21          6           0       -7.694742    3.742426    5.004879
     22          8           0       -7.012514    3.672843    6.008467
     23          6           0       -8.261205    5.119667    4.824712
     24          7           0      -10.139937    2.431957    0.113130
     25          6           0       -9.938930    3.543492    0.887368
     26          6           0      -10.835215    4.736935    0.419545
     27          6           0      -11.349046    4.234545   -0.963645
     28          6           0      -11.070363    2.751865   -0.848753
     29          6           0      -12.020855    5.084428    1.351865
     30          6           0      -10.505190    4.704859   -2.240798
     31          6           0      -11.276448    5.216142   -3.403294
     32          7           0      -10.406782   -0.130435   -0.986831
     33          6           0      -11.369029    0.453444   -1.713731
     34          6           0      -12.061563   -0.574554   -2.578886
     35          6           0      -11.264670   -1.740732   -2.347727
     36          6           0      -10.188683   -1.379315   -1.488482
     37          6           0      -13.259407   -0.440597   -3.508129
     38          6           0      -11.059029   -3.081009   -2.815785
     39          8           0      -11.657538   -3.729018   -3.659833
     40          6           0       -9.762857   -3.598057   -2.070610
     41          6           0       -8.695445   -3.793021   -3.127369
     42          8           0       -8.142678   -2.957343   -3.763041
     43          8           0       -8.373063   -5.133043   -3.161057
     44          6           0       -7.158676   -5.427883   -3.928298
     45          1           0       -6.630697   -1.396624    3.662096
     46          1           0       -9.306950    4.431543    2.592206
     47          1           0      -12.476696    2.293696   -2.332632
     48          1           0       -8.314055   -4.409237    0.311196
     49          1           0       -5.929090   -2.888903    1.667204
     50          1           0       -6.322227   -4.164583    3.262223
     51          1           0       -7.672220   -5.003817    2.355669
     52          1           0       -7.988429   -3.659068    3.548244
     53          1           0       -6.667082   -4.830159   -1.299437
     54          1           0       -5.661746   -4.613803   -0.048266
     55          1           0       -5.779593   -2.048225   -0.620674
     56          1           0       -6.054860   -2.791803   -2.175683
     57          1           0       -5.442170    1.660451    5.428904
     58          1           0       -5.772581   -0.083459    5.030191
     59          1           0       -6.810355    0.802047    6.171418
     60          1           0       -7.839720    5.695917    4.001698
     61          1           0       -7.873000    5.620441    5.711757
     62          1           0       -9.342533    5.160542    4.959996
     63          1           0      -10.199507    5.619385    0.348165
     64          1           0      -12.412578    4.414680   -1.122456
     65          1           0      -12.949216    4.835429    0.838132
     66          1           0      -11.909111    6.072483    1.798065
     67          1           0      -11.981700    4.426068    2.218957
     68          1           0       -9.830707    3.917237   -2.575901
     69          1           0       -9.877481    5.507402   -1.853113
     70          1           0      -10.977839    6.219911   -3.704880
     71          1           0      -12.355780    5.202361   -3.250046
     72          1           0      -11.108682    4.614017   -4.295858
     73          1           0      -12.913388   -0.735405   -4.498829
     74          1           0      -13.681254    0.554852   -3.364087
     75          1           0      -13.951766   -1.224823   -3.202245
     76          1           0       -9.946275   -4.512963   -1.507667
     77          1           0       -6.437999   -4.610324   -3.916693
     78          1           0       -7.532872   -5.590773   -4.939061
     79          1           0       -6.825305   -6.407439   -3.586685
     80         12           0        9.685257    0.708157   -0.186578
     81          6           0        7.716395   -2.242156    0.923717
     82          6           0        6.693174    1.909879   -1.200096
     83          6           0       11.494691    3.035964   -1.350574
     84          6           0       12.562327   -1.332894    0.293528
     85          7           0        7.504262   -0.121040   -0.173331
     86          6           0        6.962574   -1.215847    0.478699
     87          6           0        5.432706   -1.208382    0.576022
     88          6           0        5.134370   -0.119646   -0.500544
     89          6           0        6.513147    0.628225   -0.669877
     90          6           0        4.625000   -0.638634   -1.808252
     91          6           0        4.806598   -0.961841    1.989568
     92          6           0        3.488605   -1.592020    2.293689
     93          1           0        2.544885   -0.750861    3.147305
     94          7           0        9.167035    2.338563   -1.133628
     95          6           0        7.845023    2.729213   -1.432787
     96          6           0        7.891054    4.072342   -1.934534
     97          6           0        9.301920    4.439799   -1.820080
     98          6           0       10.004372    3.272460   -1.425478
     99          6           0        6.634306    4.941845   -2.309228
    100          6           0        9.864577    5.801945   -2.088955
    101          8           0       11.096267    6.036910   -2.032946
    102          6           0        9.020445    6.986212   -2.389866
    103          7           0       11.699652    0.827442   -0.653495
    104          6           0       12.249960    1.946840   -1.127899
    105          6           0       13.802228    1.871255   -1.288568
    106          6           0       14.080794    0.651494   -0.333294
    107          6           0       12.694281   -0.043189   -0.246546
    108          6           0       14.230139    1.561723   -2.759243
    109          6           0       14.549930    1.111451    1.110680
    110          6           0       15.750989    2.070623    1.247946
    111          7           0       10.098029   -1.335637    0.508367
    112          6           0       11.327194   -1.957250    0.696731
    113          6           0       11.120925   -3.306300    1.169208
    114          6           0        9.733800   -3.443699    1.307082
    115          6           0        9.130656   -2.254107    0.814064
    116          6           0       12.172217   -4.282920    1.577046
    117          6           0        8.685411   -4.364994    1.725408
    118          8           0        8.685480   -5.485670    2.217383
    119          6           0        7.330182   -3.502741    1.548574
    120          6           0        6.429097   -4.344977    0.780852
    121          8           0        6.597826   -4.754116   -0.378637
    122          8           0        5.595362   -4.971623    1.662168
    123          6           0        4.642063   -5.915777    1.174053
    124          1           0        5.685441    2.296649   -1.366503
    125          1           0       12.155571    3.813704   -1.738440
    126          1           0       13.482532   -1.904024    0.435845
    127          1           0        5.084542   -2.173401    0.207139
    128          1           0        4.480171    0.650993   -0.093893
    129          1           0        5.441352   -0.548287   -2.524874
    130          1           0        3.821076    0.002582   -2.169421
    131          1           0        4.276714   -1.670953   -1.835288
    132          1           0        4.638095    0.111278    2.075078
    133          1           0        5.561984   -1.228523    2.728252
    134          1           0        3.759790   -2.492097    2.845066
    135          1           0        3.025966   -2.041395    1.414873
    136          1           0        6.380916    5.731006   -1.601949
    137          1           0        5.764995    4.316893   -2.512005
    138          1           0        6.948415    5.365093   -3.264132
    139          1           0        8.666838    6.900675   -3.417680
    140          1           0        9.678004    7.849213   -2.281751
    141          1           0        8.245260    7.014876   -1.624841
    142          1           0       14.181801    2.838234   -0.956734
    143          1           0       14.793650   -0.084882   -0.703115
    144          1           0       14.728949    2.458091   -3.128615
    145          1           0       13.434703    1.234809   -3.428167
    146          1           0       14.963860    0.768684   -2.608051
    147          1           0       14.862583    0.228446    1.667533
    148          1           0       13.656103    1.481440    1.612643
    149          1           0       15.351813    2.936175    1.776486
    150          1           0       15.987586    2.346591    0.219945
    151          1           0       16.573095    1.635241    1.815801
    152          1           0       13.080319   -3.684093    1.650433
    153          1           0       12.245737   -5.002283    0.761489
    154          1           0       11.934334   -4.841229    2.482458
    155          1           0        6.911328   -3.277675    2.529225
    156          1           0        4.677564   -6.002040    0.087828
    157          1           0        3.671063   -5.500089    1.443535
    158          1           0        4.715819   -6.863525    1.705473
 ---------------------------------------------------------------------

 SCF Done:  E(RwB97XD) =  -4070.59814396     A.U. after   19 cycles

 Excitation energies and oscillator strengths:

 Excited State   1:      Singlet-A      1.6003 eV  774.77 nm  f=0.4072  <S**2>=0.000
     310 -> 316       -0.15940
     311 -> 313        0.67997
     312 -> 314        0.11271
     310 <- 316       -0.11144
 This state for optimization and/or second-order correction.
 Total Energy, E(TD-HF/TD-DFT) =  -4070.53933527
 Copying the excited state density for this state as the 1-particle RhoCI density.

 Excited State   2:      Singlet-A      1.6067 eV  771.68 nm  f=0.3476  <S**2>=0.000
     309 -> 315        0.17617
     311 -> 313       -0.11314
     312 -> 314        0.67612
     309 <- 315        0.11569

 Excited State   3:      Singlet-A      2.1245 eV  583.58 nm  f=0.2125  <S**2>=0.000
     310 -> 313        0.66526
     311 -> 316        0.22053

 Excited State   4:      Singlet-A      2.2111 eV  560.73 nm  f=0.0988  <S**2>=0.000
     309 -> 314        0.62730
     312 -> 315       -0.31213

 Excited State   5:      Singlet-A      3.3217 eV  373.26 nm  f=0.0000  <S**2>=0.000
     312 -> 313        0.70700

 The electronic state is 1-A.
 Alpha  occ. eigenvalues --  -46.95208 -46.95069 -19.30058 -19.29963 -19.25460
 Alpha  occ. eigenvalues --  -19.24976 -19.24397 -19.24304 -19.23389 -19.22414
 Alpha  occ. eigenvalues --  -14.47129 -14.46905 -14.46619 -14.45969 -14.44314
 Alpha  occ. eigenvalues --  -14.44246 -14.44246 -14.44169 -10.43206 -10.43013
 Alpha  occ. eigenvalues --  -10.40035 -10.39129 -10.38700 -10.37895 -10.35425
 Alpha  occ. eigenvalues --  -10.35383 -10.35315 -10.35099 -10.34970 -10.34879
 Alpha  occ. eigenvalues --  -10.34789 -10.34762 -10.34741 -10.34736 -10.34665
 Alpha  occ. eigenvalues --  -10.34638 -10.34453 -10.34413 -10.34126 -10.33815
 Alpha  occ. eigenvalues --  -10.33460 -10.33179 -10.33087 -10.32997 -10.32885
 Alpha  occ. eigenvalues --  -10.32685 -10.32678 -10.32590 -10.32475 -10.32359
 Alpha  occ. eigenvalues --  -10.32322 -10.32238 -10.32230 -10.32155 -10.32138
 Alpha  occ. eigenvalues --  -10.32043 -10.32020 -10.32014 -10.32000 -10.31968
 Alpha  occ. eigenvalues --  -10.31662 -10.31657 -10.31514 -10.31382 -10.31201
 Alpha  occ. eigenvalues --  -10.30991 -10.30957 -10.30742 -10.30673 -10.30604
 Alpha  occ. eigenvalues --  -10.30536 -10.30498 -10.30431 -10.30298 -10.30115
 Alpha  occ. eigenvalues --  -10.30066 -10.29759 -10.29613 -10.29590 -10.29582
 Alpha  occ. eigenvalues --  -10.29510 -10.29499 -10.29412 -10.29344 -10.29312
 Alpha  occ. eigenvalues --  -10.29274  -3.21310  -3.21140  -1.94869  -1.94693
 Alpha  occ. eigenvalues --   -1.94433  -1.94297  -1.94270  -1.94128  -1.19531
 Alpha  occ. eigenvalues --   -1.18742  -1.12748  -1.12496  -1.12312  -1.11281
 Alpha  occ. eigenvalues --   -1.09606  -1.09227  -1.06898  -1.06725  -1.06167
 Alpha  occ. eigenvalues --   -1.06025  -1.05635  -1.05463  -1.04785  -1.04565
 Alpha  occ. eigenvalues --   -0.95688  -0.95289  -0.91890  -0.91440  -0.91381
 Alpha  occ. eigenvalues --   -0.90652  -0.90425  -0.89928  -0.89583  -0.89362
 Alpha  occ. eigenvalues --   -0.88759  -0.88417  -0.88150  -0.87886  -0.86779
 Alpha  occ. eigenvalues --   -0.86600  -0.86177  -0.85961  -0.85000  -0.84766
 Alpha  occ. eigenvalues --   -0.83991  -0.83736  -0.83013  -0.82946  -0.82750
 Alpha  occ. eigenvalues --   -0.82600  -0.80476  -0.80010  -0.79570  -0.79387
 Alpha  occ. eigenvalues --   -0.79199  -0.78921  -0.78147  -0.78105  -0.77359
 Alpha  occ. eigenvalues --   -0.77226  -0.75334  -0.74823  -0.73786  -0.72871
 Alpha  occ. eigenvalues --   -0.71700  -0.71184  -0.70943  -0.70697  -0.70568
 Alpha  occ. eigenvalues --   -0.70150  -0.69227  -0.68884  -0.67916  -0.67627
 Alpha  occ. eigenvalues --   -0.67209  -0.67058  -0.66875  -0.66658  -0.66504
 Alpha  occ. eigenvalues --   -0.66435  -0.64220  -0.64046  -0.62705  -0.62105
 Alpha  occ. eigenvalues --   -0.61758  -0.61556  -0.61474  -0.61133  -0.61054
 Alpha  occ. eigenvalues --   -0.60820  -0.60365  -0.60242  -0.59670  -0.59530
 Alpha  occ. eigenvalues --   -0.58671  -0.58150  -0.57841  -0.57582  -0.57498
 Alpha  occ. eigenvalues --   -0.57180  -0.56850  -0.56690  -0.56588  -0.56148
 Alpha  occ. eigenvalues --   -0.56073  -0.55634  -0.55164  -0.55117  -0.54935
 Alpha  occ. eigenvalues --   -0.54742  -0.54437  -0.54434  -0.54349  -0.54333
 Alpha  occ. eigenvalues --   -0.54142  -0.53673  -0.53657  -0.53466  -0.53319
 Alpha  occ. eigenvalues --   -0.53201  -0.53165  -0.53006  -0.52912  -0.52234
 Alpha  occ. eigenvalues --   -0.52190  -0.51827  -0.51785  -0.51676  -0.51607
 Alpha  occ. eigenvalues --   -0.51460  -0.51433  -0.51344  -0.51127  -0.50984
 Alpha  occ. eigenvalues --   -0.50819  -0.50680  -0.50628  -0.50417  -0.50230
 Alpha  occ. eigenvalues --   -0.50039  -0.49751  -0.49599  -0.49486  -0.49259
 Alpha  occ. eigenvalues --   -0.49177  -0.49143  -0.48953  -0.48867  -0.48434
 Alpha  occ. eigenvalues --   -0.48420  -0.48331  -0.48118  -0.48082  -0.47954
 Alpha  occ. eigenvalues --   -0.47867  -0.47549  -0.47355  -0.47293  -0.47005
 Alpha  occ. eigenvalues --   -0.46900  -0.46728  -0.46707  -0.46426  -0.46269
 Alpha  occ. eigenvalues --   -0.46149  -0.45975  -0.45890  -0.45663  -0.45648
 Alpha  occ. eigenvalues --   -0.45287  -0.45153  -0.45035  -0.44834  -0.44733
 Alpha  occ. eigenvalues --   -0.44654  -0.44568  -0.44510  -0.44250  -0.44209
 Alpha  occ. eigenvalues --   -0.44008  -0.43919  -0.43885  -0.43602  -0.43214
 Alpha  occ. eigenvalues --   -0.43188  -0.42805  -0.42625  -0.42560  -0.42440
 Alpha  occ. eigenvalues --   -0.41889  -0.41715  -0.41341  -0.41199  -0.41159
 Alpha  occ. eigenvalues --   -0.40566  -0.40449  -0.40130  -0.39952  -0.39658
 Alpha  occ. eigenvalues --   -0.39453  -0.39208  -0.39201  -0.38601  -0.38375
 Alpha  occ. eigenvalues --   -0.37866  -0.37852  -0.37172  -0.36595  -0.36351
 Alpha  occ. eigenvalues --   -0.36266  -0.35429  -0.35368  -0.33754  -0.33710
 Alpha  occ. eigenvalues --   -0.33425  -0.33240  -0.32602  -0.32217  -0.32206
 Alpha  occ. eigenvalues --   -0.32046  -0.31953  -0.31739  -0.26359  -0.26146
 Alpha  occ. eigenvalues --   -0.23518  -0.22983
 Alpha virt. eigenvalues --   -0.07996  -0.07252  -0.00006   0.01169   0.02171
 Alpha virt. eigenvalues --    0.02381   0.04307   0.04370   0.04524   0.04975
 Alpha virt. eigenvalues --    0.06111   0.07390   0.07637   0.07683   0.08027

 Mulliken charges:
               1
     1  Mg   0.971217
     2  C   -0.073394
     3  C   -0.089013
     4  C   -0.070271
     5  C   -0.087487
     6  N   -0.366420
     7  C    0.021088
     8  C   -0.041362
     9  C   -0.131821
    10  C    0.059908
    11  C    0.036850
    12  C   -0.026046
    13  C   -0.105774
    14  H    0.040612
    15  N   -0.438496
    16  C    0.155059
    17  C   -0.199582
    18  C   -0.050550
    19  C    0.165321
    20  C    0.111167
    21  C    0.017431
    22  O   -0.237465
    23  C   -0.009360
    24  N   -0.357003
    25  C    0.045560
    26  C   -0.080047
    27  C   -0.111502
    28  C    0.037424
    29  C    0.042895
    30  C    0.014701
    31  C   -0.045919
    32  N   -0.434773
    33  C    0.148017
    34  C   -0.204989
    35  C   -0.044213
    36  C    0.162944
    37  C    0.102106
    38  C    0.124442
    39  O   -0.206191
    40  C   -0.072948
    41  C    0.257783
    42  O   -0.210216
    43  O   -0.374811
    44  C    0.128857
    45  H   -0.001874
    46  H   -0.030264
    47  H    0.001845
    48  H    0.040863
    49  H    0.051939
    50  H    0.037674
    51  H    0.045771
    52  H    0.046381
    53  H    0.018483
    54  H    0.023281
    55  H    0.051600
    56  H    0.057535
    57  H    0.065133
    58  H    0.021154
    59  H    0.056512
    60  H    0.065824
    61  H    0.044712
    62  H    0.054702
    63  H    0.033817
    64  H    0.029744
    65  H    0.040733
    66  H    0.046180
    67  H    0.027816
    68  H    0.057046
    69  H    0.024385
    70  H    0.038709
    71  H    0.025135
    72  H    0.035904
    73  H    0.069553
    74  H    0.037873
    75  H    0.057662
    76  H    0.065177
    77  H    0.072873
    78  H    0.056265
    79  H    0.056130
    80  Mg   0.983542
    81  C   -0.013796
    82  C   -0.065774
    83  C   -0.042907
    84  C   -0.083123
    85  N   -0.296561
    86  C   -0.036530
    87  C   -0.084004
    88  C   -0.102326
    89  C   -0.016867
    90  C    0.047761
    91  C    0.042985
    92  C   -0.116582
    93  H    0.054446
    94  N   -0.496861
    95  C    0.190314
    96  C   -0.170682
    97  C   -0.082070
    98  C    0.148063
    99  C    0.071837
   100  C    0.008696
   101  O   -0.274975
   102  C    0.009825
   103  N   -0.391894
   104  C    0.045204
   105  C   -0.110594
   106  C   -0.102281
   107  C    0.088873
   108  C    0.051797
   109  C   -0.033920
   110  C   -0.032726
   111  N   -0.399902
   112  C    0.123145
   113  C   -0.202676
   114  C   -0.040130
   115  C    0.129381
   116  C    0.087828
   117  C    0.156419
   118  O   -0.192533
   119  C   -0.060145
   120  C    0.245774
   121  O   -0.268785
   122  O   -0.350435
   123  C    0.133929
   124  H   -0.007267
   125  H    0.013652
   126  H    0.004900
   127  H    0.033067
   128  H    0.025834
   129  H    0.044420
   130  H    0.034828
   131  H    0.048194
   132  H    0.032408
   133  H    0.031229
   134  H    0.047561
   135  H    0.042666
   136  H    0.068172
   137  H    0.040561
   138  H    0.043047
   139  H    0.064030
   140  H    0.055048
   141  H    0.045608
   142  H    0.047101
   143  H    0.025347
   144  H    0.046348
   145  H    0.060259
   146  H    0.027914
   147  H    0.024616
   148  H    0.033460
   149  H    0.042578
   150  H    0.036180
   151  H    0.048550
   152  H    0.031181
   153  H    0.059905
   154  H    0.064915
   155  H    0.071896
   156  H    0.066047
   157  H    0.033305
   158  H    0.061701
 Sum of Mulliken charges =  -0.00000

 Dipole moment (field-independent basis, Debye):
    X=             -3.6293    Y=              3.5059    Z=              2.1154  Tot=              5.4716
 Quadrupole moment (field-independent basis, Debye-Ang):
   XX=           -480.5343   YY=           -513.9921   ZZ=           -542.6510
   XY=            -32.0672   XZ=             -8.7309   YZ=            -19.2830

 Normal termination of Gaussian 16 at Sat Sep 18 13:59:29 2021.
