 Gaussian 16, Revision A.03,
 Gaussian 16:  ES64L-G16RevA.03 25-Dec-2016

 --------------------------------
 #p wB97XD/Def2SVP td=(nstates=5)
 --------------------------------

 --------------------------------
 TDDFT excited states in gaussian
 --------------------------------
 Symbolic Z-matrix:
 Charge =  0 Multiplicity = 1

                         Standard orientation:
 ---------------------------------------------------------------------
 Center     Atomic      Atomic             Coordinates (Angstroms)
 Number     Number       Type             X           Y           Z
 ---------------------------------------------------------------------
      1         12           0       24.147991    0.603018    0.007934
      2          6           0       22.678266   -2.338633   -1.244892
      3          6           0       24.136022   -0.889586    3.148409
      4          6           0       25.227976    3.510135    1.195313
      5          6           0       23.293360    2.266736   -3.056725
      6          7           0       23.470492   -1.348010    0.846580
      7          6           0       23.012735   -2.437162    0.091810
      8          6           0       23.158301   -3.706159    0.911099
      9          6           0       23.350299   -3.219978    2.375843
     10          6           0       23.679887   -1.720064    2.110381
     11          6           0       22.175275   -3.507612    3.362414
     12          6           0       24.272539   -4.687069    0.406041
     13          6           0       23.959661   -6.224266    0.677808
     14          1           0       22.671351   -6.569541    1.429507
     15          7           0       24.716542    1.156705    1.826720
     16          6           0       24.714071    0.387054    2.977277
     17          6           0       25.321944    1.097478    4.065172
     18          6           0       25.535538    2.423728    3.570171
     19          6           0       25.195667    2.383412    2.159046
     20          6           0       25.487306    0.506602    5.498603
     21          6           0       26.013385    3.631984    4.307144
     22          8           0       26.003386    4.769043    3.778018
     23          6           0       26.497849    3.756025    5.781744
     24          7           0       24.006794    2.668647   -0.695807
     25          6           0       24.632541    3.670726   -0.049925
     26          6           0       24.770801    4.907719   -0.972635
     27          6           0       24.139020    4.531018   -2.317520
     28          6           0       23.824706    3.000098   -2.013233
     29          6           0       24.297818    6.160995   -0.301407
     30          6           0       24.995910    4.747029   -3.583386
     31          6           0       26.340627    3.979487   -3.611630
     32          7           0       23.122117    0.141751   -1.810403
     33          6           0       23.018698    0.854930   -2.956030
     34          6           0       22.550825   -0.071780   -3.985595
     35          6           0       22.411112   -1.367400   -3.413935
     36          6           0       22.727983   -1.183553   -2.046016
     37          6           0       22.380330    0.255140   -5.466795
     38          6           0       22.054832   -2.727759   -3.662789
     39          8           0       21.794253   -3.368933   -4.677363
     40          6           0       22.158255   -3.447535   -2.165239
     41          6           0       20.841741   -4.132245   -1.849639
     42          8           0       19.861384   -3.545891   -1.434553
     43          8           0       20.950317   -5.496121   -1.999718
     44          6           0       19.733311   -6.292272   -2.120514
     45          1           0       24.200962   -1.497147    4.053249
     46          1           0       25.680674    4.409798    1.616692
     47          1           0       23.188499    2.807896   -3.999068
     48          1           0       22.232624   -4.278739    0.854856
     49          1           0       24.247683   -3.707564    2.755622
     50          1           0       21.939026   -2.512507    3.737815
     51          1           0       22.525966   -4.080194    4.221899
     52          1           0       21.253793   -3.955547    2.990565
     53          1           0       25.211341   -4.529996    0.936246
     54          1           0       24.454315   -4.490787   -0.649839
     55          1           0       24.725749   -6.594237    1.359405
     56          1           0       23.979482   -6.732284   -0.286055
     57          1           0       25.291259    1.310744    6.208894
     58          1           0       26.499742    0.153814    5.692192
     59          1           0       24.901401   -0.350684    5.829739
     60          1           0       27.317114    3.063407    5.976644
     61          1           0       25.688263    3.624919    6.499665
     62          1           0       27.089451    4.647660    5.985932
     63          1           0       25.839571    5.111940   -1.022423
     64          1           0       23.154144    4.999033   -2.299475
     65          1           0       25.117095    6.781338    0.062473
     66          1           0       23.602538    5.912750    0.500665
     67          1           0       23.692060    6.807374   -0.937484
     68          1           0       25.217338    5.814029   -3.551763
     69          1           0       24.412508    4.518454   -4.475785
     70          1           0       26.283643    3.338159   -4.490915
     71          1           0       26.392414    3.403522   -2.687639
     72          1           0       27.223567    4.618284   -3.585218
     73          1           0       22.764589   -0.530724   -6.116454
     74          1           0       22.986308    1.112462   -5.758459
     75          1           0       21.335381    0.516072   -5.636648
     76          1           0       22.907095   -4.228809   -2.297916
     77          1           0       19.017412   -5.871245   -1.414102
     78          1           0       19.850814   -7.348251   -1.876953
     79          1           0       19.450184   -6.231094   -3.171351
     80         12           0      -24.037321    0.676019    0.121245
     81          6           0      -21.745372   -1.841468    1.033081
     82          6           0      -26.222343   -1.862620   -0.730585
     83          6           0      -26.313002    3.000658   -0.914087
     84          6           0      -21.700621    3.024151    0.664733
     85          7           0      -23.997561   -1.622554    0.183205
     86          6           0      -23.015155   -2.446225    0.719532
     87          6           0      -23.531219   -3.864430    0.857874
     88          6           0      -24.815917   -3.879197   -0.047930
     89          6           0      -25.023633   -2.387706   -0.185939
     90          6           0      -24.691065   -4.682368   -1.401659
     91          6           0      -23.907515   -4.233825    2.300478
     92          6           0      -23.599000   -5.677464    2.711690
     93          1           0      -24.434432   -6.823659    2.076580
     94          7           0      -26.016247    0.598751   -0.618700
     95          6           0      -26.658454   -0.555110   -0.913100
     96          6           0      -27.907601   -0.236671   -1.524760
     97          6           0      -28.088221    1.189234   -1.490054
     98          6           0      -26.779801    1.642683   -1.052448
     99          6           0      -28.842108   -1.298109   -2.035282
    100          6           0      -29.243657    2.082736   -1.941540
    101          8           0      -29.275711    3.303464   -1.670717
    102          6           0      -30.385632    1.570727   -2.812061
    103          7           0      -24.037505    2.700186   -0.004295
    104          6           0      -25.060925    3.483414   -0.529431
    105          6           0      -24.612477    4.908300   -0.567069
    106          6           0      -23.149149    5.009617   -0.004336
    107          6           0      -22.923869    3.517694    0.289946
    108          6           0      -24.857639    5.632616   -1.924924
    109          6           0      -22.978895    5.884913    1.256229
    110          6           0      -22.514894    7.321842    0.948993
    111          7           0      -22.136442    0.664968    0.666669
    112          6           0      -21.252020    1.709422    0.932435
    113          6           0      -19.924192    1.226006    1.464381
    114          6           0      -20.126748   -0.163637    1.463000
    115          6           0      -21.462961   -0.452858    1.037175
    116          6           0      -18.736879    2.082174    1.865701
    117          6           0      -19.442374   -1.407759    1.781059
    118          8           0      -18.292387   -1.621622    2.166858
    119          6           0      -20.548673   -2.534555    1.617232
    120          6           0      -19.909342   -3.599275    0.704317
    121          8           0      -19.214519   -3.392006   -0.269049
    122          8           0      -20.117378   -4.854066    1.273748
    123          6           0      -19.540485   -5.942275    0.484166
    124          1           0      -26.915938   -2.685632   -0.914026
    125          1           0      -26.963131    3.826100   -1.210702
    126          1           0      -20.966778    3.831703    0.697831
    127          1           0      -22.854953   -4.632333    0.483061
    128          1           0      -25.692494   -4.334524    0.413007
    129          1           0      -23.764257   -5.241586   -1.532926
    130          1           0      -24.737971   -4.099105   -2.320970
    131          1           0      -25.460138   -5.452208   -1.464935
    132          1           0      -24.966686   -4.061600    2.490388
    133          1           0      -23.339956   -3.634164    3.012366
    134          1           0      -23.612155   -5.803697    3.794187
    135          1           0      -22.561734   -5.935486    2.499150
    136          1           0      -28.169353   -1.917424   -2.628725
    137          1           0      -29.642751   -0.989105   -2.707129
    138          1           0      -29.288378   -1.924715   -1.263409
    139          1           0      -30.001927    1.032054   -3.678649
    140          1           0      -30.896336    2.495919   -3.078687
    141          1           0      -31.019000    0.875879   -2.260593
    142          1           0      -25.330639    5.474250    0.027043
    143          1           0      -22.391370    5.300723   -0.732891
    144          1           0      -25.266674    4.900195   -2.621216
    145          1           0      -23.901543    5.982134   -2.313644
    146          1           0      -25.581208    6.410829   -1.679869
    147          1           0      -22.351759    5.329097    1.952921
    148          1           0      -23.941790    6.069321    1.733099
    149          1           0      -22.790007    7.587785   -0.071827
    150          1           0      -21.439480    7.500337    0.957387
    151          1           0      -23.053530    7.997003    1.614583
    152          1           0      -18.998169    2.574421    2.802627
    153          1           0      -18.470138    2.875335    1.167522
    154          1           0      -17.909707    1.387209    2.009435
    155          1           0      -20.876210   -3.012415    2.540333
    156          1           0      -20.207328   -6.365741   -0.267504
    157          1           0      -19.253591   -6.679944    1.233460
    158          1           0      -18.654518   -5.748892   -0.120598
 ---------------------------------------------------------------------

 SCF Done:  E(RwB97XD) =  -4070.64559678     A.U. after   17 cycles

 Excitation energies and oscillator strengths:

 Excited State   1:      Singlet-A      1.6019 eV  773.96 nm  f=0.4031  <S**2>=0.000
     309 -> 316        0.17292
     311 -> 313        0.68565
     309 <- 316        0.11419
 This state for optimization and/or second-order correction.
 Total Energy, E(TD-HF/TD-DFT) =  -4070.58672641
 Copying the excited state density for this state as the 1-particle RhoCI density.

 Excited State   2:      Singlet-A      1.6476 eV  752.50 nm  f=0.3733  <S**2>=0.000
     310 -> 315       -0.19180
     312 -> 314        0.68144
     310 <- 315       -0.11859

 Excited State   3:      Singlet-A      2.1365 eV  580.32 nm  f=0.1495  <S**2>=0.000
     309 -> 313        0.65481
     311 -> 316       -0.24837

 Excited State   4:      Singlet-A      2.1798 eV  568.79 nm  f=0.0976  <S**2>=0.000
     310 -> 314        0.63414
     312 -> 315        0.30024

 Excited State   5:      Singlet-A      3.2950 eV  376.28 nm  f=0.0030  <S**2>=0.000
     306 -> 313        0.52476
     306 -> 316       -0.13548
     306 -> 317        0.34595
     306 -> 320        0.20406

 The electronic state is 1-A.
 Alpha  occ. eigenvalues --  -46.95234 -46.93969 -19.30959 -19.29458 -19.25312
 Alpha  occ. eigenvalues --  -19.24379 -19.24249 -19.24158 -19.24112 -19.23402
 Alpha  occ. eigenvalues --  -14.47268 -14.47156 -14.45963 -14.45854 -14.44878
 Alpha  occ. eigenvalues --  -14.44471 -14.44078 -14.43933 -10.43514 -10.42933
 Alpha  occ. eigenvalues --  -10.39840 -10.39583 -10.39468 -10.39073 -10.35621
 Alpha  occ. eigenvalues --  -10.35432 -10.35200 -10.35100 -10.34936 -10.34882
 Alpha  occ. eigenvalues --  -10.34811 -10.34776 -10.34773 -10.34745 -10.34528
 Alpha  occ. eigenvalues --  -10.34320 -10.34293 -10.34260 -10.33811 -10.33710
 Alpha  occ. eigenvalues --  -10.33634 -10.33225 -10.33172 -10.33061 -10.32995
 Alpha  occ. eigenvalues --  -10.32899 -10.32865 -10.32815 -10.32677 -10.32566
 Alpha  occ. eigenvalues --  -10.32415 -10.32302 -10.32282 -10.32177 -10.32084
 Alpha  occ. eigenvalues --  -10.32016 -10.31876 -10.31798 -10.31667 -10.31604
 Alpha  occ. eigenvalues --  -10.31547 -10.31452 -10.31400 -10.31283 -10.31204
 Alpha  occ. eigenvalues --  -10.31143 -10.31001 -10.30872 -10.30626 -10.30558
 Alpha  occ. eigenvalues --  -10.30458 -10.30297 -10.30236 -10.30224 -10.30186
 Alpha  occ. eigenvalues --  -10.30104 -10.30095 -10.30012 -10.29953 -10.29697
 Alpha  occ. eigenvalues --  -10.29505 -10.29414 -10.29399 -10.29349 -10.29293
 Alpha  occ. eigenvalues --  -10.28721  -3.21246  -3.20163  -1.94806  -1.94369
 Alpha  occ. eigenvalues --   -1.94226  -1.93757  -1.93268  -1.93180  -1.18437
 Alpha  occ. eigenvalues --   -1.17586  -1.11655  -1.11424  -1.11146  -1.10617
 Alpha  occ. eigenvalues --   -1.10354  -1.09617  -1.06704  -1.06334  -1.05723
 Alpha  occ. eigenvalues --   -1.05457  -1.05210  -1.05055  -1.04104  -1.03425
 Alpha  occ. eigenvalues --   -0.94519  -0.94124  -0.91274  -0.91020  -0.90895
 Alpha  occ. eigenvalues --   -0.90388  -0.90190  -0.90088  -0.89378  -0.89256
 Alpha  occ. eigenvalues --   -0.88968  -0.88760  -0.88063  -0.87224  -0.86304
 Alpha  occ. eigenvalues --   -0.85679  -0.85414  -0.85202  -0.84194  -0.84064
 Alpha  occ. eigenvalues --   -0.83649  -0.82970  -0.82896  -0.82551  -0.82024
 Alpha  occ. eigenvalues --   -0.81942  -0.80648  -0.80412  -0.79363  -0.79176
 Alpha  occ. eigenvalues --   -0.78830  -0.78653  -0.78066  -0.77738  -0.76981
 Alpha  occ. eigenvalues --   -0.76913  -0.74653  -0.74486  -0.73612  -0.73017
 Alpha  occ. eigenvalues --   -0.71802  -0.71330  -0.71095  -0.70715  -0.70302
 Alpha  occ. eigenvalues --   -0.70140  -0.69498  -0.69307  -0.67701  -0.67424
 Alpha  occ. eigenvalues --   -0.67185  -0.66833  -0.66467  -0.66141  -0.66120
 Alpha  occ. eigenvalues --   -0.66036  -0.64532  -0.63606  -0.62912  -0.62342
 Alpha  occ. eigenvalues --   -0.62130  -0.61426  -0.60919  -0.60771  -0.60455
 Alpha  occ. eigenvalues --   -0.60023  -0.59681  -0.59476  -0.59368  -0.58893
 Alpha  occ. eigenvalues --   -0.58015  -0.57872  -0.57649  -0.57439  -0.57063
 Alpha  occ. eigenvalues --   -0.56760  -0.56713  -0.56516  -0.55826  -0.55734
 Alpha  occ. eigenvalues --   -0.55407  -0.55374  -0.55066  -0.54965  -0.54801
 Alpha  occ. eigenvalues --   -0.54658  -0.54490  -0.54467  -0.54252  -0.54097
 Alpha  occ. eigenvalues --   -0.53891  -0.53758  -0.53677  -0.53248  -0.53144
 Alpha  occ. eigenvalues --   -0.52931  -0.52583  -0.52372  -0.52177  -0.51978
 Alpha  occ. eigenvalues --   -0.51971  -0.51704  -0.51470  -0.51247  -0.51135
 Alpha  occ. eigenvalues --   -0.51089  -0.50992  -0.50909  -0.50828  -0.50644
 Alpha  occ. eigenvalues --   -0.50529  -0.50382  -0.50170  -0.50110  -0.49986
 Alpha  occ. eigenvalues --   -0.49802  -0.49646  -0.49561  -0.49329  -0.49306
 Alpha  occ. eigenvalues --   -0.48755  -0.48586  -0.48572  -0.48432  -0.48290
 Alpha  occ. eigenvalues --   -0.48232  -0.48193  -0.47812  -0.47757  -0.47432
 Alpha  occ. eigenvalues --   -0.47362  -0.47117  -0.46817  -0.46647  -0.46567
 Alpha  occ. eigenvalues --   -0.46441  -0.46390  -0.46275  -0.46240  -0.46122
 Alpha  occ. eigenvalues --   -0.45961  -0.45877  -0.45499  -0.45361  -0.45351
 Alpha  occ. eigenvalues --   -0.45119  -0.45089  -0.44940  -0.44940  -0.44614
 Alpha  occ. eigenvalues --   -0.44497  -0.44280  -0.44274  -0.43842  -0.43837
 Alpha  occ. eigenvalues --   -0.43766  -0.43712  -0.43544  -0.43504  -0.43483
 Alpha  occ. eigenvalues --   -0.43093  -0.42955  -0.42622  -0.42498  -0.42379
 Alpha  occ. eigenvalues --   -0.42143  -0.41962  -0.41580  -0.41491  -0.41127
 Alpha  occ. eigenvalues --   -0.40582  -0.40542  -0.40220  -0.39841  -0.39727
 Alpha  occ. eigenvalues --   -0.39564  -0.39275  -0.38876  -0.38830  -0.38698
 Alpha  occ. eigenvalues --   -0.38240  -0.37947  -0.37131  -0.36934  -0.36007
 Alpha  occ. eigenvalues --   -0.35678  -0.35226  -0.35076  -0.33655  -0.33487
 Alpha  occ. eigenvalues --   -0.33137  -0.32941  -0.32919  -0.32740  -0.32662
 Alpha  occ. eigenvalues --   -0.32222  -0.32186  -0.31621  -0.26013  -0.25854
 Alpha  occ. eigenvalues --   -0.23164  -0.22868
 Alpha virt. eigenvalues --   -0.07581  -0.06898   0.00156   0.00544   0.02031
 Alpha virt. eigenvalues --    0.02063   0.03868   0.04106   0.04698   0.06798
 Alpha virt. eigenvalues --    0.07133   0.07398   0.07441   0.07794   0.08346

 Mulliken charges:
               1
     1  Mg   0.971985
     2  C    0.006786
     3  C   -0.061669
     4  C   -0.063086
     5  C   -0.062955
     6  N   -0.337708
     7  C   -0.003107
     8  C   -0.035428
     9  C   -0.097866
    10  C    0.010215
    11  C    0.027398
    12  C   -0.006630
    13  C   -0.129159
    14  H    0.034130
    15  N   -0.495120
    16  C    0.189893
    17  C   -0.136924
    18  C   -0.054436
    19  C    0.137836
    20  C    0.059043
    21  C    0.036181
    22  O   -0.271636
    23  C   -0.006888
    24  N   -0.340817
    25  C    0.077657
    26  C   -0.129620
    27  C   -0.020092
    28  C    0.012688
    29  C    0.021355
    30  C   -0.019660
    31  C   -0.045854
    32  N   -0.428887
    33  C    0.150650
    34  C   -0.205202
    35  C    0.004371
    36  C    0.122983
    37  C    0.072299
    38  C    0.116720
    39  O   -0.207615
    40  C   -0.128481
    41  C    0.274787
    42  O   -0.237517
    43  O   -0.379811
    44  C    0.133600
    45  H   -0.002954
    46  H    0.023045
    47  H   -0.004382
    48  H    0.030766
    49  H    0.033123
    50  H    0.030666
    51  H    0.034877
    52  H    0.058496
    53  H    0.029774
    54  H    0.037192
    55  H    0.054501
    56  H    0.069156
    57  H    0.037153
    58  H    0.051122
    59  H    0.045643
    60  H    0.030930
    61  H    0.073506
    62  H    0.048575
    63  H    0.037196
    64  H    0.038790
    65  H    0.043468
    66  H    0.041878
    67  H    0.022294
    68  H    0.033275
    69  H    0.039436
    70  H    0.046918
    71  H    0.038543
    72  H    0.042987
    73  H    0.057605
    74  H    0.018489
    75  H    0.059425
    76  H    0.065545
    77  H    0.060262
    78  H    0.053711
    79  H    0.064581
    80  Mg   1.001509
    81  C   -0.064789
    82  C   -0.110844
    83  C   -0.083577
    84  C   -0.100678
    85  N   -0.307703
    86  C    0.022416
    87  C   -0.031763
    88  C   -0.097653
    89  C    0.018993
    90  C    0.007946
    91  C    0.023173
    92  C   -0.123386
    93  H    0.016978
    94  N   -0.427946
    95  C    0.224094
    96  C   -0.180522
    97  C   -0.042829
    98  C    0.127593
    99  C    0.061900
   100  C    0.049258
   101  O   -0.257584
   102  C   -0.023943
   103  N   -0.456635
   104  C    0.109025
   105  C   -0.100388
   106  C   -0.055417
   107  C    0.059222
   108  C    0.015937
   109  C    0.000261
   110  C   -0.055620
   111  N   -0.483404
   112  C    0.140341
   113  C   -0.167130
   114  C   -0.071756
   115  C    0.182659
   116  C    0.080913
   117  C    0.161289
   118  O   -0.208508
   119  C   -0.105850
   120  C    0.266138
   121  O   -0.223738
   122  O   -0.369612
   123  C    0.126348
   124  H   -0.009050
   125  H    0.016377
   126  H   -0.010431
   127  H    0.030640
   128  H    0.039899
   129  H    0.034305
   130  H    0.041871
   131  H    0.034264
   132  H    0.040655
   133  H    0.036925
   134  H    0.048521
   135  H    0.050363
   136  H    0.046117
   137  H    0.026886
   138  H    0.058670
   139  H    0.061446
   140  H    0.063742
   141  H    0.063671
   142  H    0.042756
   143  H    0.042957
   144  H    0.043672
   145  H    0.034126
   146  H    0.043569
   147  H    0.037028
   148  H    0.028004
   149  H    0.024574
   150  H    0.041200
   151  H    0.040897
   152  H    0.050539
   153  H    0.047791
   154  H    0.066197
   155  H    0.072905
   156  H    0.043204
   157  H    0.055696
   158  H    0.065293
 Sum of Mulliken charges =  -0.00000

 Dipole moment (field-independent basis, Debye):
    X=             -0.0016    Y=             -2.9623    Z=              2.4082  Tot=              3.8177
 Quadrupole moment (field-independent basis, Debye-Ang):
   XX=           -173.9294   YY=           -466.4543   ZZ=           -497.3078
   XY=             27.9651   XZ=             91.8977   YZ=            -23.8576

 Normal termination of Gaussian 16 at Sun Sep 19 05:59:25 2021.
