 Gaussian 16, Revision A.03,
 Gaussian 16:  ES64L-G16RevA.03 25-Dec-2016

 --------------------------------
 #p wB97XD/Def2SVP td=(nstates=5)
 --------------------------------

 --------------------------------
 TDDFT excited states in gaussian
 --------------------------------
 Symbolic Z-matrix:
 Charge =  0 Multiplicity = 1

                         Standard orientation:
 ---------------------------------------------------------------------
 Center     Atomic      Atomic             Coordinates (Angstroms)
 Number     Number       Type             X           Y           Z
 ---------------------------------------------------------------------
      1         12           0       20.550046   -0.789213   -0.041573
      2          6           0       22.664975    1.963606   -0.247677
      3          6           0       18.280511    1.140245    1.652320
      4          6           0       18.669533   -3.595763    0.406958
      5          6           0       23.155735   -2.649165   -1.585687
      6          7           0       20.494352    1.289839    0.653264
      7          6           0       21.430296    2.237628    0.333131
      8          6           0       20.900254    3.568930    0.871350
      9          6           0       19.685244    3.219619    1.712187
     10          6           0       19.448271    1.778097    1.276490
     11          6           0       19.731330    3.395978    3.206261
     12          6           0       20.642663    4.705047   -0.229163
     13          6           0       19.899478    5.984662    0.272746
     14          1           0       20.744263    7.177379    0.792198
     15          7           0       18.669105   -1.115790    0.772205
     16          6           0       17.910663   -0.215334    1.445622
     17          6           0       16.743049   -0.921557    1.904965
     18          6           0       16.868802   -2.295267    1.543973
     19          6           0       18.102032   -2.405210    0.904125
     20          6           0       15.662110   -0.197327    2.646477
     21          6           0       15.902813   -3.446975    1.947824
     22          8           0       16.244003   -4.615444    1.904932
     23          6           0       14.582067   -3.227548    2.514706
     24          7           0       20.867785   -2.703657   -0.505553
     25          6           0       19.938053   -3.717289   -0.275604
     26          6           0       20.409491   -5.081440   -0.808570
     27          6           0       21.662588   -4.672830   -1.655325
     28          6           0       21.879988   -3.223956   -1.251139
     29          6           0       20.498871   -6.178517    0.169867
     30          6           0       21.648672   -4.906948   -3.266263
     31          6           0       22.699812   -5.798816   -3.933740
     32          7           0       22.600196   -0.452542   -0.752611
     33          6           0       23.492009   -1.316060   -1.324309
     34          6           0       24.709324   -0.655441   -1.655820
     35          6           0       24.408864    0.717001   -1.308563
     36          6           0       23.132917    0.750407   -0.679270
     37          6           0       25.866429   -1.312817   -2.306226
     38          6           0       24.913727    2.068057   -1.394440
     39          8           0       25.904118    2.570971   -1.887707
     40          6           0       23.742437    2.953865   -0.664216
     41          6           0       24.305614    3.842699    0.383928
     42          8           0       24.806694    3.438869    1.410363
     43          8           0       24.184961    5.145492    0.074068
     44          6           0       24.484932    6.147673    1.167597
     45          1           0       17.530533    1.762805    2.145228
     46          1           0       18.050676   -4.480376    0.570000
     47          1           0       23.811686   -3.378370   -2.066111
     48          1           0       21.745369    3.867100    1.491661
     49          1           0       18.851823    3.859206    1.422677
     50          1           0       19.795486    2.348891    3.500626
     51          1           0       18.867994    3.938056    3.592410
     52          1           0       20.667115    3.841976    3.543835
     53          1           0       20.024897    4.170726   -0.951254
     54          1           0       21.589088    5.008395   -0.675226
     55          1           0       19.238496    5.763718    1.109892
     56          1           0       19.267776    6.342599   -0.540222
     57          1           0       15.743597    0.884930    2.752084
     58          1           0       15.710293   -0.570937    3.668778
     59          1           0       14.661045   -0.445139    2.292995
     60          1           0       14.451014   -2.526303    3.338190
     61          1           0       14.037551   -4.128386    2.797415
     62          1           0       14.022196   -2.880080    1.646679
     63          1           0       19.574925   -5.262782   -1.486405
     64          1           0       22.419758   -5.244909   -1.119358
     65          1           0       19.829630   -7.026978    0.024745
     66          1           0       20.295116   -5.755145    1.153750
     67          1           0       21.474785   -6.662332    0.208030
     68          1           0       21.738743   -3.927905   -3.736477
     69          1           0       20.732192   -5.298952   -3.708914
     70          1           0       23.491203   -5.262498   -4.457994
     71          1           0       22.295160   -6.616665   -4.529289
     72          1           0       23.268511   -6.278430   -3.136970
     73          1           0       26.050780   -2.262120   -1.803851
     74          1           0       26.751206   -0.677324   -2.332684
     75          1           0       25.526704   -1.676655   -3.276456
     76          1           0       23.348249    3.605503   -1.443341
     77          1           0       24.675410    7.054908    0.594678
     78          1           0       25.356856    5.804859    1.724303
     79          1           0       23.570761    6.253422    1.751914
     80         12           0      -21.438351   -0.365478   -0.047780
     81          6           0      -20.405624    2.874748   -0.758326
     82          6           0      -20.884586    0.308075    3.270776
     83          6           0      -22.208347   -3.656309    0.653961
     84          6           0      -21.438916   -1.159689   -3.441864
     85          7           0      -20.819472    1.428192    1.103285
     86          6           0      -20.555512    2.661751    0.639724
     87          6           0      -20.357341    3.737806    1.732639
     88          6           0      -20.278343    2.832524    3.035747
     89          6           0      -20.646442    1.383262    2.456590
     90          6           0      -18.843653    2.959608    3.661435
     91          6           0      -21.639651    4.716616    1.670490
     92          6           0      -21.346443    6.239083    1.526532
     93          1           0      -19.897740    6.656791    1.969842
     94          7           0      -21.477902   -1.569718    1.674106
     95          6           0      -21.293926   -1.055294    2.974191
     96          6           0      -21.666534   -2.073488    3.933028
     97          6           0      -21.998339   -3.228563    3.213705
     98          6           0      -21.984492   -2.837274    1.755530
     99          6           0      -21.364732   -1.906249    5.429064
    100          6           0      -22.361890   -4.630475    3.770812
    101          8           0      -22.655276   -5.622941    3.078322
    102          6           0      -22.444142   -4.805744    5.296967
    103          7           0      -21.690136   -2.143455   -1.268593
    104          6           0      -22.071432   -3.387806   -0.680521
    105          6           0      -22.086047   -4.502855   -1.746950
    106          6           0      -22.117456   -3.625873   -3.084445
    107          6           0      -21.769451   -2.205080   -2.568063
    108          6           0      -20.899265   -5.427193   -1.530427
    109          6           0      -23.555797   -3.638383   -3.754570
    110          6           0      -24.897067   -3.287978   -3.024638
    111          7           0      -20.950304    0.576748   -1.751630
    112          6           0      -20.974516    0.145949   -3.081650
    113          6           0      -20.579273    1.224915   -3.927672
    114          6           0      -20.391021    2.310267   -3.091109
    115          6           0      -20.522265    1.861743   -1.753596
    116          6           0      -20.351343    1.185180   -5.424948
    117          6           0      -20.060339    3.679889   -3.070740
    118          8           0      -19.723408    4.352559   -3.992412
    119          6           0      -19.942967    4.066155   -1.538268
    120          6           0      -18.491121    4.376067   -1.298929
    121          8           0      -17.728544    3.640031   -0.708318
    122          8           0      -18.231681    5.553251   -1.880263
    123          6           0      -16.825147    5.762528   -2.122112
    124          1           0      -20.789903    0.535383    4.334421
    125          1           0      -22.210798   -4.723525    0.882367
    126          1           0      -21.423115   -1.395586   -4.508449
    127          1           0      -19.474842    4.365451    1.610206
    128          1           0      -21.021488    3.062819    3.799507
    129          1           0      -18.399338    2.021219    3.994114
    130          1           0      -19.087115    3.618439    4.494482
    131          1           0      -18.245060    3.536201    2.956624
    132          1           0      -22.273610    4.467371    2.521156
    133          1           0      -22.223641    4.407223    0.803349
    134          1           0      -22.108947    6.657174    2.182818
    135          1           0      -21.496994    6.644662    0.526499
    136          1           0      -20.749560   -2.755870    5.726466
    137          1           0      -22.292781   -1.992879    5.995745
    138          1           0      -20.875929   -0.948307    5.603878
    139          1           0      -21.419241   -4.793122    5.670105
    140          1           0      -22.799286   -5.824009    5.454542
    141          1           0      -23.214243   -4.147485    5.698389
    142          1           0      -23.066008   -4.969340   -1.641989
    143          1           0      -21.467034   -4.073689   -3.834917
    144          1           0      -20.580493   -5.478231   -0.489202
    145          1           0      -20.047225   -5.103396   -2.127723
    146          1           0      -21.160024   -6.455563   -1.779703
    147          1           0      -23.682940   -4.605200   -4.241704
    148          1           0      -23.478180   -2.836316   -4.488621
    149          1           0      -25.286561   -4.199865   -2.571805
    150          1           0      -25.566726   -2.933472   -3.809084
    151          1           0      -24.861368   -2.448007   -2.330162
    152          1           0      -21.249284    0.896844   -5.971749
    153          1           0      -19.589963    0.415476   -5.549616
    154          1           0      -20.147039    2.146749   -5.897934
    155          1           0      -20.493190    4.940789   -1.190858
    156          1           0      -16.613423    6.373296   -2.999429
    157          1           0      -16.108679    4.942234   -2.080953
    158          1           0      -16.332558    6.341176   -1.340390
 ---------------------------------------------------------------------

 SCF Done:  E(RwB97XD) =  -4070.61512478     A.U. after   19 cycles

 Excitation energies and oscillator strengths:

 Excited State   1:      Singlet-A      1.6386 eV  756.62 nm  f=0.3929  <S**2>=0.000
     309 -> 315       -0.18463
     311 -> 313        0.68351
     309 <- 315       -0.11770
 This state for optimization and/or second-order correction.
 Total Energy, E(TD-HF/TD-DFT) =  -4070.55490554
 Copying the excited state density for this state as the 1-particle RhoCI density.

 Excited State   2:      Singlet-A      1.6514 eV  750.80 nm  f=0.3929  <S**2>=0.000
     310 -> 316       -0.18083
     312 -> 314        0.68422
     310 <- 316       -0.11557

 Excited State   3:      Singlet-A      2.1629 eV  573.23 nm  f=0.0888  <S**2>=0.000
     309 -> 313        0.63059
     311 -> 315        0.30287

 Excited State   4:      Singlet-A      2.1706 eV  571.19 nm  f=0.1271  <S**2>=0.000
     310 -> 314        0.64455
     312 -> 316        0.27782

 Excited State   5:      Singlet-A      3.2555 eV  380.84 nm  f=0.0003  <S**2>=0.000
     306 -> 313       -0.22822
     308 -> 313        0.64118

 The electronic state is 1-A.
 Alpha  occ. eigenvalues --  -46.94444 -46.94220 -19.31429 -19.29632 -19.25052
 Alpha  occ. eigenvalues --  -19.24476 -19.24100 -19.23715 -19.23606 -19.23195
 Alpha  occ. eigenvalues --  -14.47332 -14.46866 -14.46610 -14.46049 -14.44145
 Alpha  occ. eigenvalues --  -14.43730 -14.43684 -14.43021 -10.43201 -10.41793
 Alpha  occ. eigenvalues --  -10.39545 -10.39074 -10.38895 -10.38672 -10.35856
 Alpha  occ. eigenvalues --  -10.35698 -10.35659 -10.35142 -10.35133 -10.35118
 Alpha  occ. eigenvalues --  -10.34721 -10.34444 -10.34358 -10.34306 -10.33916
 Alpha  occ. eigenvalues --  -10.33858 -10.33849 -10.33742 -10.33641 -10.33631
 Alpha  occ. eigenvalues --  -10.33595 -10.32992 -10.32983 -10.32645 -10.32472
 Alpha  occ. eigenvalues --  -10.32451 -10.32376 -10.32234 -10.32201 -10.32173
 Alpha  occ. eigenvalues --  -10.32104 -10.31937 -10.31783 -10.31736 -10.31659
 Alpha  occ. eigenvalues --  -10.31627 -10.31574 -10.31484 -10.31314 -10.31230
 Alpha  occ. eigenvalues --  -10.31192 -10.31129 -10.31102 -10.31066 -10.31000
 Alpha  occ. eigenvalues --  -10.30964 -10.30948 -10.30910 -10.30891 -10.30808
 Alpha  occ. eigenvalues --  -10.30776 -10.30600 -10.30509 -10.30225 -10.30123
 Alpha  occ. eigenvalues --  -10.30009 -10.29688 -10.29642 -10.29590 -10.29448
 Alpha  occ. eigenvalues --  -10.29395 -10.29323 -10.29304 -10.29207 -10.29108
 Alpha  occ. eigenvalues --  -10.28809  -3.20477  -3.20297  -1.94070  -1.93909
 Alpha  occ. eigenvalues --   -1.93580  -1.93468  -1.93423  -1.93274  -1.20398
 Alpha  occ. eigenvalues --   -1.18011  -1.14335  -1.13192  -1.11734  -1.11315
 Alpha  occ. eigenvalues --   -1.10508  -1.08919  -1.07232  -1.06213  -1.06127
 Alpha  occ. eigenvalues --   -1.05357  -1.05335  -1.04771  -1.04411  -1.03165
 Alpha  occ. eigenvalues --   -0.94853  -0.94396  -0.91067  -0.90574  -0.90459
 Alpha  occ. eigenvalues --   -0.90274  -0.90016  -0.89654  -0.89493  -0.89051
 Alpha  occ. eigenvalues --   -0.88914  -0.88646  -0.88457  -0.87949  -0.86532
 Alpha  occ. eigenvalues --   -0.85912  -0.85600  -0.85289  -0.84557  -0.84371
 Alpha  occ. eigenvalues --   -0.84180  -0.83341  -0.83188  -0.82830  -0.82707
 Alpha  occ. eigenvalues --   -0.81897  -0.80761  -0.79713  -0.79668  -0.79195
 Alpha  occ. eigenvalues --   -0.79044  -0.78687  -0.77833  -0.77813  -0.77095
 Alpha  occ. eigenvalues --   -0.76914  -0.74992  -0.74769  -0.73794  -0.73169
 Alpha  occ. eigenvalues --   -0.71300  -0.70848  -0.70835  -0.70662  -0.70228
 Alpha  occ. eigenvalues --   -0.69962  -0.68931  -0.68353  -0.67841  -0.67538
 Alpha  occ. eigenvalues --   -0.67367  -0.66612  -0.66573  -0.66485  -0.66204
 Alpha  occ. eigenvalues --   -0.65893  -0.64398  -0.63421  -0.62528  -0.62013
 Alpha  occ. eigenvalues --   -0.61701  -0.61443  -0.60960  -0.60933  -0.60814
 Alpha  occ. eigenvalues --   -0.60416  -0.60025  -0.59964  -0.59268  -0.59229
 Alpha  occ. eigenvalues --   -0.58331  -0.58239  -0.57748  -0.57689  -0.57289
 Alpha  occ. eigenvalues --   -0.56936  -0.56715  -0.56486  -0.56394  -0.55920
 Alpha  occ. eigenvalues --   -0.55762  -0.55343  -0.55101  -0.55089  -0.54902
 Alpha  occ. eigenvalues --   -0.54538  -0.54464  -0.54227  -0.54127  -0.54027
 Alpha  occ. eigenvalues --   -0.53923  -0.53855  -0.53708  -0.53247  -0.52913
 Alpha  occ. eigenvalues --   -0.52894  -0.52766  -0.52609  -0.52450  -0.52260
 Alpha  occ. eigenvalues --   -0.51876  -0.51839  -0.51791  -0.51483  -0.51380
 Alpha  occ. eigenvalues --   -0.51255  -0.51088  -0.51046  -0.50905  -0.50766
 Alpha  occ. eigenvalues --   -0.50549  -0.50510  -0.50249  -0.50174  -0.49878
 Alpha  occ. eigenvalues --   -0.49689  -0.49644  -0.49422  -0.49372  -0.49118
 Alpha  occ. eigenvalues --   -0.49045  -0.48775  -0.48609  -0.48505  -0.48500
 Alpha  occ. eigenvalues --   -0.48211  -0.48172  -0.48117  -0.48017  -0.47777
 Alpha  occ. eigenvalues --   -0.47512  -0.47169  -0.47072  -0.47024  -0.46923
 Alpha  occ. eigenvalues --   -0.46736  -0.46549  -0.46467  -0.46324  -0.46278
 Alpha  occ. eigenvalues --   -0.46185  -0.45921  -0.45701  -0.45648  -0.45601
 Alpha  occ. eigenvalues --   -0.45398  -0.45278  -0.45023  -0.44938  -0.44790
 Alpha  occ. eigenvalues --   -0.44647  -0.44598  -0.44314  -0.43976  -0.43825
 Alpha  occ. eigenvalues --   -0.43732  -0.43726  -0.43463  -0.43293  -0.43216
 Alpha  occ. eigenvalues --   -0.42823  -0.42719  -0.42629  -0.42287  -0.42210
 Alpha  occ. eigenvalues --   -0.42100  -0.41477  -0.41440  -0.41184  -0.41072
 Alpha  occ. eigenvalues --   -0.40698  -0.39754  -0.39692  -0.39420  -0.39209
 Alpha  occ. eigenvalues --   -0.39129  -0.39006  -0.38890  -0.38469  -0.38281
 Alpha  occ. eigenvalues --   -0.38181  -0.38066  -0.36786  -0.36217  -0.36112
 Alpha  occ. eigenvalues --   -0.36039  -0.34970  -0.34959  -0.33836  -0.33255
 Alpha  occ. eigenvalues --   -0.33176  -0.33081  -0.32511  -0.32334  -0.32222
 Alpha  occ. eigenvalues --   -0.31900  -0.31719  -0.31215  -0.26122  -0.25713
 Alpha  occ. eigenvalues --   -0.22927  -0.22807
 Alpha virt. eigenvalues --   -0.07157  -0.06926   0.00039   0.00581   0.02588
 Alpha virt. eigenvalues --    0.02681   0.04575   0.04833   0.05595   0.06481
 Alpha virt. eigenvalues --    0.07082   0.07342   0.07931   0.08294   0.08444

 Mulliken charges:
               1
     1  Mg   0.970188
     2  C    0.027066
     3  C   -0.088550
     4  C   -0.071923
     5  C   -0.105531
     6  N   -0.331679
     7  C   -0.006813
     8  C   -0.044225
     9  C   -0.151530
    10  C    0.059790
    11  C    0.050688
    12  C    0.000186
    13  C   -0.115541
    14  H    0.029145
    15  N   -0.488280
    16  C    0.172490
    17  C   -0.166681
    18  C   -0.057425
    19  C    0.125938
    20  C    0.053207
    21  C    0.071554
    22  O   -0.233731
    23  C   -0.004375
    24  N   -0.423019
    25  C    0.060838
    26  C   -0.086715
    27  C   -0.053580
    28  C    0.048466
    29  C    0.042959
    30  C   -0.002766
    31  C   -0.069044
    32  N   -0.373919
    33  C    0.159933
    34  C   -0.166724
    35  C   -0.076290
    36  C    0.113187
    37  C    0.102596
    38  C    0.145444
    39  O   -0.193155
    40  C   -0.138542
    41  C    0.241157
    42  O   -0.254339
    43  O   -0.372468
    44  C    0.133521
    45  H   -0.016234
    46  H    0.028731
    47  H    0.001730
    48  H    0.035328
    49  H    0.021804
    50  H    0.039180
    51  H    0.043586
    52  H    0.038582
    53  H    0.034498
    54  H    0.060988
    55  H    0.043688
    56  H    0.059111
    57  H    0.039662
    58  H    0.049905
    59  H    0.047212
    60  H    0.056545
    61  H    0.050151
    62  H    0.049729
    63  H    0.038412
    64  H    0.031800
    65  H    0.040590
    66  H    0.046736
    67  H    0.027944
    68  H    0.036102
    69  H    0.035539
    70  H    0.039391
    71  H    0.045780
    72  H    0.018530
    73  H    0.034811
    74  H    0.072735
    75  H    0.044349
    76  H    0.067412
    77  H    0.062661
    78  H    0.082018
    79  H    0.059488
    80  Mg   0.964414
    81  C   -0.022125
    82  C   -0.067135
    83  C   -0.064483
    84  C   -0.108179
    85  N   -0.333600
    86  C    0.014159
    87  C   -0.076098
    88  C   -0.120541
    89  C    0.066961
    90  C    0.027387
    91  C   -0.000281
    92  C   -0.127125
    93  H    0.034950
    94  N   -0.460981
    95  C    0.133515
    96  C   -0.174153
    97  C   -0.090038
    98  C    0.138125
    99  C    0.086256
   100  C    0.051153
   101  O   -0.252397
   102  C   -0.016079
   103  N   -0.338758
   104  C    0.022147
   105  C   -0.061312
   106  C   -0.072395
   107  C    0.096882
   108  C    0.042013
   109  C   -0.059421
   110  C   -0.054436
   111  N   -0.488615
   112  C    0.148377
   113  C   -0.184044
   114  C   -0.008160
   115  C    0.147965
   116  C    0.079493
   117  C    0.095199
   118  O   -0.162861
   119  C   -0.097463
   120  C    0.245604
   121  O   -0.237026
   122  O   -0.309745
   123  C    0.140979
   124  H   -0.012937
   125  H    0.030875
   126  H    0.003274
   127  H    0.039783
   128  H    0.038849
   129  H    0.052134
   130  H    0.032877
   131  H    0.049448
   132  H    0.033258
   133  H    0.042360
   134  H    0.057050
   135  H    0.070060
   136  H    0.044631
   137  H    0.039418
   138  H    0.041538
   139  H    0.061747
   140  H    0.044465
   141  H    0.063923
   142  H    0.035126
   143  H    0.030270
   144  H    0.046238
   145  H    0.035034
   146  H    0.037273
   147  H    0.038918
   148  H    0.021489
   149  H    0.047739
   150  H    0.037275
   151  H    0.043650
   152  H    0.037599
   153  H    0.056817
   154  H    0.057401
   155  H    0.056486
   156  H    0.058009
   157  H    0.054666
   158  H    0.025131
 Sum of Mulliken charges =  -0.00000

 Dipole moment (field-independent basis, Debye):
    X=             -6.4533    Y=              1.7249    Z=              1.2519  Tot=              6.7961
 Quadrupole moment (field-independent basis, Debye-Ang):
   XX=           -700.3926   YY=           -496.3460   ZZ=           -486.7899
   XY=            -66.5307   XZ=            -27.9937   YZ=             45.9291

 Normal termination of Gaussian 16 at Mon Sep 20 03:26:19 2021.
