 Gaussian 16, Revision A.03,
 Gaussian 16:  ES64L-G16RevA.03 25-Dec-2016

 --------------------------------
 #p wB97XD/Def2SVP td=(nstates=5)
 --------------------------------

 --------------------------------
 TDDFT excited states in gaussian
 --------------------------------
 Symbolic Z-matrix:
 Charge =  0 Multiplicity = 1

                         Standard orientation:
 ---------------------------------------------------------------------
 Center     Atomic      Atomic             Coordinates (Angstroms)
 Number     Number       Type             X           Y           Z
 ---------------------------------------------------------------------
      1         12           0       20.253472    0.140477    0.536347
      2          6           0       17.605054   -1.668273   -1.238957
      3          6           0       20.484022    2.169598   -2.310660
      4          6           0       22.847840    1.572776    1.894786
      5          6           0       19.726532   -1.850787    3.278450
      6          7           0       19.329901    0.108749   -1.582524
      7          6           0       18.170538   -0.632828   -2.062985
      8          6           0       17.756238   -0.274401   -3.506280
      9          6           0       18.899435    0.850130   -3.836484
     10          6           0       19.659358    1.082071   -2.515770
     11          6           0       19.811405    0.475293   -4.988490
     12          6           0       16.266210    0.180752   -3.552917
     13          6           0       15.833733    0.833468   -4.831358
     14          1           0       14.507120    0.459555   -5.454220
     15          7           0       21.547576    1.669666   -0.110306
     16          6           0       21.484046    2.394142   -1.306000
     17          6           0       22.535431    3.409523   -1.322632
     18          6           0       23.259176    3.260521   -0.069267
     19          6           0       22.579257    2.131994    0.667782
     20          6           0       22.731152    4.486479   -2.451945
     21          6           0       24.456951    3.960308    0.464232
     22          8           0       24.955992    3.758544    1.563322
     23          6           0       25.063706    5.066442   -0.295167
     24          7           0       21.079621   -0.029161    2.311656
     25          6           0       22.227736    0.573527    2.626140
     26          6           0       22.719615    0.217039    4.048565
     27          6           0       21.505050   -0.497200    4.604202
     28          6           0       20.715105   -0.893545    3.297097
     29          6           0       23.974798   -0.647849    4.052554
     30          6           0       20.573031    0.131711    5.607315
     31          6           0       19.844671    1.357071    5.097893
     32          7           0       19.029940   -1.494899    0.944108
     33          6           0       18.868107   -2.143108    2.181884
     34          6           0       17.858476   -3.163789    2.045093
     35          6           0       17.338802   -2.910168    0.749649
     36          6           0       18.080351   -1.902672    0.103660
     37          6           0       17.331030   -4.106272    3.087241
     38          6           0       16.235951   -3.361411   -0.154348
     39          8           0       15.282326   -4.143854    0.045460
     40          6           0       16.424315   -2.583688   -1.454960
     41          6           0       16.552169   -3.553758   -2.631367
     42          8           0       17.441565   -4.418870   -2.885204
     43          8           0       15.564586   -3.234586   -3.515771
     44          6           0       15.559253   -4.006550   -4.779060
     45          1           0       20.415259    2.916704   -3.102878
     46          1           0       23.751134    1.993521    2.341319
     47          1           0       19.521430   -2.537591    4.102416
     48          1           0       17.803798   -1.214873   -4.055156
     49          1           0       18.409899    1.809820   -4.002290
     50          1           0       19.736276    1.248053   -5.754073
     51          1           0       19.429229   -0.463654   -5.387438
     52          1           0       20.815745    0.129493   -4.744858
     53          1           0       16.113243    0.766551   -2.645864
     54          1           0       15.633638   -0.694541   -3.404706
     55          1           0       16.474735    0.691523   -5.701150
     56          1           0       15.694278    1.900110   -4.657860
     57          1           0       22.574766    5.441999   -1.950484
     58          1           0       22.012034    4.397687   -3.266104
     59          1           0       23.754204    4.367158   -2.808862
     60          1           0       25.160808    4.867544   -1.362658
     61          1           0       26.053254    5.166296    0.149455
     62          1           0       24.319443    5.859811   -0.233401
     63          1           0       22.949931    1.157337    4.549586
     64          1           0       21.774884   -1.407400    5.140504
     65          1           0       24.630757   -0.299106    4.849338
     66          1           0       24.509629   -0.572210    3.106404
     67          1           0       23.729681   -1.665838    4.357532
     68          1           0       21.139033    0.311321    6.521776
     69          1           0       19.732313   -0.526804    5.824978
     70          1           0       19.865081    2.173585    5.818756
     71          1           0       18.781809    1.177859    4.934158
     72          1           0       20.252712    1.771748    4.176045
     73          1           0       16.244393   -4.034971    3.127684
     74          1           0       17.664269   -4.035412    4.122602
     75          1           0       17.600882   -5.112645    2.766412
     76          1           0       15.510538   -2.020728   -1.647319
     77          1           0       16.010988   -3.413815   -5.574215
     78          1           0       14.488833   -4.200092   -4.848798
     79          1           0       16.014480   -4.991496   -4.667715
     80         12           0      -19.886092   -0.533838   -0.302444
     81          6           0      -19.274038    2.862384   -0.445614
     82          6           0      -16.482653   -1.050355   -0.314257
     83          6           0      -20.462590   -3.837938    0.439028
     84          6           0      -23.272796    0.071636   -0.180679
     85          7           0      -18.103509    0.746960   -0.169868
     86          6           0      -18.125173    2.119871   -0.317280
     87          6           0      -16.718411    2.711690   -0.341409
     88          6           0      -15.856265    1.429502   -0.642778
     89          6           0      -16.849882    0.324657   -0.314705
     90          6           0      -15.163416    1.332168   -2.076903
     91          6           0      -16.285954    3.527059    0.918788
     92          6           0      -15.588326    4.842378    0.643440
     93          1           0      -14.117013    4.802121    1.026088
     94          7           0      -18.633726   -2.159774    0.023007
     95          6           0      -17.298114   -2.178792   -0.050936
     96          6           0      -16.791036   -3.528886    0.123242
     97          6           0      -17.836196   -4.408646    0.350450
     98          6           0      -19.055234   -3.491053    0.332870
     99          6           0      -15.224480   -3.865863    0.143728
    100          6           0      -17.745981   -5.964614    0.503137
    101          8           0      -16.604861   -6.507236    0.507372
    102          6           0      -18.950131   -6.805306    0.692558
    103          7           0      -21.663134   -1.731788    0.334449
    104          6           0      -21.660891   -3.043215    0.401777
    105          6           0      -23.052141   -3.637706    0.335169
    106          6           0      -24.047334   -2.432991    0.226400
    107          6           0      -22.966110   -1.264172    0.036969
    108          6           0      -23.325671   -4.888290   -0.560056
    109          6           0      -25.040269   -2.120337    1.383203
    110          6           0      -26.182132   -1.221423    0.956012
    111          7           0      -21.072478    1.158084   -0.299319
    112          6           0      -22.482474    1.260799   -0.331281
    113          6           0      -22.819055    2.647205   -0.507491
    114          6           0      -21.590277    3.345813   -0.595622
    115          6           0      -20.605039    2.378462   -0.418092
    116          6           0      -24.197837    3.213252   -0.813070
    117          6           0      -21.069634    4.606365   -0.793239
    118          8           0      -21.519329    5.717189   -0.870118
    119          6           0      -19.485397    4.389121   -0.557051
    120          6           0      -19.253795    4.898728    0.864642
    121          8           0      -19.484676    4.281187    1.886365
    122          8           0      -18.757528    6.187286    0.750166
    123          6           0      -18.565596    6.910032    2.003339
    124          1           0      -15.436947   -1.293013   -0.513619
    125          1           0      -20.573806   -4.901429    0.659142
    126          1           0      -24.307920    0.400056   -0.295081
    127          1           0      -16.647576    3.345717   -1.224729
    128          1           0      -15.149062    1.331311    0.181630
    129          1           0      -15.035507    0.255055   -2.183902
    130          1           0      -14.138776    1.703654   -2.105699
    131          1           0      -15.702776    1.772983   -2.915167
    132          1           0      -15.609139    2.844631    1.433304
    133          1           0      -17.026359    3.644053    1.709856
    134          1           0      -16.114831    5.611672    1.208773
    135          1           0      -15.616665    5.117482   -0.411077
    136          1           0      -14.562345   -3.004035    0.050396
    137          1           0      -14.974241   -4.569063   -0.651323
    138          1           0      -14.883597   -4.255802    1.101814
    139          1           0      -19.615265   -6.685582   -0.162058
    140          1           0      -19.389697   -6.661218    1.679622
    141          1           0      -18.588681   -7.819159    0.525182
    142          1           0      -23.438855   -4.034748    1.273964
    143          1           0      -24.515002   -2.365347   -0.756132
    144          1           0      -22.344463   -5.272690   -0.841960
    145          1           0      -24.006613   -4.696375   -1.390064
    146          1           0      -23.809766   -5.714383   -0.038969
    147          1           0      -24.436859   -1.712601    2.194107
    148          1           0      -25.367613   -3.101861    1.725917
    149          1           0      -27.051839   -1.489986    1.556186
    150          1           0      -26.475437   -1.304743   -0.091144
    151          1           0      -25.956172   -0.197007    1.252118
    152          1           0      -24.188843    4.262535   -1.108210
    153          1           0      -24.819707    3.057210    0.067470
    154          1           0      -24.679530    2.665481   -1.623100
    155          1           0      -18.898249    4.844101   -1.355360
    156          1           0      -19.533244    7.082139    2.474942
    157          1           0      -18.015080    7.838518    1.855767
    158          1           0      -18.010839    6.283537    2.701232
 ---------------------------------------------------------------------

 SCF Done:  E(RwB97XD) =  -4070.62097915     A.U. after   20 cycles

 Excitation energies and oscillator strengths:

 Excited State   1:      Singlet-A      1.6110 eV  769.63 nm  f=0.3985  <S**2>=0.000
     309 -> 316        0.17049
     312 -> 313        0.68653
     309 <- 316        0.11383
 This state for optimization and/or second-order correction.
 Total Energy, E(TD-HF/TD-DFT) =  -4070.56177739
 Copying the excited state density for this state as the 1-particle RhoCI density.

 Excited State   2:      Singlet-A      1.8716 eV  662.46 nm  f=0.3751  <S**2>=0.000
     310 -> 315        0.14190
     311 -> 314        0.68597

 Excited State   3:      Singlet-A      2.1162 eV  585.88 nm  f=0.1338  <S**2>=0.000
     309 -> 313        0.64978
     312 -> 316       -0.25752

 Excited State   4:      Singlet-A      2.2256 eV  557.09 nm  f=0.1259  <S**2>=0.000
     310 -> 314        0.64385
     311 -> 315       -0.24654
     311 -> 317        0.10797

 Excited State   5:      Singlet-A      3.2646 eV  379.78 nm  f=0.0056  <S**2>=0.000
     304 -> 313       -0.31857
     307 -> 313        0.60956

 The electronic state is 1-A.
 Alpha  occ. eigenvalues --  -46.95744 -46.94116 -19.30991 -19.29678 -19.25331
 Alpha  occ. eigenvalues --  -19.24721 -19.24616 -19.23863 -19.23499 -19.22641
 Alpha  occ. eigenvalues --  -14.47151 -14.46907 -14.46784 -14.46622 -14.45207
 Alpha  occ. eigenvalues --  -14.44624 -14.43436 -14.43001 -10.43831 -10.42880
 Alpha  occ. eigenvalues --  -10.41088 -10.38747 -10.38652 -10.37335 -10.37282
 Alpha  occ. eigenvalues --  -10.36518 -10.36022 -10.35821 -10.35653 -10.35584
 Alpha  occ. eigenvalues --  -10.35525 -10.35241 -10.35163 -10.34841 -10.34810
 Alpha  occ. eigenvalues --  -10.34754 -10.34605 -10.34340 -10.34072 -10.33761
 Alpha  occ. eigenvalues --  -10.33376 -10.33222 -10.33041 -10.33001 -10.32923
 Alpha  occ. eigenvalues --  -10.32888 -10.32631 -10.32609 -10.32602 -10.32482
 Alpha  occ. eigenvalues --  -10.32456 -10.32405 -10.32291 -10.32233 -10.32200
 Alpha  occ. eigenvalues --  -10.32109 -10.31624 -10.31572 -10.31558 -10.31427
 Alpha  occ. eigenvalues --  -10.31346 -10.31171 -10.31096 -10.31048 -10.31026
 Alpha  occ. eigenvalues --  -10.31017 -10.31000 -10.30935 -10.30815 -10.30799
 Alpha  occ. eigenvalues --  -10.30771 -10.30770 -10.30759 -10.30481 -10.30152
 Alpha  occ. eigenvalues --  -10.29872 -10.29805 -10.29800 -10.29744 -10.29623
 Alpha  occ. eigenvalues --  -10.29565 -10.29494 -10.29075 -10.28706 -10.28369
 Alpha  occ. eigenvalues --  -10.26983  -3.21639  -3.20271  -1.95207  -1.94764
 Alpha  occ. eigenvalues --   -1.94610  -1.93871  -1.93409  -1.93249  -1.18189
 Alpha  occ. eigenvalues --   -1.17543  -1.12660  -1.11924  -1.11428  -1.10021
 Alpha  occ. eigenvalues --   -1.10002  -1.07959  -1.07063  -1.06597  -1.05862
 Alpha  occ. eigenvalues --   -1.05271  -1.04815  -1.04531  -1.04365  -1.02622
 Alpha  occ. eigenvalues --   -0.94260  -0.93458  -0.91560  -0.91023  -0.90830
 Alpha  occ. eigenvalues --   -0.90569  -0.90343  -0.89941  -0.89273  -0.89005
 Alpha  occ. eigenvalues --   -0.88993  -0.88689  -0.87804  -0.87706  -0.86686
 Alpha  occ. eigenvalues --   -0.86396  -0.85938  -0.85534  -0.85117  -0.84870
 Alpha  occ. eigenvalues --   -0.84288  -0.83982  -0.83377  -0.82608  -0.82143
 Alpha  occ. eigenvalues --   -0.82052  -0.80537  -0.79580  -0.79196  -0.79090
 Alpha  occ. eigenvalues --   -0.78718  -0.78632  -0.77898  -0.77458  -0.77252
 Alpha  occ. eigenvalues --   -0.77080  -0.74745  -0.74344  -0.73928  -0.73668
 Alpha  occ. eigenvalues --   -0.72220  -0.71653  -0.71416  -0.71089  -0.69837
 Alpha  occ. eigenvalues --   -0.69637  -0.69359  -0.69177  -0.67538  -0.67386
 Alpha  occ. eigenvalues --   -0.67051  -0.66689  -0.66670  -0.66285  -0.66020
 Alpha  occ. eigenvalues --   -0.65815  -0.63924  -0.63659  -0.62258  -0.62022
 Alpha  occ. eigenvalues --   -0.61415  -0.61157  -0.61088  -0.61025  -0.60458
 Alpha  occ. eigenvalues --   -0.60302  -0.59751  -0.59682  -0.59399  -0.59314
 Alpha  occ. eigenvalues --   -0.58452  -0.58310  -0.57879  -0.57470  -0.57396
 Alpha  occ. eigenvalues --   -0.57228  -0.56958  -0.56726  -0.56242  -0.56076
 Alpha  occ. eigenvalues --   -0.55902  -0.55653  -0.55442  -0.55263  -0.55100
 Alpha  occ. eigenvalues --   -0.55050  -0.54713  -0.54686  -0.54407  -0.54101
 Alpha  occ. eigenvalues --   -0.53937  -0.53487  -0.53089  -0.52962  -0.52808
 Alpha  occ. eigenvalues --   -0.52714  -0.52658  -0.52484  -0.52306  -0.52120
 Alpha  occ. eigenvalues --   -0.52109  -0.51949  -0.51731  -0.51706  -0.51535
 Alpha  occ. eigenvalues --   -0.51394  -0.50971  -0.50758  -0.50733  -0.50601
 Alpha  occ. eigenvalues --   -0.50550  -0.50431  -0.50390  -0.50115  -0.50042
 Alpha  occ. eigenvalues --   -0.49673  -0.49550  -0.49509  -0.49269  -0.49154
 Alpha  occ. eigenvalues --   -0.48935  -0.48706  -0.48490  -0.48445  -0.48107
 Alpha  occ. eigenvalues --   -0.48099  -0.48025  -0.47941  -0.47907  -0.47596
 Alpha  occ. eigenvalues --   -0.47392  -0.47116  -0.47098  -0.46951  -0.46834
 Alpha  occ. eigenvalues --   -0.46786  -0.46589  -0.46483  -0.46278  -0.46244
 Alpha  occ. eigenvalues --   -0.46117  -0.45865  -0.45838  -0.45495  -0.45391
 Alpha  occ. eigenvalues --   -0.45300  -0.45166  -0.45071  -0.44755  -0.44608
 Alpha  occ. eigenvalues --   -0.44473  -0.44442  -0.44434  -0.44134  -0.44076
 Alpha  occ. eigenvalues --   -0.43966  -0.43855  -0.43732  -0.43490  -0.43239
 Alpha  occ. eigenvalues --   -0.42834  -0.42636  -0.42407  -0.42322  -0.42068
 Alpha  occ. eigenvalues --   -0.41888  -0.41753  -0.41216  -0.41163  -0.41006
 Alpha  occ. eigenvalues --   -0.40872  -0.40804  -0.39989  -0.39320  -0.39262
 Alpha  occ. eigenvalues --   -0.39150  -0.38801  -0.38585  -0.38486  -0.38306
 Alpha  occ. eigenvalues --   -0.38119  -0.37264  -0.36373  -0.36312  -0.36132
 Alpha  occ. eigenvalues --   -0.36071  -0.35322  -0.35308  -0.34461  -0.34113
 Alpha  occ. eigenvalues --   -0.33735  -0.33267  -0.33053  -0.32597  -0.32302
 Alpha  occ. eigenvalues --   -0.31590  -0.31301  -0.31145  -0.26190  -0.26038
 Alpha  occ. eigenvalues --   -0.23338  -0.23291
 Alpha virt. eigenvalues --   -0.07660  -0.06723   0.00165   0.00247   0.02195
 Alpha virt. eigenvalues --    0.02363   0.04108   0.04290   0.04944   0.06246
 Alpha virt. eigenvalues --    0.06675   0.07633   0.07685   0.08197   0.08600

 Mulliken charges:
               1
     1  Mg   0.975121
     2  C   -0.025842
     3  C   -0.091740
     4  C   -0.091561
     5  C   -0.077703
     6  N   -0.366190
     7  C   -0.005873
     8  C   -0.064696
     9  C   -0.111848
    10  C    0.088994
    11  C    0.051917
    12  C   -0.006033
    13  C   -0.128093
    14  H    0.029104
    15  N   -0.467538
    16  C    0.163146
    17  C   -0.170421
    18  C   -0.057375
    19  C    0.152557
    20  C    0.067264
    21  C    0.021995
    22  O   -0.243484
    23  C    0.001947
    24  N   -0.422553
    25  C    0.103942
    26  C   -0.088146
    27  C   -0.066093
    28  C    0.109885
    29  C    0.042967
    30  C    0.010199
    31  C   -0.067735
    32  N   -0.449648
    33  C    0.078769
    34  C   -0.151432
    35  C   -0.101696
    36  C    0.167248
    37  C    0.064799
    38  C    0.158594
    39  O   -0.236426
    40  C   -0.063468
    41  C    0.279021
    42  O   -0.286791
    43  O   -0.366306
    44  C    0.125347
    45  H   -0.007305
    46  H    0.021604
    47  H    0.001317
    48  H    0.052027
    49  H    0.035095
    50  H    0.045584
    51  H    0.021879
    52  H    0.048113
    53  H    0.034838
    54  H    0.058172
    55  H    0.052521
    56  H    0.055235
    57  H    0.061416
    58  H    0.044204
    59  H    0.067032
    60  H    0.027167
    61  H    0.066576
    62  H    0.059745
    63  H    0.041434
    64  H    0.013871
    65  H    0.035662
    66  H    0.048284
    67  H    0.036550
    68  H    0.035172
    69  H    0.029068
    70  H    0.029069
    71  H    0.034932
    72  H    0.040785
    73  H    0.061478
    74  H    0.026476
    75  H    0.055493
    76  H    0.079544
    77  H    0.065867
    78  H    0.060809
    79  H    0.076161
    80  Mg   0.966649
    81  C   -0.041444
    82  C   -0.128746
    83  C   -0.109098
    84  C   -0.042206
    85  N   -0.333047
    86  C   -0.011566
    87  C   -0.074696
    88  C   -0.076012
    89  C    0.063544
    90  C    0.034888
    91  C    0.028372
    92  C   -0.107190
    93  H    0.024762
    94  N   -0.466001
    95  C    0.186009
    96  C   -0.152953
    97  C   -0.065426
    98  C    0.142280
    99  C    0.072138
   100  C    0.052330
   101  O   -0.253893
   102  C    0.003677
   103  N   -0.331041
   104  C    0.128609
   105  C   -0.083485
   106  C   -0.090928
   107  C    0.027350
   108  C    0.020535
   109  C    0.009833
   110  C   -0.034518
   111  N   -0.438453
   112  C    0.046288
   113  C   -0.148228
   114  C    0.002716
   115  C    0.157738
   116  C    0.059528
   117  C    0.057905
   118  O   -0.195201
   119  C   -0.117725
   120  C    0.296882
   121  O   -0.238833
   122  O   -0.364144
   123  C    0.141259
   124  H   -0.003503
   125  H   -0.019467
   126  H   -0.016890
   127  H    0.023264
   128  H    0.032806
   129  H    0.025067
   130  H    0.044685
   131  H    0.053851
   132  H    0.020272
   133  H    0.052776
   134  H    0.048251
   135  H    0.048658
   136  H    0.019599
   137  H    0.064719
   138  H    0.059561
   139  H    0.061848
   140  H    0.091273
   141  H    0.055099
   142  H    0.038400
   143  H    0.031564
   144  H    0.030257
   145  H    0.041585
   146  H    0.029161
   147  H    0.042116
   148  H    0.025815
   149  H    0.032443
   150  H    0.043058
   151  H    0.051684
   152  H    0.058539
   153  H    0.038062
   154  H    0.040737
   155  H    0.054797
   156  H    0.058146
   157  H    0.060920
   158  H    0.042389
 Sum of Mulliken charges =  -0.00000

 Dipole moment (field-independent basis, Debye):
    X=              0.7318    Y=              0.5506    Z=             -3.3583  Tot=              3.4810
 Quadrupole moment (field-independent basis, Debye-Ang):
   XX=           -444.4040   YY=           -538.5351   ZZ=           -470.2901
   XY=            207.5585   XZ=            -27.2246   YZ=             -9.7831

 Normal termination of Gaussian 16 at Sun Sep 19 01:34:35 2021.
