 Gaussian 16, Revision A.03,
 Gaussian 16:  ES64L-G16RevA.03 25-Dec-2016

 --------------------------------
 #p wB97XD/Def2SVP td=(nstates=5)
 --------------------------------

 --------------------------------
 TDDFT excited states in gaussian
 --------------------------------
 Symbolic Z-matrix:
 Charge =  0 Multiplicity = 1

                         Standard orientation:
 ---------------------------------------------------------------------
 Center     Atomic      Atomic             Coordinates (Angstroms)
 Number     Number       Type             X           Y           Z
 ---------------------------------------------------------------------
      1         12           0       -9.548173   -0.805353    0.621438
      2          6           0       -9.650140    2.528473   -0.245301
      3          6           0       -7.577607    0.084096    3.273380
      4          6           0       -9.201332   -4.092630    1.312760
      5          6           0      -11.049072   -1.640541   -2.401622
      6          7           0       -8.619205    1.156098    1.292741
      7          6           0       -8.947053    2.337593    0.934849
      8          6           0       -8.326060    3.552456    1.799057
      9          6           0       -7.407818    2.693060    2.755029
     10          6           0       -7.806999    1.184115    2.394462
     11          6           0       -5.817458    2.855778    2.507309
     12          6           0       -9.385404    4.457697    2.564979
     13          6           0       -9.033693    5.972795    2.778037
     14          1           0       -7.625285    6.384909    2.472793
     15          7           0       -8.626053   -1.837229    2.086233
     16          6           0       -7.887725   -1.286360    3.206317
     17          6           0       -7.486283   -2.402902    4.055707
     18          6           0       -7.851370   -3.627797    3.443501
     19          6           0       -8.629629   -3.221496    2.251506
     20          6           0       -6.824650   -2.067190    5.343645
     21          6           0       -7.658127   -5.092536    3.901170
     22          8           0       -7.918220   -6.065017    3.257082
     23          6           0       -6.904639   -5.261464    5.236007
     24          7           0       -9.939729   -2.670313   -0.412969
     25          6           0       -9.723608   -3.864746    0.039684
     26          6           0       -9.960773   -4.946231   -1.052277
     27          6           0      -10.657373   -4.170548   -2.195908
     28          6           0      -10.577204   -2.722067   -1.659030
     29          6           0       -8.633687   -5.617033   -1.466235
     30          6           0      -12.097031   -4.696170   -2.484487
     31          6           0      -12.161221   -6.072560   -3.166108
     32          7           0      -10.237780    0.211113   -1.036247
     33          6           0      -10.916981   -0.271749   -2.140680
     34          6           0      -11.301381    0.876037   -2.919299
     35          6           0      -10.806813    2.046705   -2.270107
     36          6           0      -10.197755    1.520926   -1.098186
     37          6           0      -11.991701    0.825477   -4.155565
     38          6           0      -10.737759    3.472941   -2.239974
     39          8           0      -11.122883    4.298910   -3.120334
     40          6           0       -9.871181    3.815737   -0.966646
     41          6           0       -8.697569    4.529289   -1.423005
     42          8           0       -7.689149    3.990325   -1.878370
     43          8           0       -9.000464    5.866734   -1.391096
     44          6           0       -7.992152    6.705847   -2.072504
     45          1           0       -6.926389    0.334341    4.112922
     46          1           0       -9.070367   -5.134791    1.613694
     47          1           0      -11.580130   -1.952412   -3.303892
     48          1           0       -7.713126    4.089340    1.074613
     49          1           0       -7.590556    2.965928    3.794190
     50          1           0       -5.673762    3.259523    1.504688
     51          1           0       -5.332445    1.883037    2.587297
     52          1           0       -5.282724    3.501423    3.204710
     53          1           0       -9.452752    3.992232    3.547934
     54          1           0      -10.430130    4.325237    2.281632
     55          1           0       -9.239276    6.334232    3.785536
     56          1           0       -9.616495    6.572568    2.078895
     57          1           0       -5.754437   -1.917362    5.198326
     58          1           0       -7.098827   -2.744083    6.152930
     59          1           0       -7.248932   -1.120053    5.675990
     60          1           0       -7.489059   -5.013673    6.122645
     61          1           0       -6.058558   -4.591066    5.088378
     62          1           0       -6.462612   -6.241821    5.411296
     63          1           0      -10.655555   -5.625808   -0.559343
     64          1           0      -10.039646   -4.211131   -3.093022
     65          1           0       -7.732511   -5.026433   -1.299946
     66          1           0       -8.488905   -5.859902   -2.519449
     67          1           0       -8.580260   -6.532502   -0.877100
     68          1           0      -12.590307   -4.006529   -3.168050
     69          1           0      -12.672266   -4.721440   -1.558359
     70          1           0      -11.143274   -6.457931   -3.224360
     71          1           0      -12.381452   -5.929782   -4.224144
     72          1           0      -12.873246   -6.811274   -2.798898
     73          1           0      -12.782719    0.092872   -3.994849
     74          1           0      -11.418723    0.479097   -5.015537
     75          1           0      -12.299755    1.837396   -4.420682
     76          1           0      -10.513329    4.503348   -0.415620
     77          1           0       -8.047631    6.444061   -3.129521
     78          1           0       -7.011615    6.625439   -1.604440
     79          1           0       -8.310233    7.742899   -1.964378
     80         12           0        9.436681   -0.649104   -0.238891
     81          6           0        7.602791    2.327356   -0.136568
     82          6           0       11.982522    1.095939    1.345885
     83          6           0       11.303921   -3.269129   -0.708096
     84          6           0        6.770541   -2.117132   -2.050042
     85          7           0        9.913938    1.625640    0.171749
     86          6           0        8.959377    2.556236    0.272863
     87          6           0        9.574751    3.774767    0.875481
     88          6           0       11.093103    3.475629    0.927375
     89          6           0       11.027271    1.963628    0.841791
     90          6           0       12.028799    4.100117   -0.109181
     91          6           0        8.994434    4.081664    2.292487
     92          6           0        8.507180    5.531363    2.614258
     93          1           0        9.189244    6.739497    1.899693
     94          7           0       11.371274   -1.093597    0.396352
     95          6           0       12.154394   -0.275229    1.199570
     96          6           0       13.330002   -1.020242    1.513387
     97          6           0       13.231415   -2.287075    0.809853
     98          6           0       11.944885   -2.291214    0.129626
     99          6           0       14.519804   -0.477587    2.334967
    100          6           0       14.267181   -3.441409    0.686461
    101          8           0       14.092612   -4.439797    0.062635
    102          6           0       15.546887   -3.272517    1.481580
    103          7           0        9.048792   -2.415816   -1.227319
    104          6           0       10.031052   -3.337935   -1.337969
    105          6           0        9.613943   -4.612410   -2.122385
    106          6           0        8.062495   -4.322574   -2.306572
    107          6           0        7.907211   -2.886587   -1.820084
    108          6           0       10.487017   -4.754473   -3.498682
    109          6           0        7.140130   -5.396230   -1.648307
    110          6           0        6.562061   -5.091649   -0.277901
    111          7           0        7.511629   -0.092573   -0.954351
    112          6           0        6.530540   -0.812426   -1.581114
    113          6           0        5.336512    0.085290   -1.764763
    114          6           0        5.735436    1.319505   -1.203706
    115          6           0        7.090342    1.200290   -0.748705
    116          6           0        4.080995   -0.198655   -2.543768
    117          6           0        5.315226    2.691015   -0.927218
    118          8           0        4.234629    3.223042   -1.197088
    119          6           0        6.438823    3.306587   -0.098572
    120          6           0        6.759239    4.617215   -0.758313
    121          8           0        7.420392    4.749203   -1.771953
    122          8           0        6.028782    5.524255   -0.130824
    123          6           0        5.804893    6.802194   -0.788302
    124          1           0       12.834418    1.672281    1.711428
    125          1           0       11.842689   -4.218568   -0.719292
    126          1           0        5.942954   -2.576041   -2.595550
    127          1           0        9.353443    4.628059    0.235160
    128          1           0       11.443692    3.873070    1.879950
    129          1           0       11.570960    4.780164   -0.827747
    130          1           0       12.541055    3.319861   -0.672810
    131          1           0       12.776292    4.654689    0.457665
    132          1           0        9.634178    3.743237    3.107263
    133          1           0        8.141474    3.403329    2.277283
    134          1           0        8.682031    5.622542    3.687015
    135          1           0        7.437367    5.589362    2.415296
    136          1           0       15.477830   -0.580293    1.825227
    137          1           0       14.692289   -1.054161    3.243897
    138          1           0       14.413381    0.560416    2.652888
    139          1           0       15.365272   -3.029408    2.528692
    140          1           0       16.159738   -2.526260    0.975844
    141          1           0       16.175468   -4.157125    1.379498
    142          1           0        9.769080   -5.526047   -1.548801
    143          1           0        7.740612   -4.367418   -3.346899
    144          1           0        9.776389   -4.523255   -4.292298
    145          1           0       10.783867   -5.779666   -3.721061
    146          1           0       11.286156   -4.018868   -3.596860
    147          1           0        7.811572   -6.234978   -1.464015
    148          1           0        6.347879   -5.733000   -2.316594
    149          1           0        7.401965   -4.665453    0.272102
    150          1           0        6.275477   -6.088691    0.055760
    151          1           0        5.777133   -4.345772   -0.155432
    152          1           0        4.015695   -1.127358   -3.110725
    153          1           0        3.924512    0.597555   -3.271687
    154          1           0        3.272144   -0.095836   -1.821068
    155          1           0        6.146330    3.627332    0.901458
    156          1           0        6.150247    6.959265   -1.809642
    157          1           0        6.403765    7.485191   -0.185050
    158          1           0        4.847387    7.195472   -0.446586
 ---------------------------------------------------------------------

 SCF Done:  E(RwB97XD) =  -4070.62115812     A.U. after   19 cycles

 Excitation energies and oscillator strengths:

 Excited State   1:      Singlet-A      1.6776 eV  739.04 nm  f=0.4129  <S**2>=0.000
     309 -> 316       -0.19177
     312 -> 313        0.68154
     309 <- 316       -0.11858
 This state for optimization and/or second-order correction.
 Total Energy, E(TD-HF/TD-DFT) =  -4070.55950591
 Copying the excited state density for this state as the 1-particle RhoCI density.

 Excited State   2:      Singlet-A      1.7218 eV  720.08 nm  f=0.3669  <S**2>=0.000
     310 -> 315       -0.20370
     311 -> 314        0.67752
     310 <- 315       -0.11867

 Excited State   3:      Singlet-A      2.1595 eV  574.14 nm  f=0.0069  <S**2>=0.000
     309 -> 313        0.52843
     310 -> 314        0.36257
     311 -> 315        0.15922
     312 -> 316        0.23482

 Excited State   4:      Singlet-A      2.1619 eV  573.49 nm  f=0.1933  <S**2>=0.000
     309 -> 313       -0.36116
     310 -> 314        0.52849
     311 -> 315        0.23446
     312 -> 316       -0.16194

 Excited State   5:      Singlet-A      3.6201 eV  342.48 nm  f=0.0000  <S**2>=0.000
     311 -> 313        0.70667

 The electronic state is 1-A.
 Alpha  occ. eigenvalues --  -46.95120 -46.94695 -19.31505 -19.29930 -19.25173
 Alpha  occ. eigenvalues --  -19.24630 -19.24535 -19.24156 -19.23558 -19.23234
 Alpha  occ. eigenvalues --  -14.46741 -14.46351 -14.46182 -14.46063 -14.44293
 Alpha  occ. eigenvalues --  -14.43944 -14.43453 -14.43291 -10.43033 -10.42303
 Alpha  occ. eigenvalues --  -10.40240 -10.39545 -10.38725 -10.38386 -10.35878
 Alpha  occ. eigenvalues --  -10.35818 -10.35321 -10.35129 -10.34902 -10.34773
 Alpha  occ. eigenvalues --  -10.34763 -10.34744 -10.34720 -10.34423 -10.34396
 Alpha  occ. eigenvalues --  -10.34256 -10.33692 -10.33614 -10.33584 -10.33524
 Alpha  occ. eigenvalues --  -10.33506 -10.33344 -10.33096 -10.32996 -10.32942
 Alpha  occ. eigenvalues --  -10.32905 -10.32838 -10.32425 -10.32396 -10.32380
 Alpha  occ. eigenvalues --  -10.32202 -10.32124 -10.32085 -10.31798 -10.31678
 Alpha  occ. eigenvalues --  -10.31609 -10.31608 -10.31550 -10.31194 -10.31135
 Alpha  occ. eigenvalues --  -10.31115 -10.31101 -10.31088 -10.31043 -10.30984
 Alpha  occ. eigenvalues --  -10.30706 -10.30624 -10.30620 -10.30598 -10.30453
 Alpha  occ. eigenvalues --  -10.30375 -10.30329 -10.30258 -10.30144 -10.29939
 Alpha  occ. eigenvalues --  -10.29934 -10.29931 -10.29787 -10.29497 -10.29332
 Alpha  occ. eigenvalues --  -10.29210 -10.29172 -10.29037 -10.28890 -10.28422
 Alpha  occ. eigenvalues --  -10.28411  -3.21027  -3.20739  -1.94622  -1.94323
 Alpha  occ. eigenvalues --   -1.94184  -1.93956  -1.93869  -1.93712  -1.20561
 Alpha  occ. eigenvalues --   -1.17594  -1.14734  -1.13513  -1.11905  -1.10889
 Alpha  occ. eigenvalues --   -1.09321  -1.08886  -1.07341  -1.07021  -1.06258
 Alpha  occ. eigenvalues --   -1.05771  -1.05423  -1.04668  -1.03849  -1.02896
 Alpha  occ. eigenvalues --   -0.95399  -0.94436  -0.91155  -0.90582  -0.90492
 Alpha  occ. eigenvalues --   -0.90230  -0.89927  -0.89665  -0.89337  -0.89019
 Alpha  occ. eigenvalues --   -0.88845  -0.88750  -0.88214  -0.87426  -0.86377
 Alpha  occ. eigenvalues --   -0.85796  -0.85616  -0.85306  -0.84498  -0.84176
 Alpha  occ. eigenvalues --   -0.83599  -0.83346  -0.82934  -0.82697  -0.82191
 Alpha  occ. eigenvalues --   -0.81954  -0.80492  -0.79866  -0.79301  -0.79255
 Alpha  occ. eigenvalues --   -0.78909  -0.78226  -0.78221  -0.77595  -0.77025
 Alpha  occ. eigenvalues --   -0.76720  -0.74679  -0.74142  -0.73685  -0.73391
 Alpha  occ. eigenvalues --   -0.71453  -0.71276  -0.70882  -0.70679  -0.70106
 Alpha  occ. eigenvalues --   -0.70008  -0.68960  -0.68062  -0.67687  -0.67269
 Alpha  occ. eigenvalues --   -0.67244  -0.66896  -0.66718  -0.66623  -0.66331
 Alpha  occ. eigenvalues --   -0.66025  -0.64807  -0.63470  -0.62004  -0.61827
 Alpha  occ. eigenvalues --   -0.61648  -0.61316  -0.61173  -0.61030  -0.60473
 Alpha  occ. eigenvalues --   -0.60211  -0.60099  -0.59799  -0.59572  -0.59296
 Alpha  occ. eigenvalues --   -0.58829  -0.57990  -0.57945  -0.57525  -0.57116
 Alpha  occ. eigenvalues --   -0.56910  -0.56737  -0.56639  -0.56392  -0.55844
 Alpha  occ. eigenvalues --   -0.55582  -0.55261  -0.55210  -0.55081  -0.54847
 Alpha  occ. eigenvalues --   -0.54842  -0.54634  -0.54442  -0.53957  -0.53893
 Alpha  occ. eigenvalues --   -0.53760  -0.53599  -0.53328  -0.53197  -0.53142
 Alpha  occ. eigenvalues --   -0.53033  -0.52984  -0.52801  -0.52602  -0.52324
 Alpha  occ. eigenvalues --   -0.52117  -0.51610  -0.51313  -0.51272  -0.51095
 Alpha  occ. eigenvalues --   -0.51006  -0.50790  -0.50755  -0.50624  -0.50441
 Alpha  occ. eigenvalues --   -0.50335  -0.50306  -0.50074  -0.50012  -0.49885
 Alpha  occ. eigenvalues --   -0.49700  -0.49638  -0.49238  -0.48924  -0.48806
 Alpha  occ. eigenvalues --   -0.48518  -0.48321  -0.48316  -0.48105  -0.47924
 Alpha  occ. eigenvalues --   -0.47916  -0.47825  -0.47784  -0.47583  -0.47533
 Alpha  occ. eigenvalues --   -0.47489  -0.47306  -0.47023  -0.46944  -0.46738
 Alpha  occ. eigenvalues --   -0.46715  -0.46421  -0.46276  -0.46159  -0.46019
 Alpha  occ. eigenvalues --   -0.45701  -0.45698  -0.45422  -0.45316  -0.45164
 Alpha  occ. eigenvalues --   -0.45126  -0.45026  -0.44897  -0.44833  -0.44630
 Alpha  occ. eigenvalues --   -0.44627  -0.44512  -0.44150  -0.44105  -0.43710
 Alpha  occ. eigenvalues --   -0.43601  -0.43562  -0.43547  -0.43319  -0.43102
 Alpha  occ. eigenvalues --   -0.43044  -0.42941  -0.42593  -0.42483  -0.42164
 Alpha  occ. eigenvalues --   -0.42058  -0.41650  -0.41544  -0.41227  -0.41187
 Alpha  occ. eigenvalues --   -0.40279  -0.40089  -0.39844  -0.39481  -0.39192
 Alpha  occ. eigenvalues --   -0.39016  -0.39002  -0.38786  -0.38475  -0.38424
 Alpha  occ. eigenvalues --   -0.38185  -0.38140  -0.36407  -0.36241  -0.36081
 Alpha  occ. eigenvalues --   -0.35807  -0.35556  -0.35334  -0.33781  -0.33433
 Alpha  occ. eigenvalues --   -0.33307  -0.32994  -0.32392  -0.32273  -0.32217
 Alpha  occ. eigenvalues --   -0.32139  -0.31254  -0.31068  -0.25713  -0.25546
 Alpha  occ. eigenvalues --   -0.23006  -0.22873
 Alpha virt. eigenvalues --   -0.06822  -0.06718   0.00271   0.00402   0.02073
 Alpha virt. eigenvalues --    0.02227   0.04247   0.04992   0.05747   0.05881
 Alpha virt. eigenvalues --    0.07677   0.07720   0.07871   0.08199   0.08345

 Mulliken charges:
               1
     1  Mg   0.972890
     2  C    0.036662
     3  C   -0.076432
     4  C   -0.083697
     5  C   -0.099887
     6  N   -0.274806
     7  C   -0.097146
     8  C   -0.014251
     9  C   -0.137820
    10  C    0.066203
    11  C    0.000625
    12  C    0.023624
    13  C   -0.131793
    14  H    0.035550
    15  N   -0.532119
    16  C    0.160459
    17  C   -0.146744
    18  C   -0.100172
    19  C    0.147864
    20  C    0.050288
    21  C    0.084656
    22  O   -0.192710
    23  C   -0.045264
    24  N   -0.332368
    25  C    0.040016
    26  C   -0.054419
    27  C   -0.067564
    28  C    0.054755
    29  C    0.016623
    30  C   -0.022524
    31  C   -0.039098
    32  N   -0.427709
    33  C    0.163637
    34  C   -0.180274
    35  C    0.016212
    36  C    0.116838
    37  C    0.057404
    38  C    0.086152
    39  O   -0.253799
    40  C   -0.075456
    41  C    0.267885
    42  O   -0.261661
    43  O   -0.367044
    44  C    0.144916
    45  H   -0.003018
    46  H    0.012559
    47  H   -0.006330
    48  H    0.049489
    49  H    0.040085
    50  H    0.048810
    51  H    0.038441
    52  H    0.039934
    53  H    0.016167
    54  H    0.039410
    55  H    0.057469
    56  H    0.064675
    57  H    0.067875
    58  H    0.043655
    59  H    0.042643
    60  H    0.070861
    61  H    0.053255
    62  H    0.049460
    63  H    0.038135
    64  H    0.035294
    65  H    0.043587
    66  H    0.033896
    67  H    0.050388
    68  H    0.028788
    69  H    0.032063
    70  H    0.024383
    71  H    0.026100
    72  H    0.050490
    73  H    0.038173
    74  H    0.050071
    75  H    0.057927
    76  H    0.063281
    77  H    0.068174
    78  H    0.056493
    79  H    0.048817
    80  Mg   0.943231
    81  C   -0.010097
    82  C   -0.053686
    83  C   -0.049905
    84  C   -0.089472
    85  N   -0.281366
    86  C    0.032788
    87  C   -0.102403
    88  C   -0.079021
    89  C   -0.023169
    90  C    0.044050
    91  C   -0.008003
    92  C   -0.108824
    93  H    0.034859
    94  N   -0.486375
    95  C    0.194033
    96  C   -0.162237
    97  C   -0.110933
    98  C    0.127582
    99  C    0.066995
   100  C    0.057663
   101  O   -0.197966
   102  C   -0.025355
   103  N   -0.388291
   104  C    0.068159
   105  C   -0.106296
   106  C   -0.052080
   107  C    0.081470
   108  C    0.014949
   109  C   -0.034356
   110  C   -0.035147
   111  N   -0.431038
   112  C    0.126560
   113  C   -0.181563
   114  C   -0.031421
   115  C    0.144827
   116  C    0.072019
   117  C    0.142790
   118  O   -0.213449
   119  C   -0.092628
   120  C    0.223646
   121  O   -0.247639
   122  O   -0.327220
   123  C    0.146787
   124  H   -0.006324
   125  H    0.024675
   126  H   -0.006241
   127  H    0.040557
   128  H    0.020835
   129  H    0.047025
   130  H    0.041568
   131  H    0.029876
   132  H    0.038326
   133  H    0.025435
   134  H    0.052750
   135  H    0.060428
   136  H    0.037113
   137  H    0.040457
   138  H    0.034101
   139  H    0.057398
   140  H    0.052251
   141  H    0.039912
   142  H    0.049938
   143  H    0.031631
   144  H    0.019255
   145  H    0.045885
   146  H    0.058992
   147  H    0.022731
   148  H    0.029859
   149  H    0.029916
   150  H    0.044240
   151  H    0.041649
   152  H    0.038688
   153  H    0.062449
   154  H    0.059630
   155  H    0.073000
   156  H    0.085732
   157  H    0.026723
   158  H    0.057068
 Sum of Mulliken charges =  -0.00000

 Dipole moment (field-independent basis, Debye):
    X=              0.9004    Y=              0.0199    Z=              7.1295  Tot=              7.1862
 Quadrupole moment (field-independent basis, Debye-Ang):
   XX=           -519.8167   YY=           -493.5562   ZZ=           -485.1627
   XY=             53.6086   XZ=             -4.7824   YZ=             41.5303

 Normal termination of Gaussian 16 at Mon Sep 20 11:30:56 2021.
