 Gaussian 16, Revision A.03,
 Gaussian 16:  ES64L-G16RevA.03 25-Dec-2016

 --------------------------------
 #p wB97XD/Def2SVP td=(nstates=5)
 --------------------------------

 --------------------------------
 TDDFT excited states in gaussian
 --------------------------------
 Symbolic Z-matrix:
 Charge =  0 Multiplicity = 1

                         Standard orientation:
 ---------------------------------------------------------------------
 Center     Atomic      Atomic             Coordinates (Angstroms)
 Number     Number       Type             X           Y           Z
 ---------------------------------------------------------------------
      1         12           0       11.576571    0.026155    0.626147
      2          6           0        8.355678   -1.095769   -0.419235
      3          6           0       12.806614   -2.469813   -1.181927
      4          6           0       14.595433    1.543759    0.695788
      5          6           0        9.929915    3.035087    1.593124
      6          7           0       10.711010   -1.603703   -0.507878
      7          6           0        9.363564   -1.948534   -0.749737
      8          6           0        9.206068   -3.240812   -1.611460
      9          6           0       10.690195   -3.672637   -1.781451
     10          6           0       11.471737   -2.568758   -1.038077
     11          6           0       10.818826   -5.105306   -1.237731
     12          6           0        8.454352   -3.110497   -3.006014
     13          6           0        7.123796   -3.842276   -3.138839
     14          1           0        6.979762   -4.849126   -4.298312
     15          7           0       13.433204   -0.411437   -0.027782
     16          6           0       13.738801   -1.536463   -0.793413
     17          6           0       15.129149   -1.642853   -0.981195
     18          6           0       15.731841   -0.582721   -0.329516
     19          6           0       14.639487    0.247639    0.135924
     20          6           0       15.939300   -2.757824   -1.741049
     21          6           0       17.230629   -0.415569   -0.240138
     22          8           0       18.021310   -1.229860   -0.614184
     23          6           0       17.733782    0.897730    0.538173
     24          7           0       12.189445    2.024881    1.007722
     25          6           0       13.512700    2.372815    1.007798
     26          6           0       13.577882    3.937838    1.239657
     27          6           0       12.168886    4.401833    1.644947
     28          6           0       11.350242    3.079536    1.388140
     29          6           0       14.702698    4.400570    2.121504
     30          6           0       11.693951    5.483509    0.682729
     31          6           0       10.621059    6.420069    1.171337
     32          7           0        9.527766    0.747352    0.837021
     33          6           0        9.040469    1.959946    1.262898
     34          6           0        7.622811    1.943257    1.271581
     35          6           0        7.229491    0.719847    0.679312
     36          6           0        8.460987    0.096665    0.330828
     37          6           0        6.712108    3.041261    1.650738
     38          6           0        6.152094   -0.163676    0.213466
     39          8           0        4.928257   -0.019300    0.335528
     40          6           0        6.820084   -1.400396   -0.501351
     41          6           0        6.603716   -2.578874    0.294916
     42          8           0        7.248021   -2.773607    1.352708
     43          8           0        5.619829   -3.286243   -0.294518
     44          6           0        5.324122   -4.654286    0.212469
     45          1           0       13.246023   -3.302125   -1.736297
     46          1           0       15.596094    1.975780    0.764498
     47          1           0        9.367645    3.882681    1.989656
     48          1           0        8.675979   -4.001680   -1.038669
     49          1           0       11.033711   -3.652800   -2.815270
     50          1           0       11.883461   -5.335489   -1.208856
     51          1           0       10.322277   -5.882114   -1.819048
     52          1           0       10.422774   -5.202595   -0.226276
     53          1           0        9.103423   -3.643797   -3.700597
     54          1           0        8.368254   -2.061137   -3.288233
     55          1           0        6.344326   -3.083463   -3.215682
     56          1           0        6.948539   -4.430996   -2.237707
     57          1           0       16.564111   -2.226716   -2.459418
     58          1           0       15.284074   -3.447815   -2.272512
     59          1           0       16.504536   -3.446627   -1.113280
     60          1           0       18.816437    0.797981    0.609702
     61          1           0       17.203807    0.834372    1.488846
     62          1           0       17.377002    1.694284   -0.114681
     63          1           0       13.806107    4.324301    0.245723
     64          1           0       12.047181    4.776748    2.661132
     65          1           0       14.387076    5.312797    2.627055
     66          1           0       15.549019    4.575033    1.456823
     67          1           0       15.075482    3.644386    2.811401
     68          1           0       11.355287    5.086170   -0.274543
     69          1           0       12.513428    6.111691    0.333580
     70          1           0       10.440032    6.336436    2.242787
     71          1           0        9.700796    6.175839    0.640316
     72          1           0       10.813590    7.437853    0.832140
     73          1           0        7.162951    3.700989    2.392766
     74          1           0        5.826554    2.555262    2.060969
     75          1           0        6.544514    3.606548    0.733683
     76          1           0        6.552511   -1.520722   -1.551137
     77          1           0        4.247309   -4.690003    0.040927
     78          1           0        5.615993   -4.816144    1.249700
     79          1           0        5.681983   -5.421308   -0.475172
     80         12           0      -10.661566    0.811951    0.097972
     81          6           0      -11.512235   -2.593040    0.422758
     82          6           0       -7.501196   -0.181656   -0.421116
     83          6           0      -10.094937    3.934924   -0.680866
     84          6           0      -14.176193    1.446977   -0.022873
     85          7           0       -9.655822   -1.180938   -0.029022
     86          6           0      -10.136481   -2.425164    0.204668
     87          6           0       -9.077885   -3.507664    0.144965
     88          6           0       -7.772086   -2.615577    0.144117
     89          6           0       -8.291894   -1.219949   -0.132017
     90          6           0       -6.922320   -2.674893    1.480051
     91          6           0       -9.053204   -4.593850   -1.017136
     92          6           0       -9.874312   -4.406639   -2.320534
     93          1           0       -9.273098   -4.976641   -3.659343
     94          7           0       -8.931832    1.746051   -0.350259
     95          6           0       -7.764371    1.180580   -0.626471
     96          6           0       -6.818432    2.230634   -1.093110
     97          6           0       -7.578835    3.509207   -1.002602
     98          6           0       -8.938905    3.079094   -0.676809
     99          6           0       -5.357333    1.989867   -1.361652
    100          6           0       -7.041827    4.878055   -1.329588
    101          8           0       -5.855237    4.989782   -1.627634
    102          6           0       -7.890502    6.201498   -1.387739
    103          7           0      -11.998477    2.510766   -0.423381
    104          6           0      -11.414735    3.654838   -0.520675
    105          6           0      -12.554174    4.766251   -0.595342
    106          6           0      -13.806892    3.888327   -0.628815
    107          6           0      -13.306408    2.483373   -0.353957
    108          6           0      -12.599259    5.866290    0.478273
    109          6           0      -14.506084    3.811757   -2.083455
    110          6           0      -15.900551    4.452326   -2.209101
    111          7           0      -12.489089   -0.271685    0.111340
    112          6           0      -13.803755    0.106858    0.181227
    113          6           0      -14.661255   -1.045812    0.560833
    114          6           0      -13.814866   -2.190427    0.547289
    115          6           0      -12.488439   -1.601066    0.373583
    116          6           0      -16.199489   -1.057039    0.705153
    117          6           0      -13.703812   -3.605134    0.675728
    118          8           0      -14.522954   -4.537829    0.739009
    119          6           0      -12.188521   -3.930885    0.677839
    120          6           0      -11.887109   -4.626216    2.008621
    121          8           0      -11.650479   -5.769320    2.296624
    122          8           0      -11.706025   -3.631042    2.975241
    123          6           0      -11.283907   -4.062160    4.344110
    124          1           0       -6.482288   -0.534512   -0.594764
    125          1           0       -9.848229    4.975109   -0.907040
    126          1           0      -15.215060    1.700809    0.196346
    127          1           0       -9.136955   -4.000852    1.115042
    128          1           0       -7.104129   -2.958409   -0.646207
    129          1           0       -7.415127   -3.295456    2.227727
    130          1           0       -7.030748   -1.655431    1.848619
    131          1           0       -5.902018   -2.984114    1.252441
    132          1           0       -9.342332   -5.542052   -0.563719
    133          1           0       -8.019027   -4.757742   -1.321876
    134          1           0      -10.000207   -3.329865   -2.433938
    135          1           0      -10.809259   -4.965914   -2.336046
    136          1           0       -4.775115    2.908576   -1.429888
    137          1           0       -5.311296    1.326212   -2.225914
    138          1           0       -5.047858    1.349387   -0.535094
    139          1           0       -8.522094    6.503205   -0.551326
    140          1           0       -8.612318    6.101386   -2.198339
    141          1           0       -7.268495    7.079423   -1.559866
    142          1           0      -12.464505    5.367584   -1.499400
    143          1           0      -14.639123    4.132531    0.032298
    144          1           0      -11.784180    5.767285    1.195351
    145          1           0      -13.565972    5.898887    0.981888
    146          1           0      -12.455178    6.869835    0.077964
    147          1           0      -14.649882    2.782084   -2.407992
    148          1           0      -13.806340    4.293851   -2.766472
    149          1           0      -16.578078    3.968791   -2.913279
    150          1           0      -15.718853    5.451668   -2.604481
    151          1           0      -16.291274    4.398568   -1.192885
    152          1           0      -16.707225   -0.180088    0.304914
    153          1           0      -16.361140   -1.095682    1.782128
    154          1           0      -16.570946   -1.997413    0.298697
    155          1           0      -11.964207   -4.607446   -0.146150
    156          1           0      -11.600743   -5.041064    4.703253
    157          1           0      -11.784397   -3.344026    4.993372
    158          1           0      -10.231203   -3.977812    4.614692
 ---------------------------------------------------------------------

 SCF Done:  E(RwB97XD) =  -4070.59442740     A.U. after   19 cycles

 Excitation energies and oscillator strengths:

 Excited State   1:      Singlet-A      1.6710 eV  741.97 nm  f=0.4693  <S**2>=0.000
     310 -> 316       -0.17376
     312 -> 314        0.67832
     310 <- 316       -0.11105
 This state for optimization and/or second-order correction.
 Total Energy, E(TD-HF/TD-DFT) =  -4070.53301847
 Copying the excited state density for this state as the 1-particle RhoCI density.

 Excited State   2:      Singlet-A      1.7161 eV  722.49 nm  f=0.3448  <S**2>=0.000
     309 -> 315        0.18899
     311 -> 313        0.67416
     309 <- 315        0.11427

 Excited State   3:      Singlet-A      2.2043 eV  562.47 nm  f=0.1105  <S**2>=0.000
     310 -> 314        0.63487
     312 -> 316        0.29118

 Excited State   4:      Singlet-A      2.2311 eV  555.71 nm  f=0.0969  <S**2>=0.000
     309 -> 313        0.63400
     311 -> 315       -0.29993

 Excited State   5:      Singlet-A      3.2874 eV  377.15 nm  f=0.0022  <S**2>=0.000
     303 -> 314       -0.11773
     308 -> 314        0.66497

 The electronic state is 1-A.
 Alpha  occ. eigenvalues --  -46.96303 -46.94854 -19.31716 -19.29781 -19.25306
 Alpha  occ. eigenvalues --  -19.24689 -19.24594 -19.24505 -19.23759 -19.23444
 Alpha  occ. eigenvalues --  -14.47168 -14.46802 -14.46768 -14.46271 -14.44955
 Alpha  occ. eigenvalues --  -14.44603 -14.44159 -14.43028 -10.43692 -10.43335
 Alpha  occ. eigenvalues --  -10.39677 -10.39470 -10.39421 -10.39391 -10.36607
 Alpha  occ. eigenvalues --  -10.35694 -10.35560 -10.35497 -10.35457 -10.35088
 Alpha  occ. eigenvalues --  -10.35031 -10.35007 -10.34656 -10.34596 -10.34592
 Alpha  occ. eigenvalues --  -10.34505 -10.34310 -10.34060 -10.33957 -10.33711
 Alpha  occ. eigenvalues --  -10.33685 -10.33291 -10.33003 -10.32968 -10.32767
 Alpha  occ. eigenvalues --  -10.32744 -10.32622 -10.32406 -10.32399 -10.32190
 Alpha  occ. eigenvalues --  -10.31965 -10.31957 -10.31944 -10.31854 -10.31849
 Alpha  occ. eigenvalues --  -10.31786 -10.31629 -10.31590 -10.31431 -10.31320
 Alpha  occ. eigenvalues --  -10.31316 -10.31271 -10.31195 -10.31119 -10.31052
 Alpha  occ. eigenvalues --  -10.31030 -10.31016 -10.30976 -10.30952 -10.30861
 Alpha  occ. eigenvalues --  -10.30320 -10.30313 -10.30301 -10.30263 -10.30238
 Alpha  occ. eigenvalues --  -10.30233 -10.30220 -10.30042 -10.29929 -10.29681
 Alpha  occ. eigenvalues --  -10.29632 -10.29532 -10.29232 -10.29070 -10.28944
 Alpha  occ. eigenvalues --  -10.28840  -3.22232  -3.20895  -1.95808  -1.95352
 Alpha  occ. eigenvalues --   -1.95200  -1.94461  -1.93998  -1.93886  -1.18816
 Alpha  occ. eigenvalues --   -1.18166  -1.14218  -1.11605  -1.11536  -1.10863
 Alpha  occ. eigenvalues --   -1.09561  -1.09439  -1.08634  -1.06730  -1.06139
 Alpha  occ. eigenvalues --   -1.05947  -1.05226  -1.05216  -1.04832  -1.03746
 Alpha  occ. eigenvalues --   -0.95511  -0.94152  -0.91625  -0.91496  -0.91202
 Alpha  occ. eigenvalues --   -0.90668  -0.90623  -0.90369  -0.90104  -0.89272
 Alpha  occ. eigenvalues --   -0.88795  -0.88617  -0.88401  -0.87185  -0.86727
 Alpha  occ. eigenvalues --   -0.86708  -0.86119  -0.85741  -0.85174  -0.84682
 Alpha  occ. eigenvalues --   -0.83826  -0.83603  -0.83094  -0.82673  -0.82360
 Alpha  occ. eigenvalues --   -0.82248  -0.80368  -0.79636  -0.79543  -0.79322
 Alpha  occ. eigenvalues --   -0.78826  -0.78601  -0.78523  -0.78159  -0.77190
 Alpha  occ. eigenvalues --   -0.77084  -0.75224  -0.74711  -0.74270  -0.73696
 Alpha  occ. eigenvalues --   -0.71494  -0.71233  -0.71097  -0.70511  -0.70496
 Alpha  occ. eigenvalues --   -0.69703  -0.69390  -0.69225  -0.68680  -0.67642
 Alpha  occ. eigenvalues --   -0.67532  -0.67481  -0.67407  -0.66990  -0.66775
 Alpha  occ. eigenvalues --   -0.66558  -0.65092  -0.64211  -0.62488  -0.62170
 Alpha  occ. eigenvalues --   -0.62096  -0.61599  -0.61377  -0.61344  -0.60453
 Alpha  occ. eigenvalues --   -0.60426  -0.60180  -0.59975  -0.59161  -0.59129
 Alpha  occ. eigenvalues --   -0.58366  -0.58231  -0.57987  -0.57759  -0.57546
 Alpha  occ. eigenvalues --   -0.56950  -0.56927  -0.56626  -0.56415  -0.56190
 Alpha  occ. eigenvalues --   -0.55820  -0.55759  -0.55494  -0.55089  -0.54810
 Alpha  occ. eigenvalues --   -0.54809  -0.54621  -0.54416  -0.54344  -0.53858
 Alpha  occ. eigenvalues --   -0.53615  -0.53564  -0.53429  -0.53384  -0.53129
 Alpha  occ. eigenvalues --   -0.53115  -0.52903  -0.52431  -0.52429  -0.52257
 Alpha  occ. eigenvalues --   -0.52066  -0.51920  -0.51846  -0.51744  -0.51635
 Alpha  occ. eigenvalues --   -0.51344  -0.51156  -0.50880  -0.50874  -0.50693
 Alpha  occ. eigenvalues --   -0.50377  -0.50369  -0.50339  -0.50146  -0.50130
 Alpha  occ. eigenvalues --   -0.49960  -0.49694  -0.49445  -0.49420  -0.49397
 Alpha  occ. eigenvalues --   -0.49260  -0.49081  -0.48876  -0.48768  -0.48471
 Alpha  occ. eigenvalues --   -0.48352  -0.48225  -0.48096  -0.48014  -0.47946
 Alpha  occ. eigenvalues --   -0.47692  -0.47562  -0.47392  -0.47231  -0.47192
 Alpha  occ. eigenvalues --   -0.47043  -0.46870  -0.46683  -0.46668  -0.46231
 Alpha  occ. eigenvalues --   -0.46053  -0.46018  -0.45800  -0.45729  -0.45428
 Alpha  occ. eigenvalues --   -0.45413  -0.45240  -0.45150  -0.44984  -0.44972
 Alpha  occ. eigenvalues --   -0.44698  -0.44503  -0.44450  -0.44210  -0.44163
 Alpha  occ. eigenvalues --   -0.43919  -0.43887  -0.43814  -0.43568  -0.43537
 Alpha  occ. eigenvalues --   -0.43258  -0.43020  -0.42748  -0.42495  -0.42495
 Alpha  occ. eigenvalues --   -0.42087  -0.41980  -0.41786  -0.41076  -0.41053
 Alpha  occ. eigenvalues --   -0.40663  -0.40377  -0.40104  -0.40019  -0.39621
 Alpha  occ. eigenvalues --   -0.39560  -0.39247  -0.38792  -0.38765  -0.38629
 Alpha  occ. eigenvalues --   -0.38183  -0.37922  -0.36969  -0.36235  -0.36158
 Alpha  occ. eigenvalues --   -0.36127  -0.35757  -0.35180  -0.34006  -0.33989
 Alpha  occ. eigenvalues --   -0.33389  -0.33166  -0.32969  -0.32735  -0.32720
 Alpha  occ. eigenvalues --   -0.32648  -0.31297  -0.31044  -0.26312  -0.26194
 Alpha  occ. eigenvalues --   -0.23231  -0.23048
 Alpha virt. eigenvalues --   -0.07153  -0.07077  -0.00020   0.00242   0.01523
 Alpha virt. eigenvalues --    0.02669   0.03969   0.04632   0.04803   0.05457
 Alpha virt. eigenvalues --    0.06760   0.06900   0.07237   0.07277   0.08077

 Mulliken charges:
               1
     1  Mg   0.984452
     2  C   -0.043449
     3  C   -0.132127
     4  C   -0.102586
     5  C   -0.063428
     6  N   -0.377787
     7  C    0.011548
     8  C   -0.047183
     9  C   -0.123573
    10  C    0.121160
    11  C    0.014148
    12  C    0.012109
    13  C   -0.135665
    14  H    0.033916
    15  N   -0.504943
    16  C    0.212724
    17  C   -0.172207
    18  C   -0.054792
    19  C    0.150063
    20  C    0.105757
    21  C    0.008126
    22  O   -0.195294
    23  C   -0.027713
    24  N   -0.393396
    25  C    0.110635
    26  C   -0.081186
    27  C   -0.082602
    28  C    0.108036
    29  C    0.029365
    30  C   -0.045355
    31  C   -0.025604
    32  N   -0.385778
    33  C    0.093698
    34  C   -0.223175
    35  C    0.000658
    36  C    0.116410
    37  C    0.079738
    38  C    0.129129
    39  O   -0.222314
    40  C   -0.072477
    41  C    0.292272
    42  O   -0.279966
    43  O   -0.349452
    44  C    0.124833
    45  H   -0.016799
    46  H   -0.040301
    47  H   -0.012711
    48  H    0.028134
    49  H    0.045468
    50  H    0.027680
    51  H    0.042752
    52  H    0.042923
    53  H    0.041084
    54  H    0.048666
    55  H    0.069550
    56  H    0.032811
    57  H    0.061832
    58  H    0.011497
    59  H    0.062622
    60  H    0.058099
    61  H    0.066141
    62  H    0.068513
    63  H    0.046849
    64  H    0.038372
    65  H    0.041324
    66  H    0.031642
    67  H    0.038479
    68  H    0.030505
    69  H    0.021511
    70  H    0.035992
    71  H    0.030274
    72  H    0.033018
    73  H    0.030576
    74  H    0.066808
    75  H    0.061277
    76  H    0.055865
    77  H    0.061281
    78  H    0.085043
    79  H    0.056493
    80  Mg   0.958029
    81  C   -0.036474
    82  C   -0.091450
    83  C   -0.036540
    84  C   -0.103838
    85  N   -0.341004
    86  C   -0.038173
    87  C    0.005411
    88  C   -0.158412
    89  C    0.057825
    90  C    0.033648
    91  C    0.002451
    92  C   -0.149804
    93  H    0.026425
    94  N   -0.476312
    95  C    0.164497
    96  C   -0.172922
    97  C   -0.081373
    98  C    0.167638
    99  C    0.085894
   100  C    0.055610
   101  O   -0.239692
   102  C   -0.027033
   103  N   -0.273931
   104  C    0.045737
   105  C   -0.055704
   106  C   -0.126008
   107  C    0.077432
   108  C    0.014333
   109  C   -0.041779
   110  C   -0.039873
   111  N   -0.402028
   112  C    0.126643
   113  C   -0.186352
   114  C   -0.009019
   115  C    0.160826
   116  C    0.075239
   117  C    0.093553
   118  O   -0.218549
   119  C   -0.083262
   120  C    0.279624
   121  O   -0.209779
   122  O   -0.397911
   123  C    0.134902
   124  H   -0.010083
   125  H   -0.053854
   126  H    0.002355
   127  H    0.040796
   128  H    0.037151
   129  H    0.035189
   130  H    0.038435
   131  H    0.055409
   132  H    0.045080
   133  H    0.044585
   134  H    0.073077
   135  H    0.074175
   136  H    0.078534
   137  H    0.041162
   138  H    0.038094
   139  H    0.056378
   140  H    0.056890
   141  H    0.052398
   142  H    0.035386
   143  H    0.023011
   144  H    0.033350
   145  H    0.035846
   146  H    0.026985
   147  H    0.043271
   148  H    0.025151
   149  H    0.043581
   150  H    0.037678
   151  H    0.028084
   152  H    0.042627
   153  H    0.054752
   154  H    0.069507
   155  H    0.068641
   156  H    0.065699
   157  H    0.044804
   158  H    0.047360
 Sum of Mulliken charges =  -0.00000

 Dipole moment (field-independent basis, Debye):
    X=              0.6840    Y=              3.7550    Z=              1.0116  Tot=              3.9486
 Quadrupole moment (field-independent basis, Debye-Ang):
   XX=           -504.2712   YY=           -491.8520   ZZ=           -502.0510
   XY=            -64.6594   XZ=            -11.6713   YZ=             15.9030

 Normal termination of Gaussian 16 at Sun Sep 19 15:17:49 2021.
