 Gaussian 16, Revision A.03,
 Gaussian 16:  ES64L-G16RevA.03 25-Dec-2016

 --------------------------------
 #p wB97XD/Def2SVP td=(nstates=5)
 --------------------------------

 --------------------------------
 TDDFT excited states in gaussian
 --------------------------------
 Symbolic Z-matrix:
 Charge =  0 Multiplicity = 1

                         Standard orientation:
 ---------------------------------------------------------------------
 Center     Atomic      Atomic             Coordinates (Angstroms)
 Number     Number       Type             X           Y           Z
 ---------------------------------------------------------------------
      1         12           0       16.755610   -0.579127    0.068129
      2          6           0       15.571404    2.545650   -1.255492
      3          6           0       18.414648    1.350569    2.536884
      4          6           0       18.126886   -3.483853    1.438705
      5          6           0       15.480578   -2.257524   -2.523701
      6          7           0       17.105643    1.789925    0.422336
      7          6           0       16.426366    2.792889   -0.174281
      8          6           0       16.886167    4.175000    0.414392
      9          6           0       17.949038    3.697069    1.467261
     10          6           0       17.778712    2.163321    1.559702
     11          6           0       19.404098    4.147517    1.092476
     12          6           0       15.746638    4.975433    1.044510
     13          6           0       15.709016    6.433950    0.725267
     14          1           0       14.533786    7.274315    1.245382
     15          7           0       17.886262   -1.051101    1.823980
     16          6           0       18.463929   -0.112693    2.672701
     17          6           0       19.146959   -0.826120    3.733588
     18          6           0       19.007148   -2.187591    3.520940
     19          6           0       18.375597   -2.301854    2.163193
     20          6           0       19.993720   -0.179486    4.791874
     21          6           0       19.555357   -3.431666    4.332824
     22          8           0       19.395520   -4.601870    4.085464
     23          6           0       20.224918   -3.185315    5.667457
     24          7           0       16.944991   -2.514209   -0.497257
     25          6           0       17.521644   -3.567353    0.163612
     26          6           0       17.563208   -4.848388   -0.701878
     27          6           0       16.510124   -4.526511   -1.845897
     28          6           0       16.270991   -2.990905   -1.582486
     29          6           0       19.001971   -5.207188   -1.193592
     30          6           0       15.197001   -5.363633   -1.771308
     31          6           0       14.289310   -5.066528   -0.579824
     32          7           0       15.775774   -0.057587   -1.564310
     33          6           0       15.215376   -0.884254   -2.577656
     34          6           0       14.522237   -0.073691   -3.576539
     35          6           0       14.597061    1.235075   -3.066998
     36          6           0       15.340828    1.214126   -1.857495
     37          6           0       13.856041   -0.569979   -4.774828
     38          6           0       14.185430    2.600316   -3.377443
     39          8           0       13.488764    3.012052   -4.289919
     40          6           0       14.878120    3.544611   -2.254482
     41          6           0       13.640899    4.292698   -1.752145
     42          8           0       12.708867    3.861166   -1.049848
     43          8           0       13.658010    5.519788   -2.242812
     44          6           0       12.705111    6.559304   -1.677735
     45          1           0       18.859028    1.949766    3.333963
     46          1           0       18.519153   -4.441864    1.788773
     47          1           0       15.027849   -2.876344   -3.300849
     48          1           0       17.224844    4.735256   -0.456459
     49          1           0       17.722754    4.071603    2.466471
     50          1           0       19.939003    4.716109    1.853184
     51          1           0       19.488050    4.602409    0.105317
     52          1           0       20.146760    3.353357    1.012672
     53          1           0       16.106301    5.073698    2.068913
     54          1           0       14.786680    4.459269    1.007441
     55          1           0       15.824112    6.769010   -0.306826
     56          1           0       16.588097    6.817639    1.243168
     57          1           0       19.888688    0.905036    4.776996
     58          1           0       21.060544   -0.400462    4.732044
     59          1           0       19.738461   -0.434415    5.820574
     60          1           0       19.563802   -2.690407    6.378774
     61          1           0       21.094995   -2.601498    5.366915
     62          1           0       20.606854   -4.169941    5.937219
     63          1           0       17.308089   -5.641167    0.002224
     64          1           0       16.889786   -4.423142   -2.862637
     65          1           0       19.391889   -6.112082   -0.727584
     66          1           0       19.766298   -4.431646   -1.158790
     67          1           0       18.821246   -5.362202   -2.257423
     68          1           0       15.457541   -6.398267   -1.994799
     69          1           0       14.593824   -5.094513   -2.638235
     70          1           0       14.690855   -4.381183    0.165724
     71          1           0       14.141613   -6.024624   -0.082109
     72          1           0       13.363537   -4.539991   -0.808912
     73          1           0       13.401071    0.197666   -5.401112
     74          1           0       13.094746   -1.258326   -4.408012
     75          1           0       14.587761   -1.149109   -5.339902
     76          1           0       15.500390    4.323622   -2.694925
     77          1           0       13.109128    7.524638   -1.983492
     78          1           0       12.696880    6.579590   -0.588377
     79          1           0       11.669334    6.413132   -1.986366
     80         12           0      -16.091338   -0.798968    0.102224
     81          6           0      -18.134152    1.939362    1.021142
     82          6           0      -13.576240    1.426222   -0.694321
     83          6           0      -14.265036   -3.412593   -1.044602
     84          6           0      -18.746994   -3.001850    0.722072
     85          7           0      -16.015273    1.413764    0.095543
     86          6           0      -16.869737    2.324440    0.712472
     87          6           0      -16.263787    3.787323    0.697901
     88          6           0      -14.951331    3.579372   -0.103802
     89          6           0      -14.834635    2.052478   -0.309669
     90          6           0      -14.790146    4.338619   -1.473728
     91          6           0      -16.170836    4.532363    2.092167
     92          6           0      -16.934891    5.818718    2.180905
     93          1           0      -16.260322    6.969631    3.027573
     94          7           0      -14.231940   -0.913059   -0.733609
     95          6           0      -13.297873    0.083826   -0.929782
     96          6           0      -12.110147   -0.481621   -1.550487
     97          6           0      -12.257585   -1.892288   -1.673276
     98          6           0      -13.635762   -2.147941   -1.113829
     99          6           0      -10.828860    0.321371   -1.852443
    100          6           0      -11.279571   -2.941981   -2.191091
    101          8           0      -11.493018   -4.136582   -2.163810
    102          6           0       -9.825536   -2.616782   -2.727759
    103          7           0      -16.502501   -2.920842   -0.217352
    104          6           0      -15.594473   -3.763869   -0.691350
    105          6           0      -16.131190   -5.238691   -0.745635
    106          6           0      -17.513325   -5.124121    0.011204
    107          6           0      -17.606895   -3.582473    0.220612
    108          6           0      -16.141058   -5.802699   -2.195893
    109          6           0      -17.549590   -5.971464    1.267638
    110          6           0      -18.867026   -6.715044    1.480188
    111          7           0      -18.107381   -0.664850    0.609078
    112          6           0      -19.041224   -1.633861    0.922303
    113          6           0      -20.268466   -0.961780    1.220117
    114          6           0      -19.983431    0.422478    1.321654
    115          6           0      -18.625741    0.587048    0.929266
    116          6           0      -21.576564   -1.609016    1.475746
    117          6           0      -20.534436    1.731939    1.712040
    118          8           0      -21.667602    2.108233    1.997057
    119          6           0      -19.212951    2.810744    1.540238
    120          6           0      -19.564816    3.862597    0.638190
    121          8           0      -19.174633    3.949547   -0.505910
    122          8           0      -20.297230    4.834237    1.281974
    123          6           0      -20.733863    5.920419    0.369691
    124          1           0      -12.713799    2.079951   -0.841520
    125          1           0      -13.741516   -4.282513   -1.445326
    126          1           0      -19.489033   -3.763215    0.973981
    127          1           0      -16.888699    4.324511   -0.014739
    128          1           0      -14.086829    3.874473    0.490960
    129          1           0      -13.756373    4.682807   -1.517569
    130          1           0      -15.500844    5.164418   -1.495291
    131          1           0      -14.976636    3.722911   -2.353852
    132          1           0      -15.106762    4.674810    2.281239
    133          1           0      -16.603761    3.861440    2.834347
    134          1           0      -17.906154    5.637700    2.643194
    135          1           0      -17.065078    6.106996    1.138192
    136          1           0      -10.079031   -0.080823   -1.172121
    137          1           0      -10.969237    1.350013   -1.519494
    138          1           0      -10.443939    0.238898   -2.869634
    139          1           0       -9.288173   -2.089212   -1.938977
    140          1           0       -9.829147   -2.209964   -3.739422
    141          1           0       -9.409931   -3.590451   -2.985527
    142          1           0      -15.539136   -5.938523   -0.156223
    143          1           0      -18.274367   -5.397798   -0.719827
    144          1           0      -17.129225   -6.218705   -2.394324
    145          1           0      -15.335350   -6.511021   -2.390457
    146          1           0      -15.975821   -4.992110   -2.903748
    147          1           0      -17.332131   -5.389424    2.162606
    148          1           0      -16.756991   -6.719009    1.326598
    149          1           0      -19.632978   -6.376753    0.782275
    150          1           0      -19.196962   -6.465499    2.489029
    151          1           0      -18.738382   -7.797514    1.487912
    152          1           0      -21.618622   -2.696433    1.414424
    153          1           0      -22.313493   -1.028799    0.919112
    154          1           0      -21.674160   -1.527963    2.558603
    155          1           0      -18.969968    3.230138    2.516958
    156          1           0      -21.352076    5.507322   -0.427650
    157          1           0      -19.822835    6.420493    0.041078
    158          1           0      -21.365878    6.659112    0.861087
 ---------------------------------------------------------------------

 SCF Done:  E(RwB97XD) =  -4070.59496213     A.U. after   19 cycles

 Excitation energies and oscillator strengths:

 Excited State   1:      Singlet-A      1.5889 eV  780.34 nm  f=0.3697  <S**2>=0.000
     309 -> 315       -0.18990
     312 -> 313        0.68306
     309 <- 315       -0.12269
 This state for optimization and/or second-order correction.
 Total Energy, E(TD-HF/TD-DFT) =  -4070.53657287
 Copying the excited state density for this state as the 1-particle RhoCI density.

 Excited State   2:      Singlet-A      1.7616 eV  703.83 nm  f=0.3721  <S**2>=0.000
     310 -> 316        0.17856
     311 -> 314        0.68334
     310 <- 316        0.10769

 Excited State   3:      Singlet-A      2.1589 eV  574.29 nm  f=0.0880  <S**2>=0.000
     309 -> 313        0.62442
     312 -> 315        0.32205

 Excited State   4:      Singlet-A      2.2098 eV  561.07 nm  f=0.1124  <S**2>=0.000
     310 -> 314        0.63739
     311 -> 316       -0.28426

 Excited State   5:      Singlet-A      3.4499 eV  359.38 nm  f=0.0261  <S**2>=0.000
     304 -> 314       -0.29989
     308 -> 314        0.60701

 The electronic state is 1-A.
 Alpha  occ. eigenvalues --  -46.94670 -46.94537 -19.30197 -19.29450 -19.24915
 Alpha  occ. eigenvalues --  -19.24581 -19.24451 -19.24319 -19.24043 -19.23022
 Alpha  occ. eigenvalues --  -14.47117 -14.46857 -14.46299 -14.46180 -14.44974
 Alpha  occ. eigenvalues --  -14.44774 -14.44344 -14.43235 -10.42376 -10.42034
 Alpha  occ. eigenvalues --  -10.40406 -10.39930 -10.39617 -10.39467 -10.36628
 Alpha  occ. eigenvalues --  -10.36131 -10.36041 -10.35513 -10.35426 -10.35322
 Alpha  occ. eigenvalues --  -10.35313 -10.35244 -10.35182 -10.35176 -10.34927
 Alpha  occ. eigenvalues --  -10.34743 -10.34417 -10.34106 -10.34076 -10.33986
 Alpha  occ. eigenvalues --  -10.33706 -10.33035 -10.32982 -10.32941 -10.32776
 Alpha  occ. eigenvalues --  -10.32705 -10.32627 -10.32548 -10.32547 -10.32523
 Alpha  occ. eigenvalues --  -10.32511 -10.32456 -10.32441 -10.32345 -10.32277
 Alpha  occ. eigenvalues --  -10.32048 -10.31961 -10.31866 -10.31815 -10.31697
 Alpha  occ. eigenvalues --  -10.31628 -10.31602 -10.31384 -10.31358 -10.31127
 Alpha  occ. eigenvalues --  -10.30891 -10.30843 -10.30813 -10.30724 -10.30652
 Alpha  occ. eigenvalues --  -10.30601 -10.30552 -10.30262 -10.30133 -10.30087
 Alpha  occ. eigenvalues --  -10.30071 -10.29963 -10.29927 -10.29841 -10.29647
 Alpha  occ. eigenvalues --  -10.29641 -10.29507 -10.29260 -10.29049 -10.28880
 Alpha  occ. eigenvalues --  -10.28803  -3.20800  -3.20503  -1.94377  -1.94101
 Alpha  occ. eigenvalues --   -1.93939  -1.93773  -1.93619  -1.93480  -1.18183
 Alpha  occ. eigenvalues --   -1.17919  -1.13747  -1.13725  -1.12320  -1.11397
 Alpha  occ. eigenvalues --   -1.09520  -1.07528  -1.06043  -1.05826  -1.05167
 Alpha  occ. eigenvalues --   -1.04500  -1.04308  -1.03922  -1.03789  -1.02900
 Alpha  occ. eigenvalues --   -0.93715  -0.92868  -0.91145  -0.90948  -0.90651
 Alpha  occ. eigenvalues --   -0.90253  -0.89976  -0.89969  -0.89345  -0.89215
 Alpha  occ. eigenvalues --   -0.88939  -0.88782  -0.88443  -0.87433  -0.86238
 Alpha  occ. eigenvalues --   -0.86085  -0.85511  -0.85463  -0.84375  -0.84316
 Alpha  occ. eigenvalues --   -0.83482  -0.83021  -0.82951  -0.82620  -0.82176
 Alpha  occ. eigenvalues --   -0.82008  -0.80404  -0.80148  -0.79260  -0.78928
 Alpha  occ. eigenvalues --   -0.78792  -0.78314  -0.77944  -0.77618  -0.77111
 Alpha  occ. eigenvalues --   -0.76638  -0.74627  -0.74171  -0.73669  -0.73248
 Alpha  occ. eigenvalues --   -0.72016  -0.71050  -0.70777  -0.70703  -0.69545
 Alpha  occ. eigenvalues --   -0.69388  -0.69105  -0.68301  -0.67490  -0.67471
 Alpha  occ. eigenvalues --   -0.67112  -0.66702  -0.66644  -0.66561  -0.66308
 Alpha  occ. eigenvalues --   -0.66120  -0.63827  -0.63086  -0.62045  -0.61646
 Alpha  occ. eigenvalues --   -0.61338  -0.61115  -0.60963  -0.60728  -0.59902
 Alpha  occ. eigenvalues --   -0.59756  -0.59709  -0.59413  -0.58966  -0.58239
 Alpha  occ. eigenvalues --   -0.57903  -0.57688  -0.57625  -0.57463  -0.57086
 Alpha  occ. eigenvalues --   -0.56672  -0.56628  -0.56092  -0.55944  -0.55577
 Alpha  occ. eigenvalues --   -0.55320  -0.55198  -0.55186  -0.55118  -0.54908
 Alpha  occ. eigenvalues --   -0.54884  -0.54697  -0.54456  -0.54377  -0.54100
 Alpha  occ. eigenvalues --   -0.54007  -0.53572  -0.53508  -0.53277  -0.52991
 Alpha  occ. eigenvalues --   -0.52948  -0.52887  -0.52738  -0.52462  -0.52104
 Alpha  occ. eigenvalues --   -0.52007  -0.51790  -0.51603  -0.51475  -0.51407
 Alpha  occ. eigenvalues --   -0.51316  -0.51260  -0.51210  -0.50956  -0.50614
 Alpha  occ. eigenvalues --   -0.50588  -0.50514  -0.50411  -0.50118  -0.49923
 Alpha  occ. eigenvalues --   -0.49871  -0.49632  -0.49489  -0.49429  -0.49408
 Alpha  occ. eigenvalues --   -0.48719  -0.48652  -0.48626  -0.48338  -0.48290
 Alpha  occ. eigenvalues --   -0.48168  -0.48082  -0.47873  -0.47793  -0.47475
 Alpha  occ. eigenvalues --   -0.47422  -0.47260  -0.47055  -0.46879  -0.46710
 Alpha  occ. eigenvalues --   -0.46612  -0.46382  -0.46371  -0.46113  -0.45938
 Alpha  occ. eigenvalues --   -0.45920  -0.45832  -0.45639  -0.45511  -0.45435
 Alpha  occ. eigenvalues --   -0.45153  -0.45112  -0.45112  -0.45003  -0.44949
 Alpha  occ. eigenvalues --   -0.44930  -0.44551  -0.44258  -0.44153  -0.44106
 Alpha  occ. eigenvalues --   -0.43850  -0.43826  -0.43367  -0.43349  -0.43092
 Alpha  occ. eigenvalues --   -0.42877  -0.42420  -0.42314  -0.42162  -0.42153
 Alpha  occ. eigenvalues --   -0.41894  -0.41524  -0.41512  -0.41268  -0.41131
 Alpha  occ. eigenvalues --   -0.40577  -0.40561  -0.40022  -0.39608  -0.39589
 Alpha  occ. eigenvalues --   -0.39163  -0.38854  -0.38759  -0.38186  -0.38085
 Alpha  occ. eigenvalues --   -0.37797  -0.37700  -0.36125  -0.35946  -0.35739
 Alpha  occ. eigenvalues --   -0.35385  -0.35288  -0.34766  -0.33869  -0.33647
 Alpha  occ. eigenvalues --   -0.33443  -0.33032  -0.32853  -0.32838  -0.32554
 Alpha  occ. eigenvalues --   -0.32196  -0.32140  -0.30709  -0.26070  -0.25976
 Alpha  occ. eigenvalues --   -0.23111  -0.22802
 Alpha virt. eigenvalues --   -0.07109  -0.06792  -0.00170   0.00195   0.02139
 Alpha virt. eigenvalues --    0.02661   0.04256   0.04437   0.06061   0.06461
 Alpha virt. eigenvalues --    0.06963   0.07549   0.07924   0.07952   0.08257

 Mulliken charges:
               1
     1  Mg   0.987954
     2  C    0.030684
     3  C   -0.071672
     4  C   -0.057248
     5  C   -0.105034
     6  N   -0.311523
     7  C   -0.008687
     8  C   -0.088427
     9  C   -0.082933
    10  C    0.047712
    11  C    0.016100
    12  C    0.051431
    13  C   -0.150228
    14  H    0.031483
    15  N   -0.450238
    16  C    0.180673
    17  C   -0.160852
    18  C   -0.081829
    19  C    0.134125
    20  C    0.055204
    21  C    0.057050
    22  O   -0.215956
    23  C   -0.009511
    24  N   -0.398618
    25  C    0.036660
    26  C   -0.083239
    27  C   -0.076498
    28  C    0.060797
    29  C    0.027323
    30  C   -0.005998
    31  C   -0.051466
    32  N   -0.527212
    33  C    0.158566
    34  C   -0.163680
    35  C   -0.041846
    36  C    0.162024
    37  C    0.081455
    38  C    0.128532
    39  O   -0.198880
    40  C   -0.130070
    41  C    0.252222
    42  O   -0.287069
    43  O   -0.341632
    44  C    0.147861
    45  H   -0.001352
    46  H    0.022980
    47  H   -0.006080
    48  H    0.039149
    49  H    0.035213
    50  H    0.033114
    51  H    0.038342
    52  H    0.025701
    53  H    0.023418
    54  H    0.069018
    55  H    0.048341
    56  H    0.037609
    57  H    0.022373
    58  H    0.055841
    59  H    0.037868
    60  H    0.076525
    61  H    0.035091
    62  H    0.053269
    63  H    0.040861
    64  H    0.043022
    65  H    0.048330
    66  H    0.047232
    67  H    0.024288
    68  H    0.039542
    69  H    0.022252
    70  H    0.040655
    71  H    0.045483
    72  H    0.042338
    73  H    0.065248
    74  H    0.051717
    75  H    0.044480
    76  H    0.067576
    77  H    0.057736
    78  H    0.052404
    79  H    0.072907
    80  Mg   0.955393
    81  C    0.013678
    82  C   -0.100358
    83  C   -0.065649
    84  C   -0.066989
    85  N   -0.380774
    86  C   -0.011729
    87  C   -0.052109
    88  C   -0.156878
    89  C    0.113072
    90  C    0.022915
    91  C    0.049810
    92  C   -0.135279
    93  H    0.029571
    94  N   -0.510092
    95  C    0.184494
    96  C   -0.168037
    97  C   -0.051404
    98  C    0.184866
    99  C    0.065869
   100  C    0.037417
   101  O   -0.218217
   102  C   -0.019068
   103  N   -0.318009
   104  C    0.037599
   105  C   -0.121195
   106  C   -0.060583
   107  C    0.021356
   108  C    0.018081
   109  C    0.000736
   110  C   -0.057006
   111  N   -0.463840
   112  C    0.166425
   113  C   -0.208655
   114  C   -0.042207
   115  C    0.161298
   116  C    0.091206
   117  C    0.152318
   118  O   -0.199174
   119  C   -0.162734
   120  C    0.269438
   121  O   -0.250488
   122  O   -0.372320
   123  C    0.150441
   124  H   -0.008531
   125  H    0.020427
   126  H   -0.018353
   127  H    0.051695
   128  H    0.032827
   129  H    0.036971
   130  H    0.043436
   131  H    0.050799
   132  H    0.038865
   133  H    0.034410
   134  H    0.065933
   135  H    0.050593
   136  H    0.052643
   137  H    0.034116
   138  H    0.066519
   139  H    0.061717
   140  H    0.055703
   141  H    0.047429
   142  H    0.040348
   143  H    0.034364
   144  H    0.035171
   145  H    0.050608
   146  H    0.041504
   147  H    0.030950
   148  H    0.027947
   149  H    0.041044
   150  H    0.031063
   151  H    0.041191
   152  H    0.019012
   153  H    0.070121
   154  H    0.044775
   155  H    0.079896
   156  H    0.060071
   157  H    0.049498
   158  H    0.052051
 Sum of Mulliken charges =  -0.00000

 Dipole moment (field-independent basis, Debye):
    X=              8.9516    Y=              0.1204    Z=              1.2649  Tot=              9.0414
 Quadrupole moment (field-independent basis, Debye-Ang):
   XX=           -558.9713   YY=           -467.8885   ZZ=           -512.2579
   XY=             48.4752   XZ=             36.6960   YZ=             19.2284

 Normal termination of Gaussian 16 at Sun Sep 19 11:21:00 2021.
