 Gaussian 16, Revision A.03,
 Gaussian 16:  ES64L-G16RevA.03 25-Dec-2016

 --------------------------------
 #p wB97XD/Def2SVP td=(nstates=5)
 --------------------------------

 --------------------------------
 TDDFT excited states in gaussian
 --------------------------------
 Symbolic Z-matrix:
 Charge =  0 Multiplicity = 1

                         Standard orientation:
 ---------------------------------------------------------------------
 Center     Atomic      Atomic             Coordinates (Angstroms)
 Number     Number       Type             X           Y           Z
 ---------------------------------------------------------------------
      1         12           0       25.571289    0.693987   -0.251113
      2          6           0       26.474940   -2.056726    1.550730
      3          6           0       23.620772   -1.407811   -2.322790
      4          6           0       24.843982    3.328817   -2.185520
      5          6           0       27.445315    2.644113    1.866388
      6          7           0       25.344116   -1.492625   -0.577758
      7          6           0       25.738466   -2.422993    0.392276
      8          6           0       25.275000   -3.864367    0.037882
      9          6           0       24.442535   -3.545276   -1.232307
     10          6           0       24.510633   -2.044882   -1.452556
     11          6           0       24.686008   -4.313295   -2.600841
     12          6           0       24.432971   -4.639175    1.144774
     13          6           0       23.997987   -6.048857    0.662004
     14          1           0       24.755879   -7.184014    1.351833
     15          7           0       24.324623    0.929660   -2.024658
     16          6           0       23.456244   -0.012541   -2.532502
     17          6           0       22.825359    0.614315   -3.688113
     18          6           0       23.197909    1.996234   -3.640674
     19          6           0       24.141036    2.162380   -2.579935
     20          6           0       21.925322   -0.156257   -4.575113
     21          6           0       22.738791    3.044056   -4.713924
     22          8           0       23.219022    4.191759   -4.809235
     23          6           0       21.717108    2.658897   -5.751858
     24          7           0       26.066519    2.584780   -0.194146
     25          6           0       25.649919    3.563516   -1.139821
     26          6           0       26.437815    4.843516   -0.976395
     27          6           0       26.825598    4.725988    0.496358
     28          6           0       26.738679    3.236094    0.795318
     29          6           0       27.677653    4.924601   -1.929011
     30          6           0       25.840207    5.457905    1.434753
     31          6           0       26.049465    6.926467    1.689746
     32          7           0       26.798826    0.452426    1.387582
     33          6           0       27.370712    1.317185    2.240950
     34          6           0       28.057132    0.588896    3.266749
     35          6           0       27.731009   -0.735800    3.067629
     36          6           0       26.917720   -0.772012    1.924303
     37          6           0       28.839462    1.261300    4.340421
     38          6           0       27.914661   -2.022397    3.589631
     39          8           0       28.507638   -2.419226    4.574154
     40          6           0       27.082754   -2.969120    2.603128
     41          6           0       28.013964   -3.995672    2.062512
     42          8           0       28.940463   -3.816216    1.310065
     43          8           0       27.620475   -5.228768    2.394957
     44          6           0       28.458990   -6.369045    1.858374
     45          1           0       22.924659   -2.089847   -2.815152
     46          1           0       24.610372    4.198432   -2.803036
     47          1           0       27.953921    3.206566    2.651698
     48          1           0       26.152815   -4.452041   -0.230971
     49          1           0       23.385931   -3.718003   -1.025541
     50          1           0       23.799671   -4.528997   -3.198075
     51          1           0       25.355703   -5.157537   -2.435973
     52          1           0       25.215275   -3.587646   -3.218280
     53          1           0       23.617733   -3.951341    1.365834
     54          1           0       25.047631   -4.725617    2.040683
     55          1           0       24.025977   -6.093908   -0.426707
     56          1           0       22.957598   -6.169272    0.962554
     57          1           0       22.421035   -0.266529   -5.539776
     58          1           0       20.964682    0.357631   -4.540255
     59          1           0       21.719084   -1.141198   -4.155987
     60          1           0       21.474887    3.522263   -6.371565
     61          1           0       20.814357    2.469396   -5.169520
     62          1           0       21.945014    1.794489   -6.374973
     63          1           0       25.817066    5.716927   -1.178119
     64          1           0       27.837228    5.072342    0.706893
     65          1           0       28.476604    4.266165   -1.590296
     66          1           0       28.033889    5.952671   -1.999543
     67          1           0       27.308215    4.618540   -2.907136
     68          1           0       25.740000    4.973809    2.405372
     69          1           0       24.823300    5.329390    1.063699
     70          1           0       25.144730    7.431719    1.352904
     71          1           0       26.810481    7.195214    0.956964
     72          1           0       26.361013    7.170962    2.705386
     73          1           0       28.235751    1.363848    5.241313
     74          1           0       29.373444    2.180033    4.095804
     75          1           0       29.626717    0.553208    4.599723
     76          1           0       26.292052   -3.450628    3.178947
     77          1           0       28.566235   -6.206462    0.785690
     78          1           0       27.986119   -7.344130    1.978332
     79          1           0       29.425326   -6.335273    2.362000
     80         12           0      -25.426732    0.463791    0.527958
     81          6           0      -25.848330   -1.847629   -1.965063
     82          6           0      -24.949603   -1.995257    2.747146
     83          6           0      -25.279846    2.847215    2.907216
     84          6           0      -26.465271    3.040735   -1.817265
     85          7           0      -25.677542   -1.735393    0.415858
     86          6           0      -25.732243   -2.468344   -0.702780
     87          6           0      -25.618724   -4.041523   -0.359391
     88          6           0      -25.320554   -3.959646    1.184427
     89          6           0      -25.349752   -2.455910    1.524599
     90          6           0      -26.237549   -4.854421    2.040843
     91          6           0      -24.516760   -4.782770   -1.168428
     92          6           0      -24.065078   -6.198361   -0.681603
     93          1           0      -24.600502   -7.450444   -1.474635
     94          7           0      -25.197628    0.422844    2.577543
     95          6           0      -24.916321   -0.648651    3.289396
     96          6           0      -24.706003   -0.245817    4.671668
     97          6           0      -24.900040    1.162180    4.802681
     98          6           0      -25.134672    1.540507    3.391802
     99          6           0      -24.489236   -1.189968    5.842668
    100          6           0      -24.918399    2.054410    6.039478
    101          8           0      -25.387166    3.188143    5.995484
    102          6           0      -24.358891    1.523824    7.312884
    103          7           0      -25.865913    2.638943    0.541442
    104          6           0      -25.678458    3.374868    1.630521
    105          6           0      -25.804184    4.879614    1.339942
    106          6           0      -25.962656    4.865077   -0.178209
    107          6           0      -26.141157    3.425650   -0.487921
    108          6           0      -26.887491    5.670802    2.087956
    109          6           0      -24.919610    5.667094   -0.914536
    110          6           0      -25.443241    6.900660   -1.733166
    111          7           0      -25.971066    0.614187   -1.436890
    112          6           0      -26.288000    1.718710   -2.296871
    113          6           0      -26.443189    1.285480   -3.668105
    114          6           0      -26.251166   -0.117265   -3.528702
    115          6           0      -25.988413   -0.449771   -2.193794
    116          6           0      -26.585095    2.050648   -4.936445
    117          6           0      -26.060630   -1.271624   -4.370170
    118          8           0      -25.939216   -1.440592   -5.592693
    119          6           0      -25.922467   -2.466663   -3.460417
    120          6           0      -27.218136   -3.302370   -3.553815
    121          8           0      -28.386962   -2.887238   -3.576985
    122          8           0      -26.856815   -4.616098   -3.599749
    123          6           0      -27.947036   -5.634122   -3.730104
    124          1           0      -24.658536   -2.688749    3.538870
    125          1           0      -25.448415    3.648163    3.630077
    126          1           0      -26.635648    3.882654   -2.490670
    127          1           0      -26.621728   -4.420218   -0.552675
    128          1           0      -24.286461   -4.270141    1.333746
    129          1           0      -25.603588   -5.334263    2.785667
    130          1           0      -26.690194   -5.654246    1.454660
    131          1           0      -27.017997   -4.264738    2.521907
    132          1           0      -23.610896   -4.197071   -1.012086
    133          1           0      -24.830348   -4.897383   -2.205972
    134          1           0      -24.503144   -6.345125    0.306180
    135          1           0      -22.977445   -6.248835   -0.719302
    136          1           0      -24.473399   -2.230112    5.517244
    137          1           0      -25.295576   -1.066506    6.565221
    138          1           0      -23.555376   -0.982791    6.363700
    139          1           0      -23.383581    1.115928    7.045903
    140          1           0      -24.852011    0.751452    7.902334
    141          1           0      -24.228922    2.295522    8.070860
    142          1           0      -24.853346    5.344142    1.598895
    143          1           0      -26.907476    5.357948   -0.406636
    144          1           0      -26.406768    6.621668    2.316537
    145          1           0      -27.244392    5.110913    2.952268
    146          1           0      -27.818291    5.793345    1.534243
    147          1           0      -24.547068    4.971863   -1.666172
    148          1           0      -24.127131    6.048905   -0.271522
    149          1           0      -26.528661    6.966742   -1.653749
    150          1           0      -25.190841    6.723204   -2.779038
    151          1           0      -24.963823    7.852455   -1.503929
    152          1           0      -26.422268    3.112553   -4.754098
    153          1           0      -27.639269    1.970949   -5.199382
    154          1           0      -25.842779    1.615547   -5.607148
    155          1           0      -25.061150   -3.004298   -3.857331
    156          1           0      -28.796598   -5.492298   -3.061651
    157          1           0      -27.610491   -6.667010   -3.647100
    158          1           0      -28.361517   -5.484576   -4.726924
 ---------------------------------------------------------------------

 SCF Done:  E(RwB97XD) =  -4070.63433045     A.U. after   19 cycles

 Excitation energies and oscillator strengths:

 Excited State   1:      Singlet-A      1.5970 eV  776.37 nm  f=0.3880  <S**2>=0.000
     309 -> 316        0.16564
     311 -> 313        0.68828
     309 <- 316        0.11237
 This state for optimization and/or second-order correction.
 Total Energy, E(TD-HF/TD-DFT) =  -4070.57564252
 Copying the excited state density for this state as the 1-particle RhoCI density.

 Excited State   2:      Singlet-A      1.6635 eV  745.30 nm  f=0.4027  <S**2>=0.000
     310 -> 315       -0.18170
     312 -> 314        0.68164
     310 <- 315       -0.11252

 Excited State   3:      Singlet-A      2.1950 eV  564.86 nm  f=0.1051  <S**2>=0.000
     309 -> 313        0.63719
     311 -> 316       -0.28946

 Excited State   4:      Singlet-A      2.2222 eV  557.93 nm  f=0.1098  <S**2>=0.000
     310 -> 314        0.63695
     312 -> 315        0.28920

 Excited State   5:      Singlet-A      3.2155 eV  385.58 nm  f=0.0019  <S**2>=0.000
     308 -> 313        0.67727

 The electronic state is 1-A.
 Alpha  occ. eigenvalues --  -46.95549 -46.93880 -19.30849 -19.30177 -19.24593
 Alpha  occ. eigenvalues --  -19.24517 -19.24406 -19.23726 -19.23575 -19.22755
 Alpha  occ. eigenvalues --  -14.47364 -14.46676 -14.46392 -14.46285 -14.44703
 Alpha  occ. eigenvalues --  -14.43895 -14.43506 -14.43461 -10.43424 -10.42405
 Alpha  occ. eigenvalues --  -10.40094 -10.39192 -10.39029 -10.37367 -10.36165
 Alpha  occ. eigenvalues --  -10.36094 -10.35936 -10.35739 -10.35429 -10.35017
 Alpha  occ. eigenvalues --  -10.34551 -10.34501 -10.34450 -10.34365 -10.34052
 Alpha  occ. eigenvalues --  -10.34041 -10.33994 -10.33566 -10.33491 -10.33358
 Alpha  occ. eigenvalues --  -10.33281 -10.33060 -10.33049 -10.32806 -10.32750
 Alpha  occ. eigenvalues --  -10.32700 -10.32677 -10.32449 -10.32297 -10.32200
 Alpha  occ. eigenvalues --  -10.32175 -10.32172 -10.32141 -10.31895 -10.31821
 Alpha  occ. eigenvalues --  -10.31819 -10.31679 -10.31591 -10.31543 -10.31418
 Alpha  occ. eigenvalues --  -10.31378 -10.31183 -10.31064 -10.30988 -10.30752
 Alpha  occ. eigenvalues --  -10.30738 -10.30730 -10.30692 -10.30624 -10.30435
 Alpha  occ. eigenvalues --  -10.30422 -10.30404 -10.30258 -10.30202 -10.30133
 Alpha  occ. eigenvalues --  -10.30114 -10.30054 -10.29704 -10.29613 -10.29554
 Alpha  occ. eigenvalues --  -10.29537 -10.29522 -10.29518 -10.29127 -10.28920
 Alpha  occ. eigenvalues --  -10.28446  -3.21515  -3.20066  -1.95096  -1.94630
 Alpha  occ. eigenvalues --   -1.94498  -1.93665  -1.93210  -1.93041  -1.19127
 Alpha  occ. eigenvalues --   -1.17737  -1.12760  -1.12630  -1.10481  -1.10201
 Alpha  occ. eigenvalues --   -1.09382  -1.08736  -1.07747  -1.07544  -1.06424
 Alpha  occ. eigenvalues --   -1.05959  -1.05922  -1.05121  -1.05000  -1.04002
 Alpha  occ. eigenvalues --   -0.95384  -0.93254  -0.91792  -0.90968  -0.90696
 Alpha  occ. eigenvalues --   -0.90601  -0.90575  -0.90116  -0.89899  -0.89515
 Alpha  occ. eigenvalues --   -0.89142  -0.89098  -0.88964  -0.88509  -0.86309
 Alpha  occ. eigenvalues --   -0.86122  -0.85870  -0.85235  -0.84446  -0.84300
 Alpha  occ. eigenvalues --   -0.84076  -0.83526  -0.83194  -0.83047  -0.82604
 Alpha  occ. eigenvalues --   -0.82018  -0.80510  -0.80368  -0.79504  -0.79488
 Alpha  occ. eigenvalues --   -0.79170  -0.78682  -0.78175  -0.78028  -0.77300
 Alpha  occ. eigenvalues --   -0.77161  -0.75256  -0.74646  -0.73810  -0.73678
 Alpha  occ. eigenvalues --   -0.71455  -0.71377  -0.71077  -0.70956  -0.70246
 Alpha  occ. eigenvalues --   -0.69712  -0.69592  -0.68077  -0.67796  -0.67787
 Alpha  occ. eigenvalues --   -0.66908  -0.66903  -0.66666  -0.66429  -0.66181
 Alpha  occ. eigenvalues --   -0.65918  -0.64634  -0.64131  -0.62746  -0.62236
 Alpha  occ. eigenvalues --   -0.62049  -0.61635  -0.61154  -0.60898  -0.60884
 Alpha  occ. eigenvalues --   -0.60631  -0.60347  -0.60023  -0.59995  -0.59382
 Alpha  occ. eigenvalues --   -0.58556  -0.58325  -0.58024  -0.57657  -0.57094
 Alpha  occ. eigenvalues --   -0.57045  -0.56713  -0.56479  -0.56237  -0.56075
 Alpha  occ. eigenvalues --   -0.55697  -0.55411  -0.55360  -0.55351  -0.54855
 Alpha  occ. eigenvalues --   -0.54753  -0.54675  -0.54496  -0.54253  -0.54129
 Alpha  occ. eigenvalues --   -0.53755  -0.53637  -0.53616  -0.53297  -0.53138
 Alpha  occ. eigenvalues --   -0.53061  -0.52661  -0.52465  -0.52315  -0.52201
 Alpha  occ. eigenvalues --   -0.51954  -0.51876  -0.51857  -0.51748  -0.51705
 Alpha  occ. eigenvalues --   -0.51613  -0.51288  -0.51201  -0.51009  -0.50906
 Alpha  occ. eigenvalues --   -0.50895  -0.50710  -0.50494  -0.50193  -0.50140
 Alpha  occ. eigenvalues --   -0.50008  -0.49771  -0.49712  -0.49633  -0.49463
 Alpha  occ. eigenvalues --   -0.49251  -0.49109  -0.48863  -0.48746  -0.48474
 Alpha  occ. eigenvalues --   -0.48433  -0.48336  -0.48087  -0.47978  -0.47892
 Alpha  occ. eigenvalues --   -0.47877  -0.47470  -0.47246  -0.46924  -0.46688
 Alpha  occ. eigenvalues --   -0.46678  -0.46450  -0.46341  -0.46201  -0.46077
 Alpha  occ. eigenvalues --   -0.45946  -0.45787  -0.45707  -0.45695  -0.45548
 Alpha  occ. eigenvalues --   -0.45511  -0.45297  -0.44855  -0.44832  -0.44729
 Alpha  occ. eigenvalues --   -0.44189  -0.43989  -0.43933  -0.43908  -0.43771
 Alpha  occ. eigenvalues --   -0.43746  -0.43562  -0.43556  -0.43465  -0.43126
 Alpha  occ. eigenvalues --   -0.43115  -0.42851  -0.42736  -0.42575  -0.42362
 Alpha  occ. eigenvalues --   -0.42315  -0.41987  -0.41760  -0.41200  -0.41003
 Alpha  occ. eigenvalues --   -0.40337  -0.40195  -0.40058  -0.39798  -0.39416
 Alpha  occ. eigenvalues --   -0.39193  -0.39059  -0.38697  -0.38690  -0.38595
 Alpha  occ. eigenvalues --   -0.38221  -0.37899  -0.36284  -0.36279  -0.36021
 Alpha  occ. eigenvalues --   -0.36007  -0.35583  -0.35491  -0.33938  -0.33705
 Alpha  occ. eigenvalues --   -0.33345  -0.33315  -0.32833  -0.32805  -0.32454
 Alpha  occ. eigenvalues --   -0.31968  -0.31830  -0.31269  -0.26564  -0.25853
 Alpha  occ. eigenvalues --   -0.22949  -0.22934
 Alpha virt. eigenvalues --   -0.07448  -0.06917   0.00138   0.00347   0.02423
 Alpha virt. eigenvalues --    0.02610   0.04449   0.04598   0.05056   0.06352
 Alpha virt. eigenvalues --    0.07275   0.07463   0.07814   0.07974   0.08365

 Mulliken charges:
               1
     1  Mg   0.971286
     2  C   -0.006027
     3  C   -0.072418
     4  C   -0.076293
     5  C   -0.099591
     6  N   -0.341014
     7  C   -0.009410
     8  C   -0.022347
     9  C   -0.153765
    10  C    0.065401
    11  C    0.013354
    12  C   -0.006037
    13  C   -0.111481
    14  H    0.047918
    15  N   -0.435294
    16  C    0.162657
    17  C   -0.218497
    18  C   -0.077952
    19  C    0.134332
    20  C    0.083872
    21  C    0.066672
    22  O   -0.256631
    23  C   -0.006939
    24  N   -0.468509
    25  C    0.098775
    26  C   -0.069537
    27  C   -0.080510
    28  C    0.140212
    29  C    0.040743
    30  C   -0.043672
    31  C   -0.003980
    32  N   -0.428079
    33  C    0.106678
    34  C   -0.178834
    35  C    0.017670
    36  C    0.137034
    37  C    0.064642
    38  C    0.098769
    39  O   -0.191649
    40  C   -0.123795
    41  C    0.249351
    42  O   -0.247078
    43  O   -0.362873
    44  C    0.139144
    45  H   -0.004131
    46  H    0.019900
    47  H   -0.001767
    48  H    0.044511
    49  H    0.034722
    50  H    0.042245
    51  H    0.043405
    52  H    0.037659
    53  H    0.035410
    54  H    0.054610
    55  H    0.050964
    56  H    0.052973
    57  H    0.065758
    58  H    0.049286
    59  H    0.025669
    60  H    0.051289
    61  H    0.045816
    62  H    0.060858
    63  H    0.028075
    64  H    0.023082
    65  H    0.041821
    66  H    0.042132
    67  H    0.041583
    68  H    0.022327
    69  H    0.020612
    70  H    0.035331
    71  H    0.017919
    72  H    0.051249
    73  H    0.062381
    74  H    0.045034
    75  H    0.051504
    76  H    0.073879
    77  H    0.057993
    78  H    0.059955
    79  H    0.069647
    80  Mg   0.970122
    81  C   -0.075016
    82  C   -0.078851
    83  C   -0.049375
    84  C   -0.066324
    85  N   -0.355663
    86  C   -0.025926
    87  C   -0.008893
    88  C   -0.153545
    89  C    0.120051
    90  C    0.024355
    91  C   -0.009647
    92  C   -0.131300
    93  H    0.015018
    94  N   -0.438304
    95  C    0.116747
    96  C   -0.186947
    97  C   -0.059028
    98  C    0.130872
    99  C    0.069417
   100  C    0.087577
   101  O   -0.227299
   102  C   -0.033079
   103  N   -0.274043
   104  C   -0.007330
   105  C   -0.114786
   106  C   -0.055402
   107  C    0.009659
   108  C    0.036073
   109  C    0.000442
   110  C   -0.068103
   111  N   -0.456809
   112  C    0.123358
   113  C   -0.170395
   114  C   -0.077016
   115  C    0.206162
   116  C    0.109167
   117  C    0.102809
   118  O   -0.239416
   119  C   -0.055665
   120  C    0.293605
   121  O   -0.266014
   122  O   -0.365204
   123  C    0.138554
   124  H   -0.019888
   125  H    0.029524
   126  H    0.004107
   127  H    0.040458
   128  H    0.037101
   129  H    0.034003
   130  H    0.041476
   131  H    0.049668
   132  H    0.031922
   133  H    0.073440
   134  H    0.048327
   135  H    0.065623
   136  H    0.031760
   137  H    0.051522
   138  H    0.041255
   139  H    0.048709
   140  H    0.063132
   141  H    0.052441
   142  H    0.038864
   143  H    0.021346
   144  H    0.046533
   145  H    0.044297
   146  H    0.029788
   147  H    0.030492
   148  H    0.036916
   149  H    0.033100
   150  H    0.033425
   151  H    0.041979
   152  H    0.019328
   153  H    0.065429
   154  H    0.081067
   155  H    0.069616
   156  H    0.058579
   157  H    0.063576
   158  H    0.056477
 Sum of Mulliken charges =  -0.00000

 Dipole moment (field-independent basis, Debye):
    X=             -0.6628    Y=             -2.3744    Z=              3.5034  Tot=              4.2838
 Quadrupole moment (field-independent basis, Debye-Ang):
   XX=           -827.0484   YY=           -456.4904   ZZ=           -539.1000
   XY=             -1.1050   XZ=           -127.8623   YZ=              3.1910

 Normal termination of Gaussian 16 at Mon Sep 20 02:43:52 2021.
