 Gaussian 16, Revision A.03,
 Gaussian 16:  ES64L-G16RevA.03 25-Dec-2016

 --------------------------------
 #p wB97XD/Def2SVP td=(nstates=5)
 --------------------------------

 --------------------------------
 TDDFT excited states in gaussian
 --------------------------------
 Symbolic Z-matrix:
 Charge =  0 Multiplicity = 1

                         Standard orientation:
 ---------------------------------------------------------------------
 Center     Atomic      Atomic             Coordinates (Angstroms)
 Number     Number       Type             X           Y           Z
 ---------------------------------------------------------------------
      1         12           0       -8.628106   -0.954866    0.640694
      2          6           0       -9.994978    1.941554   -0.505390
      3          6           0       -7.001550    0.733735    3.158597
      4          6           0       -7.199436   -3.884506    1.555507
      5          6           0       -9.921729   -2.567202   -2.226128
      6          7           0       -8.340040    1.152814    1.119111
      7          6           0       -9.250665    2.077596    0.713413
      8          6           0       -9.247645    3.317101    1.542350
      9          6           0       -8.054850    2.949302    2.568503
     10          6           0       -7.759470    1.513384    2.283140
     11          6           0       -6.766031    3.869082    2.371073
     12          6           0      -10.660220    3.447192    2.281640
     13          6           0      -11.085303    4.843359    2.741678
     14          1           0      -10.135147    6.063898    2.825273
     15          7           0       -7.366009   -1.567926    2.191716
     16          6           0       -6.781875   -0.691956    3.121205
     17          6           0       -5.945976   -1.491253    3.986708
     18          6           0       -6.017820   -2.830967    3.553849
     19          6           0       -6.930782   -2.787800    2.419893
     20          6           0       -5.206953   -0.860499    5.189957
     21          6           0       -5.191115   -4.098847    4.124516
     22          8           0       -5.425896   -5.262174    3.773783
     23          6           0       -4.084068   -4.001162    5.161162
     24          7           0       -8.643819   -2.993962   -0.220600
     25          6           0       -7.928594   -3.986338    0.360974
     26          6           0       -7.840802   -5.214763   -0.543126
     27          6           0       -9.017238   -4.901263   -1.635921
     28          6           0       -9.326943   -3.429368   -1.320919
     29          6           0       -6.390482   -5.569062   -1.110278
     30          6           0      -10.409566   -5.690032   -1.438866
     31          6           0      -11.048697   -6.399271   -2.618544
     32          7           0       -9.783266   -0.504632   -1.040299
     33          6           0      -10.214296   -1.212592   -2.098987
     34          6           0      -11.091160   -0.356511   -2.957968
     35          6           0      -11.048176    0.889481   -2.288548
     36          6           0      -10.136970    0.744170   -1.214051
     37          6           0      -11.875865   -0.678677   -4.180261
     38          6           0      -11.569775    2.199884   -2.400904
     39          8           0      -12.342009    2.690979   -3.249699
     40          6           0      -10.907046    2.950908   -1.248833
     41          6           0      -10.123275    4.037522   -1.790270
     42          8           0       -9.252244    4.039962   -2.602931
     43          8           0      -10.494122    5.174240   -1.078093
     44          6           0       -9.844909    6.520844   -1.311663
     45          1           0       -6.642574    1.153664    4.100118
     46          1           0       -6.659124   -4.801645    1.800583
     47          1           0      -10.185605   -2.941309   -3.216917
     48          1           0       -9.061170    4.297267    1.103934
     49          1           0       -8.376797    3.054982    3.604479
     50          1           0       -6.224358    4.130584    3.279793
     51          1           0       -7.034526    4.732080    1.761967
     52          1           0       -6.064049    3.285203    1.774860
     53          1           0      -10.715150    2.798025    3.155737
     54          1           0      -11.390686    3.078575    1.561025
     55          1           0      -11.538235    4.700568    3.723599
     56          1           0      -11.920163    5.171101    2.123418
     57          1           0       -5.419606    0.197512    5.342655
     58          1           0       -4.143565   -1.028911    5.023077
     59          1           0       -5.487841   -1.435379    6.072708
     60          1           0       -4.597618   -3.719295    6.079612
     61          1           0       -3.463772   -3.114600    5.027957
     62          1           0       -3.435635   -4.875555    5.109632
     63          1           0       -8.173990   -6.075394    0.038103
     64          1           0       -8.667174   -5.090834   -2.650812
     65          1           0       -6.382879   -5.578434   -2.200468
     66          1           0       -6.061386   -6.531651   -0.720510
     67          1           0       -5.671718   -4.796445   -0.836216
     68          1           0      -11.166868   -5.063865   -0.967383
     69          1           0      -10.221821   -6.440727   -0.671793
     70          1           0      -12.051439   -5.985592   -2.719868
     71          1           0      -11.068270   -7.482772   -2.504651
     72          1           0      -10.525603   -6.127862   -3.536570
     73          1           0      -11.862372   -1.728982   -4.470959
     74          1           0      -11.502075   -0.122110   -5.040080
     75          1           0      -12.912137   -0.389023   -4.007223
     76          1           0      -11.636823    3.358381   -0.548589
     77          1           0       -9.046153    6.434377   -2.048604
     78          1           0       -9.374574    6.864378   -0.389352
     79          1           0      -10.647414    7.171566   -1.658903
     80         12           0        8.942706   -0.349559   -0.047848
     81          6           0        6.995866    2.538408   -0.350507
     82          6           0       11.576063    1.660334    0.917808
     83          6           0       11.056615   -3.004690   -0.412168
     84          6           0        6.430551   -2.119792   -1.644198
     85          7           0        9.163488    1.796910    0.313751
     86          6           0        8.194324    2.720852    0.332923
     87          6           0        8.590332    4.052595    0.987159
     88          6           0       10.133084    3.833191    1.228373
     89          6           0       10.340697    2.254639    0.881681
     90          6           0       11.107118    4.733068    0.437693
     91          6           0        7.801376    4.402608    2.249049
     92          6           0        7.721422    5.916669    2.516078
     93          1           0        8.425904    6.886714    1.557113
     94          7           0       10.990816   -0.685274    0.313604
     95          6           0       11.919553    0.272511    0.782076
     96          6           0       13.198724   -0.384331    0.961811
     97          6           0       13.085421   -1.752204    0.510807
     98          6           0       11.675738   -1.884285    0.146127
     99          6           0       14.351085    0.328915    1.613899
    100          6           0       14.141645   -2.946021    0.550053
    101          8           0       13.873865   -4.089056    0.269236
    102          6           0       15.553608   -2.578638    0.951855
    103          7           0        8.800164   -2.232797   -0.981314
    104          6           0        9.780153   -3.181837   -0.975249
    105          6           0        9.309408   -4.529627   -1.635973
    106          6           0        7.844492   -4.217075   -1.936810
    107          6           0        7.692521   -2.772484   -1.499001
    108          6           0       10.113212   -5.191869   -2.826579
    109          6           0        6.898932   -5.167175   -1.165099
    110          6           0        6.561068   -4.849364    0.308417
    111          7           0        6.996440    0.006584   -0.735631
    112          6           0        6.086308   -0.803427   -1.363890
    113          6           0        4.880517   -0.100936   -1.650080
    114          6           0        5.186125    1.281071   -1.264252
    115          6           0        6.431326    1.265334   -0.768159
    116          6           0        3.609943   -0.542805   -2.229077
    117          6           0        4.724168    2.661777   -1.299309
    118          8           0        3.620705    3.122382   -1.610797
    119          6           0        5.853609    3.555672   -0.707767
    120          6           0        6.273297    4.584508   -1.653802
    121          8           0        7.010028    4.419527   -2.620368
    122          8           0        5.538660    5.722848   -1.435155
    123          6           0        5.457527    6.754500   -2.487386
    124          1           0       12.355069    2.375264    1.191477
    125          1           0       11.669634   -3.906964   -0.362118
    126          1           0        5.600994   -2.696179   -2.058915
    127          1           0        8.554585    4.875982    0.274176
    128          1           0       10.411418    3.839007    2.281616
    129          1           0       11.713442    5.125241    1.253999
    130          1           0       10.567849    5.533669   -0.068034
    131          1           0       11.660370    4.145913   -0.295391
    132          1           0        8.198928    3.903833    3.132123
    133          1           0        6.777621    4.036965    2.165087
    134          1           0        8.156868    5.964648    3.514384
    135          1           0        6.694095    6.248554    2.672914
    136          1           0       14.044455    1.372707    1.682530
    137          1           0       15.240729    0.205378    0.995979
    138          1           0       14.593326   -0.065285    2.601967
    139          1           0       16.161446   -2.057514    0.211501
    140          1           0       16.047243   -3.488629    1.292926
    141          1           0       15.377955   -1.935990    1.814484
    142          1           0        9.424871   -5.215379   -0.796929
    143          1           0        7.721103   -4.336869   -3.012553
    144          1           0        9.501835   -5.494358   -3.675949
    145          1           0       10.564113   -6.112322   -2.457058
    146          1           0       10.918687   -4.509641   -3.100007
    147          1           0        7.357482   -6.152189   -1.243292
    148          1           0        5.987074   -5.191153   -1.762514
    149          1           0        6.591877   -5.817267    0.808082
    150          1           0        5.554358   -4.455250    0.445465
    151          1           0        7.204905   -4.098843    0.765639
    152          1           0        2.808285   -0.067287   -1.665065
    153          1           0        3.448284   -1.620685   -2.244393
    154          1           0        3.478049   -0.099165   -3.216100
    155          1           0        5.411260    3.972068    0.197119
    156          1           0        6.073913    6.509388   -3.353006
    157          1           0        5.839430    7.685307   -2.067323
    158          1           0        4.389914    6.741139   -2.703919
 ---------------------------------------------------------------------

 SCF Done:  E(RwB97XD) =  -4070.62210349     A.U. after   19 cycles

 Excitation energies and oscillator strengths:

 Excited State   1:      Singlet-A      1.6562 eV  748.62 nm  f=0.5196  <S**2>=0.000
     310 -> 316        0.18516
     311 -> 313        0.67425
     312 -> 314       -0.10148
     310 <- 316        0.11505
 This state for optimization and/or second-order correction.
 Total Energy, E(TD-HF/TD-DFT) =  -4070.56124043
 Copying the excited state density for this state as the 1-particle RhoCI density.

 Excited State   2:      Singlet-A      1.6820 eV  737.12 nm  f=0.2963  <S**2>=0.000
     309 -> 315        0.19570
     311 -> 313        0.10107
     312 -> 314        0.67305
     309 <- 315        0.11807

 Excited State   3:      Singlet-A      2.0780 eV  596.66 nm  f=0.1414  <S**2>=0.000
     310 -> 313        0.65628
     311 -> 316       -0.23990

 Excited State   4:      Singlet-A      2.1735 eV  570.44 nm  f=0.1002  <S**2>=0.000
     309 -> 314        0.63667
     312 -> 315       -0.29837

 Excited State   5:      Singlet-A      3.4019 eV  364.46 nm  f=0.0000  <S**2>=0.000
     312 -> 313        0.70664

 The electronic state is 1-A.
 Alpha  occ. eigenvalues --  -46.95637 -46.94610 -19.29127 -19.28822 -19.24974
 Alpha  occ. eigenvalues --  -19.24411 -19.24150 -19.23936 -19.23811 -19.23776
 Alpha  occ. eigenvalues --  -14.46951 -14.46899 -14.46485 -14.46193 -14.44076
 Alpha  occ. eigenvalues --  -14.44043 -14.43892 -14.42789 -10.42521 -10.42373
 Alpha  occ. eigenvalues --  -10.40177 -10.40161 -10.39120 -10.38441 -10.35703
 Alpha  occ. eigenvalues --  -10.35546 -10.34940 -10.34924 -10.34895 -10.34735
 Alpha  occ. eigenvalues --  -10.34674 -10.34590 -10.34564 -10.34396 -10.34128
 Alpha  occ. eigenvalues --  -10.33954 -10.33913 -10.33800 -10.33641 -10.32973
 Alpha  occ. eigenvalues --  -10.32905 -10.32878 -10.32859 -10.32729 -10.32707
 Alpha  occ. eigenvalues --  -10.32310 -10.32286 -10.32282 -10.32262 -10.32251
 Alpha  occ. eigenvalues --  -10.32206 -10.32169 -10.31949 -10.31927 -10.31836
 Alpha  occ. eigenvalues --  -10.31753 -10.31740 -10.31711 -10.31710 -10.31518
 Alpha  occ. eigenvalues --  -10.31468 -10.31341 -10.31310 -10.31233 -10.31174
 Alpha  occ. eigenvalues --  -10.30970 -10.30941 -10.30896 -10.30658 -10.30472
 Alpha  occ. eigenvalues --  -10.30383 -10.30286 -10.30204 -10.30036 -10.29988
 Alpha  occ. eigenvalues --  -10.29987 -10.29883 -10.29874 -10.29857 -10.29840
 Alpha  occ. eigenvalues --  -10.29721 -10.29654 -10.29310 -10.29111 -10.28812
 Alpha  occ. eigenvalues --  -10.28747  -3.21494  -3.20572  -1.95103  -1.94597
 Alpha  occ. eigenvalues --   -1.94473  -1.94161  -1.93691  -1.93550  -1.17674
 Alpha  occ. eigenvalues --   -1.17266  -1.13817  -1.11661  -1.11114  -1.10505
 Alpha  occ. eigenvalues --   -1.09305  -1.08844  -1.07531  -1.06460  -1.06375
 Alpha  occ. eigenvalues --   -1.05501  -1.05345  -1.04565  -1.04493  -1.03073
 Alpha  occ. eigenvalues --   -0.95420  -0.94070  -0.91043  -0.90680  -0.90454
 Alpha  occ. eigenvalues --   -0.90089  -0.90034  -0.89343  -0.89034  -0.88909
 Alpha  occ. eigenvalues --   -0.88719  -0.88406  -0.88074  -0.88037  -0.86183
 Alpha  occ. eigenvalues --   -0.86144  -0.85342  -0.85269  -0.84244  -0.84167
 Alpha  occ. eigenvalues --   -0.83887  -0.83451  -0.83049  -0.82964  -0.82181
 Alpha  occ. eigenvalues --   -0.82148  -0.80287  -0.80106  -0.79320  -0.79055
 Alpha  occ. eigenvalues --   -0.78961  -0.78773  -0.78031  -0.77840  -0.77017
 Alpha  occ. eigenvalues --   -0.76976  -0.74518  -0.74433  -0.73864  -0.73085
 Alpha  occ. eigenvalues --   -0.71742  -0.71187  -0.70483  -0.70435  -0.70081
 Alpha  occ. eigenvalues --   -0.69680  -0.68086  -0.67885  -0.67175  -0.67072
 Alpha  occ. eigenvalues --   -0.66728  -0.66644  -0.66459  -0.66425  -0.66160
 Alpha  occ. eigenvalues --   -0.65746  -0.63734  -0.63406  -0.62381  -0.61798
 Alpha  occ. eigenvalues --   -0.61792  -0.61091  -0.61087  -0.61049  -0.60709
 Alpha  occ. eigenvalues --   -0.60337  -0.60293  -0.59672  -0.59660  -0.59416
 Alpha  occ. eigenvalues --   -0.57933  -0.57830  -0.57435  -0.57395  -0.57139
 Alpha  occ. eigenvalues --   -0.57129  -0.56623  -0.56041  -0.55630  -0.55607
 Alpha  occ. eigenvalues --   -0.55296  -0.54872  -0.54823  -0.54813  -0.54633
 Alpha  occ. eigenvalues --   -0.54609  -0.54261  -0.54074  -0.54042  -0.53984
 Alpha  occ. eigenvalues --   -0.53910  -0.53559  -0.53517  -0.53477  -0.53259
 Alpha  occ. eigenvalues --   -0.52745  -0.52673  -0.52591  -0.52408  -0.52190
 Alpha  occ. eigenvalues --   -0.51653  -0.51634  -0.51532  -0.51509  -0.51321
 Alpha  occ. eigenvalues --   -0.51281  -0.50981  -0.50979  -0.50925  -0.50704
 Alpha  occ. eigenvalues --   -0.50463  -0.50164  -0.50163  -0.50037  -0.50017
 Alpha  occ. eigenvalues --   -0.49798  -0.49562  -0.49467  -0.49158  -0.49067
 Alpha  occ. eigenvalues --   -0.48794  -0.48690  -0.48402  -0.48297  -0.48199
 Alpha  occ. eigenvalues --   -0.48072  -0.48054  -0.47989  -0.47790  -0.47573
 Alpha  occ. eigenvalues --   -0.47434  -0.47205  -0.47051  -0.46950  -0.46577
 Alpha  occ. eigenvalues --   -0.46544  -0.46260  -0.46194  -0.46143  -0.45896
 Alpha  occ. eigenvalues --   -0.45826  -0.45749  -0.45605  -0.45575  -0.45337
 Alpha  occ. eigenvalues --   -0.45162  -0.44997  -0.44986  -0.44754  -0.44678
 Alpha  occ. eigenvalues --   -0.44484  -0.44285  -0.44225  -0.43934  -0.43582
 Alpha  occ. eigenvalues --   -0.43466  -0.43433  -0.43242  -0.43033  -0.42981
 Alpha  occ. eigenvalues --   -0.42837  -0.42811  -0.42657  -0.42528  -0.42178
 Alpha  occ. eigenvalues --   -0.42031  -0.41835  -0.41575  -0.41249  -0.40454
 Alpha  occ. eigenvalues --   -0.40324  -0.40252  -0.39780  -0.39655  -0.39614
 Alpha  occ. eigenvalues --   -0.39437  -0.38790  -0.38670  -0.38475  -0.38063
 Alpha  occ. eigenvalues --   -0.38014  -0.37700  -0.36354  -0.36329  -0.36141
 Alpha  occ. eigenvalues --   -0.35753  -0.35519  -0.35314  -0.33576  -0.33299
 Alpha  occ. eigenvalues --   -0.33116  -0.33045  -0.32959  -0.32805  -0.32274
 Alpha  occ. eigenvalues --   -0.32142  -0.31805  -0.30849  -0.25661  -0.25438
 Alpha  occ. eigenvalues --   -0.23122  -0.22848
 Alpha virt. eigenvalues --   -0.07287  -0.06775   0.00283   0.00604   0.02125
 Alpha virt. eigenvalues --    0.02634   0.04516   0.04581   0.05653   0.05908
 Alpha virt. eigenvalues --    0.07415   0.07433   0.07740   0.08107   0.08450

 Mulliken charges:
               1
     1  Mg   0.951092
     2  C   -0.080068
     3  C   -0.064493
     4  C   -0.054859
     5  C   -0.099837
     6  N   -0.357585
     7  C    0.029437
     8  C   -0.079150
     9  C   -0.110168
    10  C    0.090220
    11  C    0.022676
    12  C   -0.013520
    13  C   -0.098829
    14  H    0.035767
    15  N   -0.438767
    16  C    0.108655
    17  C   -0.179080
    18  C   -0.083725
    19  C    0.122574
    20  C    0.062347
    21  C    0.075950
    22  O   -0.250007
    23  C    0.010449
    24  N   -0.332148
    25  C    0.030914
    26  C   -0.062566
    27  C   -0.122809
    28  C    0.111060
    29  C    0.017289
    30  C   -0.023410
    31  C   -0.037689
    32  N   -0.390595
    33  C    0.092687
    34  C   -0.157254
    35  C   -0.058318
    36  C    0.195280
    37  C    0.082438
    38  C    0.129080
    39  O   -0.229600
    40  C   -0.055364
    41  C    0.260429
    42  O   -0.202253
    43  O   -0.416750
    44  C    0.130190
    45  H   -0.007836
    46  H    0.014913
    47  H   -0.000051
    48  H    0.042436
    49  H    0.031973
    50  H    0.044422
    51  H    0.033229
    52  H    0.039593
    53  H    0.033054
    54  H    0.032309
    55  H    0.042759
    56  H    0.053363
    57  H    0.042824
    58  H    0.051608
    59  H    0.048074
    60  H    0.054739
    61  H    0.026469
    62  H    0.075084
    63  H    0.037237
    64  H    0.035270
    65  H    0.033646
    66  H    0.050017
    67  H    0.045649
    68  H    0.038378
    69  H    0.020650
    70  H    0.037075
    71  H    0.048132
    72  H    0.024464
    73  H    0.023478
    74  H    0.065487
    75  H    0.063587
    76  H    0.069470
    77  H    0.066423
    78  H    0.053407
    79  H    0.068980
    80  Mg   0.959556
    81  C   -0.000874
    82  C   -0.090260
    83  C   -0.073864
    84  C   -0.086875
    85  N   -0.357086
    86  C   -0.011473
    87  C   -0.047770
    88  C   -0.148985
    89  C    0.067770
    90  C    0.032210
    91  C    0.017227
    92  C   -0.110713
    93  H    0.047110
    94  N   -0.477586
    95  C    0.165439
    96  C   -0.178471
    97  C   -0.089898
    98  C    0.129103
    99  C    0.057076
   100  C    0.082184
   101  O   -0.208395
   102  C   -0.022352
   103  N   -0.338041
   104  C    0.039764
   105  C   -0.081623
   106  C   -0.049156
   107  C    0.051078
   108  C    0.022583
   109  C   -0.042588
   110  C   -0.033381
   111  N   -0.449702
   112  C    0.141928
   113  C   -0.164998
   114  C   -0.034749
   115  C    0.132288
   116  C    0.085465
   117  C    0.093989
   118  O   -0.220385
   119  C   -0.058900
   120  C    0.274383
   121  O   -0.254621
   122  O   -0.379565
   123  C    0.128315
   124  H    0.001315
   125  H    0.020140
   126  H   -0.015691
   127  H    0.038921
   128  H    0.031047
   129  H    0.040032
   130  H    0.043114
   131  H    0.055551
   132  H    0.030882
   133  H    0.030774
   134  H    0.040334
   135  H    0.054062
   136  H    0.029074
   137  H    0.047957
   138  H    0.067705
   139  H    0.082061
   140  H    0.053792
   141  H    0.031685
   142  H    0.039725
   143  H    0.036269
   144  H    0.039928
   145  H    0.035672
   146  H    0.050998
   147  H    0.030220
   148  H    0.031301
   149  H    0.040408
   150  H    0.037136
   151  H    0.046447
   152  H    0.053013
   153  H    0.034731
   154  H    0.058343
   155  H    0.072846
   156  H    0.067066
   157  H    0.054254
   158  H    0.073727
 Sum of Mulliken charges =  -0.00000

 Dipole moment (field-independent basis, Debye):
    X=              3.2997    Y=              0.1516    Z=              6.8845  Tot=              7.6359
 Quadrupole moment (field-independent basis, Debye-Ang):
   XX=           -492.5155   YY=           -483.2800   ZZ=           -502.8664
   XY=             30.8059   XZ=             -2.7145   YZ=             46.7692

 Normal termination of Gaussian 16 at Sun Sep 19 13:19:33 2021.
