 Gaussian 16, Revision A.03,
 Gaussian 16:  ES64L-G16RevA.03 25-Dec-2016

 --------------------------------
 #p wB97XD/Def2SVP td=(nstates=5)
 --------------------------------

 --------------------------------
 TDDFT excited states in gaussian
 --------------------------------
 Symbolic Z-matrix:
 Charge =  0 Multiplicity = 1

                         Standard orientation:
 ---------------------------------------------------------------------
 Center     Atomic      Atomic             Coordinates (Angstroms)
 Number     Number       Type             X           Y           Z
 ---------------------------------------------------------------------
      1         12           0       24.745411   -0.641701    0.333425
      2          6           0       24.495802    2.210445   -1.496454
      3          6           0       24.647354    1.027635    3.351169
      4          6           0       25.205868   -3.622225    1.954482
      5          6           0       25.300747   -2.456317   -2.747103
      6          7           0       24.799606    1.390249    0.834915
      7          6           0       24.425227    2.424263   -0.087332
      8          6           0       24.050770    3.660016    0.628516
      9          6           0       24.519228    3.316013    2.113243
     10          6           0       24.682476    1.812851    2.151263
     11          6           0       25.889723    4.050234    2.531399
     12          6           0       22.581117    4.128786    0.398403
     13          6           0       22.411731    5.590187    0.133669
     14          1           0       23.321376    6.560613    0.985552
     15          7           0       24.832169   -1.226225    2.378755
     16          6           0       24.782640   -0.347276    3.419601
     17          6           0       24.854973   -1.104062    4.622215
     18          6           0       24.931992   -2.509404    4.275369
     19          6           0       24.921399   -2.545978    2.774565
     20          6           0       24.937275   -0.434512    6.011439
     21          6           0       24.968882   -3.764304    5.090359
     22          8           0       25.141548   -4.926132    4.705128
     23          6           0       24.703072   -3.569184    6.631041
     24          7           0       25.306996   -2.784932   -0.301824
     25          6           0       25.324198   -3.785612    0.543074
     26          6           0       25.342718   -5.141463   -0.159752
     27          6           0       25.372647   -4.746051   -1.663796
     28          6           0       25.342547   -3.221049   -1.583343
     29          6           0       26.591063   -6.071661    0.261249
     30          6           0       24.081831   -5.346659   -2.376737
     31          6           0       22.663721   -4.831987   -2.026610
     32          7           0       25.037247   -0.207563   -1.705584
     33          6           0       25.190974   -1.041853   -2.796703
     34          6           0       25.079664   -0.184480   -3.994329
     35          6           0       24.797726    1.090291   -3.604444
     36          6           0       24.785709    1.015049   -2.164358
     37          6           0       25.396481   -0.637803   -5.377771
     38          6           0       24.528770    2.465173   -4.025003
     39          8           0       24.476294    2.970573   -5.133718
     40          6           0       24.334157    3.229844   -2.642701
     41          6           0       25.410562    4.236807   -2.547627
     42          8           0       26.638472    4.053712   -2.616070
     43          8           0       24.738611    5.430064   -2.375948
     44          6           0       25.604576    6.575832   -2.068430
     45          1           0       24.566794    1.512643    4.326071
     46          1           0       25.229114   -4.548579    2.533353
     47          1           0       25.388336   -2.997857   -3.690642
     48          1           0       24.691992    4.427387    0.192988
     49          1           0       23.717722    3.606633    2.791701
     50          1           0       26.173250    4.861224    1.860572
     51          1           0       26.681429    3.317325    2.376642
     52          1           0       25.734762    4.291491    3.582190
     53          1           0       21.978711    3.890848    1.275144
     54          1           0       22.285826    3.559209   -0.482667
     55          1           0       21.415022    5.955121    0.378514
     56          1           0       22.499837    6.002470   -0.871592
     57          1           0       24.002009   -0.032967    6.401317
     58          1           0       25.712271    0.316580    5.859562
     59          1           0       25.179565   -1.137068    6.808529
     60          1           0       25.581704   -3.111271    7.085447
     61          1           0       24.323640   -4.510705    7.027698
     62          1           0       23.838414   -2.941981    6.848992
     63          1           0       24.406320   -5.655005    0.056968
     64          1           0       26.247287   -5.119521   -2.196441
     65          1           0       26.177958   -6.849691    0.904213
     66          1           0       27.316372   -5.491042    0.832176
     67          1           0       27.141358   -6.616484   -0.504790
     68          1           0       24.000879   -6.433059   -2.344808
     69          1           0       24.248099   -5.024250   -3.405118
     70          1           0       22.342422   -4.375575   -2.962958
     71          1           0       22.662417   -4.143126   -1.182808
     72          1           0       21.964043   -5.619762   -1.747490
     73          1           0       24.715263   -0.040973   -5.983484
     74          1           0       25.242566   -1.707668   -5.519716
     75          1           0       26.360365   -0.206717   -5.645141
     76          1           0       23.389372    3.730301   -2.853236
     77          1           0       24.898226    7.406168   -2.091939
     78          1           0       26.277058    6.676758   -2.920304
     79          1           0       26.234651    6.470804   -1.184970
     80         12           0      -25.367579   -0.500544   -0.260035
     81          6           0      -23.120007    2.233445   -0.276024
     82          6           0      -27.209614    1.151113    2.035221
     83          6           0      -27.336271   -3.115294   -0.184912
     84          6           0      -22.892442   -2.333339   -2.099166
     85          7           0      -25.149337    1.464956    0.877101
     86          6           0      -24.286639    2.472886    0.480108
     87          6           0      -24.756526    3.726429    1.135585
     88          6           0      -25.670949    3.255703    2.266985
     89          6           0      -26.088070    1.867251    1.720805
     90          6           0      -24.868116    3.103872    3.613132
     91          6           0      -25.494010    4.815537    0.185560
     92          6           0      -25.179455    6.335733    0.333599
     93          1           0      -25.230485    6.924774    1.773004
     94          7           0      -27.059131   -0.899476    0.824658
     95          6           0      -27.637737   -0.100755    1.672205
     96          6           0      -28.805882   -0.796971    2.238784
     97          6           0      -29.014499   -1.975461    1.460078
     98          6           0      -27.760376   -2.062400    0.659288
     99          6           0      -29.726979   -0.357700    3.434622
    100          6           0      -30.174405   -2.969440    1.410182
    101          8           0      -30.161953   -4.029271    0.755383
    102          6           0      -31.282725   -2.784153    2.334170
    103          7           0      -25.023888   -2.548802   -0.924979
    104          6           0      -26.100004   -3.430160   -0.862048
    105          6           0      -25.765211   -4.706658   -1.726176
    106          6           0      -24.424728   -4.333516   -2.406944
    107          6           0      -24.094263   -2.962803   -1.812101
    108          6           0      -25.804551   -6.003277   -0.916976
    109          6           0      -24.395823   -4.419531   -3.953743
    110          6           0      -23.115508   -4.974236   -4.620715
    111          7           0      -23.407729   -0.182656   -1.032217
    112          6           0      -22.514590   -1.013735   -1.701027
    113          6           0      -21.386818   -0.225128   -2.127864
    114          6           0      -21.557841    1.030580   -1.543147
    115          6           0      -22.816533    1.044324   -0.881233
    116          6           0      -20.342492   -0.629630   -2.974053
    117          6           0      -21.004002    2.386353   -1.412233
    118          8           0      -20.003020    2.920373   -1.863052
    119          6           0      -22.032043    3.231743   -0.591361
    120          6           0      -21.295954    3.791921    0.612637
    121          8           0      -21.026458    3.345823    1.704871
    122          8           0      -21.056740    5.076727    0.218667
    123          6           0      -20.651441    6.052814    1.258124
    124          1           0      -27.862143    1.708679    2.710902
    125          1           0      -28.114350   -3.873696   -0.293286
    126          1           0      -22.238097   -2.796144   -2.840231
    127          1           0      -23.983936    4.346862    1.590437
    128          1           0      -26.596909    3.827280    2.325332
    129          1           0      -25.456263    3.318239    4.504812
    130          1           0      -24.058564    3.827006    3.715131
    131          1           0      -24.577649    2.054405    3.647458
    132          1           0      -26.569028    4.639507    0.204653
    133          1           0      -25.281658    4.588687   -0.859872
    134          1           0      -26.017152    6.793722   -0.193590
    135          1           0      -24.202080    6.403765   -0.144175
    136          1           0      -30.743263   -0.074375    3.161711
    137          1           0      -29.236264    0.488380    3.916531
    138          1           0      -29.950292   -1.139551    4.160577
    139          1           0      -31.705289   -1.783445    2.240255
    140          1           0      -30.961377   -2.949351    3.362619
    141          1           0      -32.093925   -3.421148    1.982976
    142          1           0      -26.491297   -4.714501   -2.539234
    143          1           0      -23.606284   -4.917508   -1.986435
    144          1           0      -24.816451   -6.189441   -0.494853
    145          1           0      -26.006612   -6.898443   -1.504288
    146          1           0      -26.392706   -5.839419   -0.014625
    147          1           0      -24.670646   -3.491777   -4.455345
    148          1           0      -25.208340   -5.046314   -4.323698
    149          1           0      -22.561168   -4.081740   -4.911356
    150          1           0      -23.467811   -5.463185   -5.529531
    151          1           0      -22.567561   -5.602399   -3.918922
    152          1           0      -19.383879   -0.112214   -2.943488
    153          1           0      -20.747033   -0.636725   -3.986667
    154          1           0      -20.102864   -1.646775   -2.666178
    155          1           0      -22.438815    4.029851   -1.212104
    156          1           0      -21.234416    6.946246    1.036324
    157          1           0      -19.601031    6.342753    1.263693
    158          1           0      -20.937043    5.686487    2.243847
 ---------------------------------------------------------------------

 SCF Done:  E(RwB97XD) =  -4070.60003340     A.U. after   19 cycles

 Excitation energies and oscillator strengths:

 Excited State   1:      Singlet-A      1.6460 eV  753.24 nm  f=0.3771  <S**2>=0.000
     309 -> 315        0.19182
     312 -> 313        0.68167
     309 <- 315        0.11821
 This state for optimization and/or second-order correction.
 Total Energy, E(TD-HF/TD-DFT) =  -4070.53954327
 Copying the excited state density for this state as the 1-particle RhoCI density.

 Excited State   2:      Singlet-A      1.6743 eV  740.53 nm  f=0.3834  <S**2>=0.000
     310 -> 316       -0.19699
     311 -> 314        0.67925
     310 <- 316       -0.11759

 Excited State   3:      Singlet-A      2.2066 eV  561.87 nm  f=0.0668  <S**2>=0.000
     310 -> 314        0.62033
     311 -> 316        0.32390

 Excited State   4:      Singlet-A      2.2139 eV  560.04 nm  f=0.0448  <S**2>=0.000
     309 -> 313        0.60811
     312 -> 315       -0.34954

 Excited State   5:      Singlet-A      3.4060 eV  364.02 nm  f=0.1375  <S**2>=0.000
     308 -> 314        0.57091
     310 -> 314        0.13929
     311 -> 316       -0.36133

 The electronic state is 1-A.
 Alpha  occ. eigenvalues --  -46.95720 -46.95592 -19.30861 -19.29618 -19.25197
 Alpha  occ. eigenvalues --  -19.24986 -19.24581 -19.24574 -19.24315 -19.23740
 Alpha  occ. eigenvalues --  -14.46896 -14.46782 -14.46379 -14.46014 -14.44441
 Alpha  occ. eigenvalues --  -14.44110 -14.44061 -14.43569 -10.43365 -10.43100
 Alpha  occ. eigenvalues --  -10.39731 -10.39506 -10.39418 -10.38844 -10.36063
 Alpha  occ. eigenvalues --  -10.35811 -10.35788 -10.35570 -10.35214 -10.34887
 Alpha  occ. eigenvalues --  -10.34843 -10.34832 -10.34424 -10.34339 -10.34138
 Alpha  occ. eigenvalues --  -10.34056 -10.34004 -10.33962 -10.33847 -10.33663
 Alpha  occ. eigenvalues --  -10.33574 -10.33558 -10.33445 -10.33048 -10.32776
 Alpha  occ. eigenvalues --  -10.32445 -10.32388 -10.32211 -10.32167 -10.32004
 Alpha  occ. eigenvalues --  -10.31975 -10.31942 -10.31940 -10.31844 -10.31801
 Alpha  occ. eigenvalues --  -10.31652 -10.31648 -10.31629 -10.31594 -10.31593
 Alpha  occ. eigenvalues --  -10.31529 -10.31487 -10.31421 -10.31401 -10.31394
 Alpha  occ. eigenvalues --  -10.31361 -10.31311 -10.31264 -10.30778 -10.30580
 Alpha  occ. eigenvalues --  -10.30462 -10.30431 -10.30338 -10.30315 -10.30239
 Alpha  occ. eigenvalues --  -10.29932 -10.29751 -10.29716 -10.29643 -10.29574
 Alpha  occ. eigenvalues --  -10.29481 -10.29416 -10.29300 -10.29105 -10.28850
 Alpha  occ. eigenvalues --  -10.28733  -3.21565  -3.21450  -1.95148  -1.95040
 Alpha  occ. eigenvalues --   -1.94687  -1.94560  -1.94523  -1.94419  -1.18301
 Alpha  occ. eigenvalues --   -1.18119  -1.12416  -1.11861  -1.11838  -1.11593
 Alpha  occ. eigenvalues --   -1.09979  -1.09646  -1.07198  -1.07125  -1.05957
 Alpha  occ. eigenvalues --   -1.05775  -1.05060  -1.04949  -1.04103  -1.03727
 Alpha  occ. eigenvalues --   -0.94757  -0.94326  -0.91030  -0.90776  -0.90660
 Alpha  occ. eigenvalues --   -0.90377  -0.89896  -0.89889  -0.89499  -0.89197
 Alpha  occ. eigenvalues --   -0.89085  -0.88841  -0.88818  -0.88225  -0.86575
 Alpha  occ. eigenvalues --   -0.86149  -0.85494  -0.85273  -0.84623  -0.84417
 Alpha  occ. eigenvalues --   -0.84288  -0.83467  -0.83457  -0.83175  -0.82578
 Alpha  occ. eigenvalues --   -0.81925  -0.80357  -0.80044  -0.79383  -0.79277
 Alpha  occ. eigenvalues --   -0.79128  -0.78963  -0.77797  -0.77722  -0.77059
 Alpha  occ. eigenvalues --   -0.76911  -0.74506  -0.74439  -0.74164  -0.73800
 Alpha  occ. eigenvalues --   -0.71786  -0.71215  -0.70872  -0.70678  -0.70317
 Alpha  occ. eigenvalues --   -0.69706  -0.69442  -0.69336  -0.67439  -0.67296
 Alpha  occ. eigenvalues --   -0.67252  -0.66978  -0.66943  -0.66669  -0.66364
 Alpha  occ. eigenvalues --   -0.66337  -0.64503  -0.63949  -0.62497  -0.62320
 Alpha  occ. eigenvalues --   -0.61569  -0.61379  -0.61241  -0.60904  -0.60765
 Alpha  occ. eigenvalues --   -0.60301  -0.59928  -0.59907  -0.59507  -0.59480
 Alpha  occ. eigenvalues --   -0.58171  -0.57902  -0.57869  -0.57471  -0.57146
 Alpha  occ. eigenvalues --   -0.56939  -0.56901  -0.56416  -0.56363  -0.55651
 Alpha  occ. eigenvalues --   -0.55519  -0.55453  -0.55194  -0.55147  -0.55147
 Alpha  occ. eigenvalues --   -0.55116  -0.54887  -0.54344  -0.54302  -0.54194
 Alpha  occ. eigenvalues --   -0.54081  -0.54046  -0.53904  -0.53615  -0.53515
 Alpha  occ. eigenvalues --   -0.53448  -0.53163  -0.52982  -0.52834  -0.52729
 Alpha  occ. eigenvalues --   -0.52358  -0.51908  -0.51820  -0.51604  -0.51567
 Alpha  occ. eigenvalues --   -0.51340  -0.51221  -0.50943  -0.50888  -0.50743
 Alpha  occ. eigenvalues --   -0.50487  -0.50462  -0.50392  -0.50111  -0.50079
 Alpha  occ. eigenvalues --   -0.49614  -0.49582  -0.49323  -0.49306  -0.49171
 Alpha  occ. eigenvalues --   -0.49039  -0.48865  -0.48798  -0.48698  -0.48584
 Alpha  occ. eigenvalues --   -0.48202  -0.48121  -0.47869  -0.47768  -0.47507
 Alpha  occ. eigenvalues --   -0.47476  -0.47111  -0.46979  -0.46828  -0.46697
 Alpha  occ. eigenvalues --   -0.46617  -0.46483  -0.46314  -0.46012  -0.45849
 Alpha  occ. eigenvalues --   -0.45777  -0.45628  -0.45414  -0.45164  -0.44957
 Alpha  occ. eigenvalues --   -0.44937  -0.44902  -0.44871  -0.44725  -0.44698
 Alpha  occ. eigenvalues --   -0.44297  -0.44239  -0.44099  -0.44060  -0.44006
 Alpha  occ. eigenvalues --   -0.43931  -0.43866  -0.43604  -0.43513  -0.43437
 Alpha  occ. eigenvalues --   -0.43213  -0.42810  -0.42686  -0.42449  -0.42400
 Alpha  occ. eigenvalues --   -0.42135  -0.41774  -0.41682  -0.41493  -0.41397
 Alpha  occ. eigenvalues --   -0.40681  -0.39842  -0.39702  -0.39519  -0.39339
 Alpha  occ. eigenvalues --   -0.39094  -0.38709  -0.38585  -0.38484  -0.38348
 Alpha  occ. eigenvalues --   -0.38265  -0.37847  -0.36661  -0.36620  -0.36197
 Alpha  occ. eigenvalues --   -0.35925  -0.35711  -0.35323  -0.33695  -0.33418
 Alpha  occ. eigenvalues --   -0.33375  -0.33119  -0.32962  -0.32741  -0.32519
 Alpha  occ. eigenvalues --   -0.32446  -0.32083  -0.31433  -0.26345  -0.25901
 Alpha  occ. eigenvalues --   -0.22786  -0.22757
 Alpha virt. eigenvalues --   -0.06827  -0.06632  -0.00459  -0.00156   0.01810
 Alpha virt. eigenvalues --    0.01916   0.04231   0.04274   0.05009   0.05063
 Alpha virt. eigenvalues --    0.06943   0.07452   0.07811   0.07842   0.08031

 Mulliken charges:
               1
     1  Mg   0.932832
     2  C   -0.005091
     3  C   -0.105917
     4  C   -0.037147
     5  C   -0.077754
     6  N   -0.442473
     7  C   -0.001096
     8  C   -0.039693
     9  C   -0.136042
    10  C    0.130637
    11  C    0.033366
    12  C    0.069863
    13  C   -0.138318
    14  H    0.000465
    15  N   -0.460768
    16  C    0.169065
    17  C   -0.150509
    18  C   -0.078145
    19  C    0.134144
    20  C    0.056610
    21  C    0.061887
    22  O   -0.237570
    23  C   -0.054716
    24  N   -0.260767
    25  C    0.018083
    26  C   -0.075275
    27  C   -0.047593
    28  C    0.027336
    29  C   -0.001703
    30  C   -0.063231
    31  C   -0.056314
    32  N   -0.406691
    33  C    0.141284
    34  C   -0.240975
    35  C   -0.006263
    36  C    0.119972
    37  C    0.082654
    38  C    0.139138
    39  O   -0.194712
    40  C   -0.109344
    41  C    0.275686
    42  O   -0.259088
    43  O   -0.369969
    44  C    0.139905
    45  H    0.001501
    46  H    0.024213
    47  H    0.003041
    48  H    0.030694
    49  H    0.027197
    50  H    0.043606
    51  H    0.045648
    52  H    0.050282
    53  H    0.039616
    54  H    0.041791
    55  H    0.043932
    56  H    0.061512
    57  H    0.055379
    58  H    0.062193
    59  H    0.016817
    60  H    0.079271
    61  H    0.051758
    62  H    0.041986
    63  H    0.050167
    64  H    0.039060
    65  H    0.042694
    66  H    0.048629
    67  H    0.040713
    68  H    0.041659
    69  H    0.020576
    70  H    0.044579
    71  H    0.039794
    72  H    0.038705
    73  H    0.047145
    74  H    0.040302
    75  H    0.066237
    76  H    0.068464
    77  H    0.059499
    78  H    0.056213
    79  H    0.059364
    80  Mg   0.942069
    81  C   -0.051995
    82  C   -0.101208
    83  C   -0.067692
    84  C   -0.090827
    85  N   -0.320483
    86  C    0.052331
    87  C   -0.094517
    88  C   -0.080797
    89  C   -0.005848
    90  C    0.041940
    91  C   -0.020867
    92  C   -0.113908
    93  H    0.029602
    94  N   -0.428084
    95  C    0.194950
    96  C   -0.167268
    97  C   -0.071113
    98  C    0.113908
    99  C    0.058643
   100  C    0.067010
   101  O   -0.250743
   102  C   -0.004309
   103  N   -0.356207
   104  C    0.033270
   105  C   -0.062172
   106  C   -0.056354
   107  C    0.068490
   108  C    0.048406
   109  C   -0.039086
   110  C   -0.040913
   111  N   -0.439431
   112  C    0.135290
   113  C   -0.196845
   114  C   -0.015755
   115  C    0.167604
   116  C    0.061251
   117  C    0.109521
   118  O   -0.199685
   119  C   -0.077078
   120  C    0.279472
   121  O   -0.226453
   122  O   -0.373856
   123  C    0.131593
   124  H   -0.012438
   125  H    0.026182
   126  H   -0.012830
   127  H    0.024517
   128  H    0.020085
   129  H    0.029352
   130  H    0.045916
   131  H    0.057428
   132  H    0.021579
   133  H    0.024528
   134  H    0.065217
   135  H    0.071797
   136  H    0.043723
   137  H    0.041008
   138  H    0.041534
   139  H    0.037735
   140  H    0.075227
   141  H    0.054619
   142  H    0.039222
   143  H    0.033353
   144  H    0.015958
   145  H    0.046707
   146  H    0.047940
   147  H    0.025319
   148  H    0.022983
   149  H    0.043243
   150  H    0.039869
   151  H    0.045436
   152  H    0.059996
   153  H    0.054177
   154  H    0.037930
   155  H    0.081394
   156  H    0.047546
   157  H    0.063795
   158  H    0.058096
 Sum of Mulliken charges =  -0.00000

 Dipole moment (field-independent basis, Debye):
    X=             -7.1450    Y=              1.6627    Z=              3.6196  Tot=              8.1803
 Quadrupole moment (field-independent basis, Debye-Ang):
   XX=           -448.4280   YY=           -482.0435   ZZ=           -501.0994
   XY=            -36.6028   XZ=             81.0455   YZ=             51.7847

 Normal termination of Gaussian 16 at Sat Sep 18 09:50:10 2021.
