 Gaussian 16, Revision A.03,
 Gaussian 16:  ES64L-G16RevA.03 25-Dec-2016

 --------------------------------
 #p wB97XD/Def2SVP td=(nstates=5)
 --------------------------------

 --------------------------------
 TDDFT excited states in gaussian
 --------------------------------
 Symbolic Z-matrix:
 Charge =  0 Multiplicity = 1

                         Standard orientation:
 ---------------------------------------------------------------------
 Center     Atomic      Atomic             Coordinates (Angstroms)
 Number     Number       Type             X           Y           Z
 ---------------------------------------------------------------------
      1         12           0      -20.151245   -0.458227   -0.052653
      2          6           0      -19.525368    2.854076   -0.690388
      3          6           0      -19.417585    0.104142    3.249303
      4          6           0      -20.669713   -3.826388    0.591422
      5          6           0      -20.447508   -1.060455   -3.454110
      6          7           0      -19.478363    1.290766    1.181535
      7          6           0      -19.391315    2.552548    0.666021
      8          6           0      -19.052830    3.515542    1.698419
      9          6           0      -18.792576    2.693439    2.950791
     10          6           0      -19.216892    1.238827    2.465170
     11          6           0      -17.358931    2.717763    3.584834
     12          6           0      -20.173049    4.596947    1.872215
     13          6           0      -19.714171    6.038983    2.282011
     14          1           0      -18.417779    6.157662    3.107189
     15          7           0      -20.159265   -1.645732    1.727442
     16          6           0      -19.838566   -1.189345    2.994439
     17          6           0      -19.937754   -2.314392    3.946234
     18          6           0      -20.316729   -3.493983    3.171161
     19          6           0      -20.422787   -3.025247    1.778480
     20          6           0      -19.645343   -2.216290    5.434585
     21          6           0      -20.664236   -4.867982    3.694777
     22          8           0      -21.046095   -5.740049    2.894698
     23          6           0      -20.552869   -5.285141    5.113450
     24          7           0      -20.432177   -2.222771   -1.253475
     25          6           0      -20.670232   -3.433608   -0.741268
     26          6           0      -21.056265   -4.428006   -1.848911
     27          6           0      -21.247349   -3.506732   -3.173852
     28          6           0      -20.749360   -2.148526   -2.565532
     29          6           0      -19.995675   -5.563167   -1.988651
     30          6           0      -22.705540   -3.376177   -3.692934
     31          6           0      -22.993552   -4.046179   -5.044796
     32          7           0      -19.955040    0.625847   -1.781977
     33          6           0      -20.088596    0.251769   -3.121103
     34          6           0      -19.881203    1.423666   -4.000526
     35          6           0      -19.642590    2.440997   -3.046627
     36          6           0      -19.688595    1.908402   -1.730470
     37          6           0      -19.973995    1.496408   -5.444688
     38          6           0      -19.455416    3.899742   -2.904575
     39          8           0      -19.444134    4.786703   -3.716310
     40          6           0      -19.330712    4.203906   -1.369124
     41          6           0      -18.082458    4.949851   -1.142856
     42          8           0      -16.984480    4.378893   -1.242758
     43          8           0      -18.249258    6.224379   -0.694613
     44          6           0      -17.076236    6.970370   -0.250009
     45          1           0      -19.179098    0.316932    4.293483
     46          1           0      -20.793041   -4.889507    0.809389
     47          1           0      -20.675874   -1.271943   -4.500712
     48          1           0      -18.129919    4.014002    1.399988
     49          1           0      -19.543337    2.889386    3.717224
     50          1           0      -16.556286    3.328654    3.170431
     51          1           0      -16.991030    1.692499    3.616194
     52          1           0      -17.358072    2.963966    4.646951
     53          1           0      -20.942843    4.220748    2.546111
     54          1           0      -20.787312    4.612245    0.972107
     55          1           0      -20.507822    6.538767    2.838098
     56          1           0      -19.442557    6.656874    1.426639
     57          1           0      -19.476235   -1.195363    5.775208
     58          1           0      -18.734776   -2.758015    5.692064
     59          1           0      -20.536363   -2.471901    6.007758
     60          1           0      -20.960511   -6.294109    5.168234
     61          1           0      -21.082108   -4.627408    5.804178
     62          1           0      -19.515133   -5.199216    5.436117
     63          1           0      -22.057819   -4.787892   -1.613028
     64          1           0      -20.575195   -3.793652   -3.982471
     65          1           0      -20.428894   -6.563380   -2.001802
     66          1           0      -19.290688   -5.539703   -1.157214
     67          1           0      -19.457668   -5.307872   -2.901909
     68          1           0      -23.032975   -2.342928   -3.801958
     69          1           0      -23.426132   -3.791145   -2.987860
     70          1           0      -22.315414   -4.888234   -5.183734
     71          1           0      -22.797479   -3.315756   -5.829109
     72          1           0      -24.059442   -4.269961   -5.059151
     73          1           0      -20.115835    2.513951   -5.808143
     74          1           0      -20.773560    0.881225   -5.856952
     75          1           0      -18.985457    1.277832   -5.848831
     76          1           0      -20.229277    4.799728   -1.205321
     77          1           0      -16.363583    7.199777   -1.042690
     78          1           0      -16.604319    6.483779    0.603534
     79          1           0      -17.385566    7.952890    0.106116
     80         12           0       19.341534   -0.797406    0.062656
     81          6           0       21.504456    1.810953   -0.384741
     82          6           0       17.529606    0.972058    2.227887
     83          6           0       17.531538   -3.468849    0.520749
     84          6           0       21.676826   -2.761219   -1.779192
     85          7           0       19.593161    1.150305    0.986333
     86          6           0       20.387194    2.104413    0.439336
     87          6           0       19.964724    3.488664    0.849265
     88          6           0       18.853759    3.153772    1.923693
     89          6           0       18.685107    1.656464    1.782975
     90          6           0       19.174335    3.639626    3.357617
     91          6           0       19.522865    4.463833   -0.404209
     92          6           0       20.086242    5.892138   -0.457108
     93          1           0       20.541374    6.522716    0.896452
     94          7           0       17.718686   -1.128820    1.036138
     95          6           0       17.069111   -0.311372    1.905351
     96          6           0       15.964896   -0.954561    2.574863
     97          6           0       15.830771   -2.155850    1.946803
     98          6           0       17.124336   -2.333837    1.216839
     99          6           0       15.316505   -0.202219    3.722530
    100          6           0       14.727196   -3.218501    2.118603
    101          8           0       14.725026   -4.289813    1.558239
    102          6           0       13.650131   -2.824755    3.085801
    103          7           0       19.700389   -2.868683   -0.423655
    104          6           0       18.687202   -3.726033   -0.204640
    105          6           0       18.984619   -5.094317   -0.826002
    106          6           0       20.149482   -4.778471   -1.824553
    107          6           0       20.571426   -3.387904   -1.307315
    108          6           0       19.305157   -6.310706    0.143216
    109          6           0       19.757732   -4.675011   -3.346708
    110          6           0       18.738774   -3.693018   -3.862124
    111          7           0       21.179379   -0.599626   -0.993040
    112          6           0       22.071035   -1.477252   -1.618236
    113          6           0       23.258278   -0.774635   -2.121387
    114          6           0       23.073163    0.538424   -1.663299
    115          6           0       21.804236    0.553388   -1.003145
    116          6           0       24.373767   -1.317177   -2.977458
    117          6           0       23.619588    1.816369   -1.604045
    118          8           0       24.678243    2.290113   -1.986033
    119          6           0       22.540740    2.746535   -0.991317
    120          6           0       23.316118    3.522769    0.003340
    121          8           0       23.641709    3.125457    1.124660
    122          8           0       23.734876    4.712689   -0.517658
    123          6           0       24.757077    5.489991    0.190167
    124          1           0       16.856608    1.636201    2.774597
    125          1           0       16.946588   -4.388044    0.583116
    126          1           0       22.276880   -3.468818   -2.356428
    127          1           0       20.756647    3.980419    1.414290
    128          1           0       17.907151    3.582163    1.594992
    129          1           0       19.492616    2.785893    3.955771
    130          1           0       18.261976    4.042835    3.797103
    131          1           0       19.974461    4.373909    3.263429
    132          1           0       18.435371    4.510136   -0.345371
    133          1           0       19.831861    4.027748   -1.353657
    134          1           0       19.314441    6.588960   -0.782923
    135          1           0       20.865150    5.953169   -1.217064
    136          1           0       15.974776    0.018291    4.563007
    137          1           0       14.559942   -0.683798    4.341754
    138          1           0       14.902652    0.657220    3.195054
    139          1           0       13.198777   -1.876738    2.794107
    140          1           0       14.183407   -2.856797    4.035676
    141          1           0       12.760571   -3.448703    3.164526
    142          1           0       18.032630   -5.327768   -1.304110
    143          1           0       20.974283   -5.463034   -1.625379
    144          1           0       19.251752   -5.973161    1.177979
    145          1           0       20.343934   -6.622353    0.040689
    146          1           0       18.700399   -7.209416    0.012780
    147          1           0       19.440391   -5.703839   -3.518649
    148          1           0       20.619856   -4.469184   -3.980318
    149          1           0       18.232462   -3.218161   -3.020715
    150          1           0       17.969633   -4.207551   -4.437927
    151          1           0       19.122994   -2.851054   -4.437601
    152          1           0       25.303328   -1.436107   -2.422562
    153          1           0       24.535620   -0.659386   -3.831567
    154          1           0       24.027193   -2.322082   -3.219906
    155          1           0       22.037617    3.342837   -1.752717
    156          1           0       25.321192    6.137387   -0.482253
    157          1           0       25.354463    4.868371    0.855361
    158          1           0       24.330457    6.159632    0.936721
 ---------------------------------------------------------------------

 SCF Done:  E(RwB97XD) =  -4070.64133034     A.U. after   19 cycles

 Excitation energies and oscillator strengths:

 Excited State   1:      Singlet-A      1.6696 eV  742.58 nm  f=0.3839  <S**2>=0.000
     309 -> 315        0.19473
     311 -> 313        0.68025
     309 <- 315        0.11869
 This state for optimization and/or second-order correction.
 Total Energy, E(TD-HF/TD-DFT) =  -4070.57997185
 Copying the excited state density for this state as the 1-particle RhoCI density.

 Excited State   2:      Singlet-A      1.7217 eV  720.12 nm  f=0.3769  <S**2>=0.000
     310 -> 316       -0.19588
     312 -> 314        0.67980
     310 <- 316       -0.11419

 Excited State   3:      Singlet-A      2.1969 eV  564.37 nm  f=0.0824  <S**2>=0.000
     309 -> 313        0.62406
     311 -> 315       -0.31821

 Excited State   4:      Singlet-A      2.2242 eV  557.42 nm  f=0.0567  <S**2>=0.000
     310 -> 314        0.61467
     312 -> 316        0.33871

 Excited State   5:      Singlet-A      3.4243 eV  362.07 nm  f=0.1900  <S**2>=0.000
     308 -> 313        0.53355
     309 -> 313        0.16246
     311 -> 315        0.41044

 The electronic state is 1-A.
 Alpha  occ. eigenvalues --  -46.95262 -46.94297 -19.31231 -19.29114 -19.24980
 Alpha  occ. eigenvalues --  -19.24302 -19.24127 -19.23445 -19.23268 -19.22674
 Alpha  occ. eigenvalues --  -14.46446 -14.46328 -14.46277 -14.45629 -14.44635
 Alpha  occ. eigenvalues --  -14.44159 -14.43867 -14.43315 -10.43461 -10.42086
 Alpha  occ. eigenvalues --  -10.39949 -10.38971 -10.38911 -10.37511 -10.36117
 Alpha  occ. eigenvalues --  -10.34959 -10.34930 -10.34730 -10.34704 -10.34613
 Alpha  occ. eigenvalues --  -10.34459 -10.34444 -10.34378 -10.34285 -10.34228
 Alpha  occ. eigenvalues --  -10.34159 -10.34110 -10.33989 -10.33381 -10.33331
 Alpha  occ. eigenvalues --  -10.33110 -10.32985 -10.32896 -10.32714 -10.32657
 Alpha  occ. eigenvalues --  -10.32557 -10.32369 -10.32099 -10.32005 -10.32002
 Alpha  occ. eigenvalues --  -10.31985 -10.31931 -10.31901 -10.31882 -10.31739
 Alpha  occ. eigenvalues --  -10.31714 -10.31695 -10.31637 -10.31594 -10.31527
 Alpha  occ. eigenvalues --  -10.31470 -10.31468 -10.31378 -10.31369 -10.31347
 Alpha  occ. eigenvalues --  -10.31293 -10.31070 -10.30567 -10.30563 -10.30407
 Alpha  occ. eigenvalues --  -10.30177 -10.30137 -10.30006 -10.29971 -10.29966
 Alpha  occ. eigenvalues --  -10.29963 -10.29898 -10.29898 -10.29729 -10.29610
 Alpha  occ. eigenvalues --  -10.29397 -10.29353 -10.29192 -10.29001 -10.28998
 Alpha  occ. eigenvalues --  -10.28046  -3.21131  -3.20556  -1.94742  -1.94237
 Alpha  occ. eigenvalues --   -1.94117  -1.94107  -1.93700  -1.93567  -1.18658
 Alpha  occ. eigenvalues --   -1.16993  -1.13771  -1.13228  -1.11202  -1.11171
 Alpha  occ. eigenvalues --   -1.09355  -1.08087  -1.07635  -1.07154  -1.06747
 Alpha  occ. eigenvalues --   -1.06101  -1.06096  -1.05434  -1.05004  -1.03044
 Alpha  occ. eigenvalues --   -0.94493  -0.94301  -0.91598  -0.91050  -0.90344
 Alpha  occ. eigenvalues --   -0.90205  -0.89884  -0.89844  -0.89630  -0.89384
 Alpha  occ. eigenvalues --   -0.89166  -0.88698  -0.88475  -0.88248  -0.86281
 Alpha  occ. eigenvalues --   -0.85925  -0.85487  -0.85465  -0.84628  -0.84488
 Alpha  occ. eigenvalues --   -0.84246  -0.83828  -0.83193  -0.82983  -0.82549
 Alpha  occ. eigenvalues --   -0.82475  -0.81002  -0.80442  -0.79528  -0.79368
 Alpha  occ. eigenvalues --   -0.79282  -0.78885  -0.78189  -0.77621  -0.77129
 Alpha  occ. eigenvalues --   -0.76857  -0.74635  -0.74606  -0.73658  -0.73527
 Alpha  occ. eigenvalues --   -0.71550  -0.71207  -0.71002  -0.70303  -0.70115
 Alpha  occ. eigenvalues --   -0.70058  -0.69307  -0.68963  -0.67815  -0.67377
 Alpha  occ. eigenvalues --   -0.67336  -0.67086  -0.66897  -0.66740  -0.66369
 Alpha  occ. eigenvalues --   -0.65738  -0.64751  -0.63687  -0.63151  -0.61876
 Alpha  occ. eigenvalues --   -0.61603  -0.61282  -0.61258  -0.61255  -0.60755
 Alpha  occ. eigenvalues --   -0.60254  -0.59868  -0.59783  -0.59521  -0.59316
 Alpha  occ. eigenvalues --   -0.58319  -0.58081  -0.57873  -0.57391  -0.57225
 Alpha  occ. eigenvalues --   -0.57082  -0.56713  -0.56577  -0.56391  -0.55955
 Alpha  occ. eigenvalues --   -0.55586  -0.55435  -0.55110  -0.54915  -0.54765
 Alpha  occ. eigenvalues --   -0.54584  -0.54553  -0.54381  -0.54328  -0.54186
 Alpha  occ. eigenvalues --   -0.54167  -0.53593  -0.53587  -0.53450  -0.53275
 Alpha  occ. eigenvalues --   -0.53185  -0.53110  -0.52525  -0.52410  -0.52170
 Alpha  occ. eigenvalues --   -0.52125  -0.51949  -0.51848  -0.51484  -0.51333
 Alpha  occ. eigenvalues --   -0.51248  -0.51001  -0.50969  -0.50709  -0.50494
 Alpha  occ. eigenvalues --   -0.50477  -0.50419  -0.50055  -0.50007  -0.49931
 Alpha  occ. eigenvalues --   -0.49890  -0.49707  -0.49444  -0.49197  -0.49102
 Alpha  occ. eigenvalues --   -0.49086  -0.48736  -0.48681  -0.48569  -0.48422
 Alpha  occ. eigenvalues --   -0.48221  -0.47851  -0.47667  -0.47610  -0.47485
 Alpha  occ. eigenvalues --   -0.47390  -0.47195  -0.47135  -0.46882  -0.46759
 Alpha  occ. eigenvalues --   -0.46511  -0.46444  -0.46294  -0.46066  -0.45796
 Alpha  occ. eigenvalues --   -0.45795  -0.45756  -0.45597  -0.45498  -0.45437
 Alpha  occ. eigenvalues --   -0.45131  -0.45061  -0.44996  -0.44832  -0.44790
 Alpha  occ. eigenvalues --   -0.44583  -0.44365  -0.44112  -0.44057  -0.43835
 Alpha  occ. eigenvalues --   -0.43772  -0.43500  -0.43413  -0.43174  -0.43146
 Alpha  occ. eigenvalues --   -0.42973  -0.42876  -0.42683  -0.42620  -0.42441
 Alpha  occ. eigenvalues --   -0.42281  -0.41902  -0.41484  -0.41448  -0.41104
 Alpha  occ. eigenvalues --   -0.40370  -0.40123  -0.40086  -0.39461  -0.39241
 Alpha  occ. eigenvalues --   -0.39019  -0.38817  -0.38746  -0.38411  -0.38298
 Alpha  occ. eigenvalues --   -0.37972  -0.37132  -0.36331  -0.36062  -0.35959
 Alpha  occ. eigenvalues --   -0.35429  -0.35403  -0.34940  -0.34630  -0.33400
 Alpha  occ. eigenvalues --   -0.33317  -0.32931  -0.32922  -0.32740  -0.32269
 Alpha  occ. eigenvalues --   -0.32054  -0.31852  -0.31738  -0.25836  -0.25754
 Alpha  occ. eigenvalues --   -0.22644  -0.22421
 Alpha virt. eigenvalues --   -0.06692  -0.06158   0.00146   0.00163   0.02307
 Alpha virt. eigenvalues --    0.02550   0.04591   0.04647   0.05883   0.06082
 Alpha virt. eigenvalues --    0.06568   0.07577   0.07899   0.08497   0.08626

 Mulliken charges:
               1
     1  Mg   0.952706
     2  C   -0.029901
     3  C   -0.087556
     4  C   -0.053652
     5  C   -0.079094
     6  N   -0.317192
     7  C   -0.009054
     8  C   -0.054173
     9  C   -0.041532
    10  C   -0.009043
    11  C    0.020001
    12  C    0.021230
    13  C   -0.115150
    14  H    0.015553
    15  N   -0.461453
    16  C    0.197275
    17  C   -0.169556
    18  C   -0.061175
    19  C    0.119909
    20  C    0.061123
    21  C    0.038505
    22  O   -0.262791
    23  C    0.013377
    24  N   -0.333149
    25  C    0.064115
    26  C   -0.091898
    27  C   -0.098967
    28  C    0.041455
    29  C    0.031131
    30  C   -0.015256
    31  C   -0.053806
    32  N   -0.449368
    33  C    0.129868
    34  C   -0.162278
    35  C   -0.055509
    36  C    0.145181
    37  C    0.075967
    38  C    0.096381
    39  O   -0.183892
    40  C   -0.042265
    41  C    0.280484
    42  O   -0.276066
    43  O   -0.352415
    44  C    0.141041
    45  H   -0.023868
    46  H    0.028215
    47  H   -0.002388
    48  H    0.045994
    49  H    0.034470
    50  H    0.048822
    51  H    0.031111
    52  H    0.026847
    53  H    0.018645
    54  H    0.024829
    55  H    0.055099
    56  H    0.067014
    57  H    0.025617
    58  H    0.064186
    59  H    0.051472
    60  H    0.063710
    61  H    0.041644
    62  H    0.053075
    63  H    0.040584
    64  H    0.038368
    65  H    0.048273
    66  H    0.046040
    67  H    0.029717
    68  H    0.031767
    69  H    0.025752
    70  H    0.040600
    71  H    0.032177
    72  H    0.041573
    73  H    0.049776
    74  H    0.047539
    75  H    0.057484
    76  H    0.066968
    77  H    0.067191
    78  H    0.052448
    79  H    0.050134
    80  Mg   0.992778
    81  C    0.011042
    82  C   -0.117786
    83  C   -0.080903
    84  C   -0.116912
    85  N   -0.330633
    86  C   -0.016886
    87  C   -0.037156
    88  C   -0.153970
    89  C    0.076286
    90  C    0.047337
    91  C    0.007229
    92  C   -0.126008
    93  H    0.026389
    94  N   -0.509557
    95  C    0.180024
    96  C   -0.131388
    97  C   -0.119608
    98  C    0.182816
    99  C    0.046208
   100  C    0.071593
   101  O   -0.201853
   102  C   -0.025093
   103  N   -0.321338
   104  C    0.020865
   105  C   -0.085983
   106  C   -0.050173
   107  C   -0.008409
   108  C    0.024209
   109  C   -0.010759
   110  C   -0.046786
   111  N   -0.398673
   112  C    0.159963
   113  C   -0.187024
   114  C    0.034851
   115  C    0.091449
   116  C    0.104693
   117  C    0.050727
   118  O   -0.214276
   119  C   -0.074753
   120  C    0.264462
   121  O   -0.268188
   122  O   -0.355809
   123  C    0.151831
   124  H   -0.008481
   125  H    0.016529
   126  H   -0.010525
   127  H    0.043096
   128  H    0.031889
   129  H    0.045721
   130  H    0.038565
   131  H    0.045926
   132  H    0.033236
   133  H    0.041166
   134  H    0.049119
   135  H    0.062497
   136  H    0.060504
   137  H    0.029713
   138  H    0.066583
   139  H    0.061482
   140  H    0.069356
   141  H    0.048044
   142  H    0.035070
   143  H    0.029202
   144  H    0.038284
   145  H    0.025915
   146  H    0.050247
   147  H    0.032288
   148  H    0.032300
   149  H    0.028525
   150  H    0.041191
   151  H    0.043842
   152  H    0.059445
   153  H    0.063956
   154  H    0.019689
   155  H    0.072677
   156  H    0.061562
   157  H    0.057154
   158  H    0.029407
 Sum of Mulliken charges =  -0.00000

 Dipole moment (field-independent basis, Debye):
    X=             -6.7438    Y=              0.9985    Z=              4.4718  Tot=              8.1531
 Quadrupole moment (field-independent basis, Debye-Ang):
   XX=           -687.2089   YY=           -499.8099   ZZ=           -473.6439
   XY=            -19.9728   XZ=            -51.1652   YZ=             35.7332

 Normal termination of Gaussian 16 at Sun Sep 19 21:47:27 2021.
