 Gaussian 16, Revision A.03,
 Gaussian 16:  ES64L-G16RevA.03 25-Dec-2016

 --------------------------------
 #p wB97XD/Def2SVP td=(nstates=5)
 --------------------------------

 --------------------------------
 TDDFT excited states in gaussian
 --------------------------------
 Symbolic Z-matrix:
 Charge =  0 Multiplicity = 1

                         Standard orientation:
 ---------------------------------------------------------------------
 Center     Atomic      Atomic             Coordinates (Angstroms)
 Number     Number       Type             X           Y           Z
 ---------------------------------------------------------------------
      1         12           0      -30.291163   -0.544884    0.598573
      2          6           0      -30.546356    2.388521   -1.473192
      3          6           0      -28.386092   -1.924287   -1.875653
      4          6           0      -30.313321   -3.376401    2.396763
      5          6           0      -32.588057    0.845941    2.682091
      6          7           0      -29.491165    0.231257   -1.502680
      7          6           0      -29.725303    1.464401   -2.038372
      8          6           0      -28.872599    1.586043   -3.243958
      9          6           0      -28.278042    0.168471   -3.470585
     10          6           0      -28.753996   -0.650150   -2.239406
     11          6           0      -28.795307   -0.474646   -4.796592
     12          6           0      -27.822627    2.667956   -3.201782
     13          6           0      -27.066925    3.018312   -4.473437
     14          1           0      -26.986805    4.443994   -4.826907
     15          7           0      -29.384034   -2.329479    0.356361
     16          6           0      -28.697048   -2.761382   -0.811670
     17          6           0      -28.141314   -4.092175   -0.502212
     18          6           0      -28.775045   -4.508073    0.665827
     19          6           0      -29.596801   -3.391897    1.167848
     20          6           0      -27.228888   -4.807771   -1.476325
     21          6           0      -28.639634   -5.836995    1.440136
     22          8           0      -29.413906   -6.199374    2.345623
     23          6           0      -27.497793   -6.699974    1.086850
     24          7           0      -31.360823   -1.235354    2.292206
     25          6           0      -31.225237   -2.403705    2.885233
     26          6           0      -32.149722   -2.580218    4.121048
     27          6           0      -32.649381   -1.145866    4.307267
     28          6           0      -32.141389   -0.462184    3.058569
     29          6           0      -33.306145   -3.596624    3.834736
     30          6           0      -32.219573   -0.430323    5.568078
     31          6           0      -33.295763    0.397216    6.293067
     32          7           0      -31.266842    1.266489    0.650031
     33          6           0      -32.178987    1.685137    1.593954
     34          6           0      -32.630189    3.084865    1.330442
     35          6           0      -31.993282    3.307376    0.126234
     36          6           0      -31.235961    2.202522   -0.281267
     37          6           0      -33.410305    3.997622    2.221112
     38          6           0      -31.833580    4.324472   -0.902592
     39          8           0      -32.297145    5.459261   -0.910676
     40          6           0      -30.883766    3.785638   -1.996832
     41          6           0      -31.550040    3.995703   -3.256784
     42          8           0      -32.499175    3.324860   -3.729261
     43          8           0      -30.896940    4.944825   -3.982796
     44          6           0      -31.238854    5.108756   -5.378834
     45          1           0      -27.705790   -2.347095   -2.617518
     46          1           0      -30.454556   -4.338998    2.892348
     47          1           0      -33.475272    1.097163    3.266736
     48          1           0      -29.596733    1.807346   -4.026927
     49          1           0      -27.189262    0.177809   -3.524188
     50          1           0      -28.138335   -0.906921   -5.551989
     51          1           0      -29.332126    0.335404   -5.290043
     52          1           0      -29.600801   -1.199398   -4.675199
     53          1           0      -27.004196    2.397257   -2.534490
     54          1           0      -28.158965    3.540517   -2.642455
     55          1           0      -27.520559    2.533298   -5.336476
     56          1           0      -26.019251    2.826745   -4.242983
     57          1           0      -27.486720   -5.852872   -1.646488
     58          1           0      -26.174951   -4.778246   -1.200577
     59          1           0      -27.253423   -4.422226   -2.495865
     60          1           0      -26.590281   -6.096542    1.111215
     61          1           0      -27.737708   -6.991589    0.064945
     62          1           0      -27.409223   -7.432913    1.887913
     63          1           0      -31.503314   -2.905995    4.936704
     64          1           0      -33.729405   -1.005969    4.271750
     65          1           0      -34.276745   -3.102331    3.805820
     66          1           0      -33.385790   -4.339480    4.628430
     67          1           0      -33.078649   -4.021548    2.856974
     68          1           0      -31.359632    0.215610    5.393836
     69          1           0      -31.697847   -1.198227    6.138320
     70          1           0      -33.019569    0.412927    7.346928
     71          1           0      -34.310975    0.065445    6.073237
     72          1           0      -33.172897    1.365697    5.808704
     73          1           0      -32.802868    4.724314    2.760915
     74          1           0      -34.042797    3.341195    2.818059
     75          1           0      -34.196116    4.479056    1.637704
     76          1           0      -30.061521    4.500925   -2.014116
     77          1           0      -31.932437    4.362852   -5.767910
     78          1           0      -30.338939    5.190117   -5.987838
     79          1           0      -31.729868    6.063375   -5.569604
     80         12           0       30.979050    0.639125   -0.178957
     81          6           0       28.412777   -1.786630   -0.792440
     82          6           0       28.599637    2.420925    1.740068
     83          6           0       33.490121    2.498640    1.044570
     84          6           0       33.265365   -1.574495   -1.515380
     85          7           0       28.735175    0.372273    0.415648
     86          6           0       27.997772   -0.715930    0.041175
     87          6           0       26.698930   -0.748064    0.831001
     88          6           0       26.717698    0.741011    1.376609
     89          6           0       28.089909    1.270045    1.200039
     90          6           0       25.687394    1.744497    0.757954
     91          6           0       26.714636   -1.938660    1.842620
     92          6           0       25.438163   -2.864607    1.991015
     93          1           0       24.704781   -2.941806    3.342148
     94          7           0       31.051360    2.290879    0.999520
     95          6           0       29.977694    2.903515    1.698016
     96          6           0       30.440192    4.081542    2.408298
     97          6           0       31.879338    4.084550    2.199947
     98          6           0       32.172086    2.926302    1.376603
     99          6           0       29.537423    4.885123    3.248198
    100          6           0       32.801317    5.176201    2.770567
    101          8           0       32.255245    6.029996    3.528661
    102          6           0       34.313834    5.307487    2.492453
    103          7           0       33.148077    0.399748    0.034034
    104          6           0       33.955820    1.372397    0.410640
    105          6           0       35.366894    0.908022    0.246133
    106          6           0       35.246523   -0.367693   -0.629758
    107          6           0       33.767141   -0.600915   -0.650203
    108          6           0       36.471118    1.905931   -0.308982
    109          6           0       36.067712   -1.651816   -0.095334
    110          6           0       37.230976   -2.196972   -0.959665
    111          7           0       30.892182   -1.152135   -1.149610
    112          6           0       31.876768   -1.928349   -1.633005
    113          6           0       31.365867   -3.112268   -2.220542
    114          6           0       29.996978   -3.064673   -1.946797
    115          6           0       29.745251   -1.859058   -1.244382
    116          6           0       32.040151   -4.195275   -2.962625
    117          6           0       28.810208   -3.845538   -2.113815
    118          8           0       28.696467   -4.949646   -2.597091
    119          6           0       27.659432   -3.001369   -1.271203
    120          6           0       26.558562   -2.628459   -2.167460
    121          8           0       26.684687   -2.183473   -3.315327
    122          8           0       25.390145   -2.843564   -1.468139
    123          6           0       24.145936   -2.540648   -2.173467
    124          1           0       27.912289    3.017338    2.341966
    125          1           0       34.347594    3.001681    1.495611
    126          1           0       33.908346   -2.192200   -2.146126
    127          1           0       25.895644   -0.779505    0.094452
    128          1           0       26.602965    0.510230    2.436353
    129          1           0       26.255026    2.584362    0.354751
    130          1           0       24.986081    2.165460    1.478067
    131          1           0       25.119054    1.370992   -0.094406
    132          1           0       26.875120   -1.381145    2.765132
    133          1           0       27.558669   -2.623064    1.760199
    134          1           0       25.781261   -3.854824    1.691819
    135          1           0       24.756584   -2.631755    1.173453
    136          1           0       29.050295    4.185877    3.928208
    137          1           0       28.740910    5.309509    2.637350
    138          1           0       29.949983    5.762430    3.747110
    139          1           0       34.823673    4.504834    3.025545
    140          1           0       34.516337    6.369191    2.629554
    141          1           0       34.374480    5.127116    1.418663
    142          1           0       35.730497    0.664270    1.243604
    143          1           0       35.483882    0.021584   -1.619902
    144          1           0       37.400519    1.553837    0.139318
    145          1           0       36.200944    2.919239   -0.012216
    146          1           0       36.496174    1.766747   -1.389909
    147          1           0       35.295167   -2.408238    0.041882
    148          1           0       36.383919   -1.433868    0.924687
    149          1           0       37.174501   -3.273868   -1.112729
    150          1           0       38.172897   -1.940819   -0.473895
    151          1           0       37.320197   -1.710513   -1.931183
    152          1           0       31.335306   -4.780290   -3.552581
    153          1           0       32.427739   -4.738783   -2.100760
    154          1           0       32.960750   -3.791057   -3.383393
    155          1           0       27.368685   -3.527494   -0.362645
    156          1           0       24.106610   -3.025396   -3.149219
    157          1           0       24.035011   -1.460312   -2.277588
    158          1           0       23.311443   -2.926492   -1.587887
 ---------------------------------------------------------------------

 SCF Done:  E(RwB97XD) =  -4070.59957875     A.U. after   20 cycles

 Excitation energies and oscillator strengths:

 Excited State   1:      Singlet-A      1.6376 eV  757.10 nm  f=0.3872  <S**2>=0.000
     309 -> 316       -0.19098
     311 -> 313        0.68326
     309 <- 316       -0.12122
 This state for optimization and/or second-order correction.
 Total Energy, E(TD-HF/TD-DFT) =  -4070.53939771
 Copying the excited state density for this state as the 1-particle RhoCI density.

 Excited State   2:      Singlet-A      1.6935 eV  732.13 nm  f=0.3776  <S**2>=0.000
     310 -> 315       -0.20455
     312 -> 314        0.67932
     310 <- 315       -0.12255

 Excited State   3:      Singlet-A      2.1989 eV  563.85 nm  f=0.1291  <S**2>=0.000
     309 -> 313        0.63865
     311 -> 316        0.29225

 Excited State   4:      Singlet-A      2.2627 eV  547.96 nm  f=0.0703  <S**2>=0.000
     310 -> 314        0.61592
     312 -> 315        0.33993

 Excited State   5:      Singlet-A      3.3069 eV  374.92 nm  f=0.0054  <S**2>=0.000
     308 -> 313        0.66957
     308 -> 317        0.10682

 The electronic state is 1-A.
 Alpha  occ. eigenvalues --  -46.95266 -46.94855 -19.31525 -19.30416 -19.25544
 Alpha  occ. eigenvalues --  -19.24830 -19.24088 -19.23834 -19.23685 -19.23198
 Alpha  occ. eigenvalues --  -14.46563 -14.46484 -14.45985 -14.45719 -14.44571
 Alpha  occ. eigenvalues --  -14.44440 -14.44401 -14.44202 -10.43970 -10.43008
 Alpha  occ. eigenvalues --  -10.39514 -10.39264 -10.39234 -10.38491 -10.36217
 Alpha  occ. eigenvalues --  -10.35230 -10.34965 -10.34803 -10.34801 -10.34690
 Alpha  occ. eigenvalues --  -10.34615 -10.34596 -10.34570 -10.34472 -10.34450
 Alpha  occ. eigenvalues --  -10.34414 -10.34408 -10.34341 -10.34095 -10.33790
 Alpha  occ. eigenvalues --  -10.33208 -10.33114 -10.32978 -10.32805 -10.32735
 Alpha  occ. eigenvalues --  -10.32548 -10.32387 -10.32271 -10.32180 -10.32150
 Alpha  occ. eigenvalues --  -10.32045 -10.32028 -10.31866 -10.31731 -10.31687
 Alpha  occ. eigenvalues --  -10.31648 -10.31638 -10.31575 -10.31561 -10.31507
 Alpha  occ. eigenvalues --  -10.31456 -10.31442 -10.31267 -10.31251 -10.31208
 Alpha  occ. eigenvalues --  -10.31123 -10.31122 -10.31041 -10.30974 -10.30683
 Alpha  occ. eigenvalues --  -10.30574 -10.30495 -10.30296 -10.30236 -10.30143
 Alpha  occ. eigenvalues --  -10.30100 -10.29972 -10.29911 -10.29855 -10.29849
 Alpha  occ. eigenvalues --  -10.29847 -10.29777 -10.29572 -10.28996 -10.28655
 Alpha  occ. eigenvalues --  -10.28634  -3.21262  -3.20891  -1.94841  -1.94492
 Alpha  occ. eigenvalues --   -1.94374  -1.94247  -1.94009  -1.93873  -1.18748
 Alpha  occ. eigenvalues --   -1.18321  -1.13104  -1.11725  -1.11290  -1.10392
 Alpha  occ. eigenvalues --   -1.09470  -1.08168  -1.07780  -1.07485  -1.06772
 Alpha  occ. eigenvalues --   -1.06627  -1.05770  -1.05098  -1.04411  -1.04245
 Alpha  occ. eigenvalues --   -0.95179  -0.95170  -0.91961  -0.91260  -0.91199
 Alpha  occ. eigenvalues --   -0.90424  -0.90222  -0.90021  -0.89906  -0.89551
 Alpha  occ. eigenvalues --   -0.89434  -0.89019  -0.88588  -0.87988  -0.86638
 Alpha  occ. eigenvalues --   -0.86605  -0.85965  -0.85778  -0.84829  -0.84624
 Alpha  occ. eigenvalues --   -0.84540  -0.83936  -0.83349  -0.83208  -0.82872
 Alpha  occ. eigenvalues --   -0.82462  -0.80644  -0.80205  -0.79657  -0.79608
 Alpha  occ. eigenvalues --   -0.79383  -0.78840  -0.78493  -0.78240  -0.77303
 Alpha  occ. eigenvalues --   -0.77192  -0.75217  -0.74999  -0.74213  -0.73939
 Alpha  occ. eigenvalues --   -0.71745  -0.71466  -0.71399  -0.71236  -0.70451
 Alpha  occ. eigenvalues --   -0.70051  -0.68762  -0.68541  -0.68338  -0.68086
 Alpha  occ. eigenvalues --   -0.67640  -0.67383  -0.67132  -0.67118  -0.66796
 Alpha  occ. eigenvalues --   -0.66577  -0.64975  -0.64546  -0.62402  -0.62161
 Alpha  occ. eigenvalues --   -0.61945  -0.61910  -0.61523  -0.61502  -0.60918
 Alpha  occ. eigenvalues --   -0.60772  -0.60418  -0.60374  -0.59635  -0.59612
 Alpha  occ. eigenvalues --   -0.58483  -0.58198  -0.57919  -0.57708  -0.57618
 Alpha  occ. eigenvalues --   -0.57532  -0.56869  -0.56488  -0.56380  -0.55971
 Alpha  occ. eigenvalues --   -0.55839  -0.55682  -0.55430  -0.55308  -0.55138
 Alpha  occ. eigenvalues --   -0.54909  -0.54893  -0.54591  -0.54076  -0.53920
 Alpha  occ. eigenvalues --   -0.53809  -0.53659  -0.53649  -0.53368  -0.53197
 Alpha  occ. eigenvalues --   -0.53138  -0.52729  -0.52545  -0.52462  -0.52265
 Alpha  occ. eigenvalues --   -0.52230  -0.52008  -0.51916  -0.51873  -0.51594
 Alpha  occ. eigenvalues --   -0.51544  -0.51367  -0.51017  -0.50744  -0.50612
 Alpha  occ. eigenvalues --   -0.50421  -0.50322  -0.50278  -0.49890  -0.49873
 Alpha  occ. eigenvalues --   -0.49770  -0.49671  -0.49618  -0.49559  -0.49414
 Alpha  occ. eigenvalues --   -0.49305  -0.49172  -0.49000  -0.48987  -0.48592
 Alpha  occ. eigenvalues --   -0.48478  -0.48405  -0.48166  -0.48106  -0.47977
 Alpha  occ. eigenvalues --   -0.47908  -0.47560  -0.47523  -0.47397  -0.47101
 Alpha  occ. eigenvalues --   -0.47023  -0.46981  -0.46493  -0.46474  -0.45887
 Alpha  occ. eigenvalues --   -0.45843  -0.45701  -0.45641  -0.45589  -0.45551
 Alpha  occ. eigenvalues --   -0.45349  -0.45226  -0.45076  -0.45036  -0.44926
 Alpha  occ. eigenvalues --   -0.44788  -0.44474  -0.44362  -0.44260  -0.43991
 Alpha  occ. eigenvalues --   -0.43683  -0.43656  -0.43518  -0.43508  -0.43223
 Alpha  occ. eigenvalues --   -0.43160  -0.43098  -0.42988  -0.42801  -0.42776
 Alpha  occ. eigenvalues --   -0.42259  -0.42157  -0.42054  -0.41822  -0.40882
 Alpha  occ. eigenvalues --   -0.40721  -0.40677  -0.40233  -0.39852  -0.39788
 Alpha  occ. eigenvalues --   -0.39608  -0.39233  -0.38567  -0.38027  -0.37923
 Alpha  occ. eigenvalues --   -0.37770  -0.37676  -0.37166  -0.36119  -0.35894
 Alpha  occ. eigenvalues --   -0.35504  -0.35309  -0.35176  -0.33790  -0.33572
 Alpha  occ. eigenvalues --   -0.33167  -0.33000  -0.32767  -0.32542  -0.32448
 Alpha  occ. eigenvalues --   -0.32342  -0.32255  -0.31569  -0.26102  -0.26015
 Alpha  occ. eigenvalues --   -0.23132  -0.22735
 Alpha virt. eigenvalues --   -0.07310  -0.06520   0.00088   0.00161   0.02368
 Alpha virt. eigenvalues --    0.02777   0.04482   0.04609   0.05461   0.06118
 Alpha virt. eigenvalues --    0.06383   0.06671   0.07556   0.08119   0.08496

 Mulliken charges:
               1
     1  Mg   0.974846
     2  C    0.002976
     3  C   -0.073995
     4  C   -0.058831
     5  C   -0.108693
     6  N   -0.330638
     7  C   -0.063403
     8  C    0.015642
     9  C   -0.121708
    10  C    0.063841
    11  C    0.011239
    12  C    0.011715
    13  C   -0.119988
    14  H    0.035314
    15  N   -0.515859
    16  C    0.189894
    17  C   -0.128821
    18  C   -0.091702
    19  C    0.167155
    20  C    0.036563
    21  C    0.055239
    22  O   -0.254785
    23  C    0.008681
    24  N   -0.326372
    25  C   -0.014210
    26  C   -0.060034
    27  C   -0.104820
    28  C    0.037599
    29  C    0.034225
    30  C    0.005132
    31  C   -0.035259
    32  N   -0.421396
    33  C    0.133155
    34  C   -0.209239
    35  C   -0.009016
    36  C    0.152811
    37  C    0.108978
    38  C    0.073424
    39  O   -0.209181
    40  C   -0.032156
    41  C    0.264707
    42  O   -0.283649
    43  O   -0.351485
    44  C    0.134929
    45  H   -0.012379
    46  H    0.030631
    47  H    0.003596
    48  H    0.033957
    49  H    0.037513
    50  H    0.041021
    51  H    0.017670
    52  H    0.035927
    53  H    0.014276
    54  H    0.025763
    55  H    0.056588
    56  H    0.056704
    57  H    0.040368
    58  H    0.054025
    59  H    0.038989
    60  H    0.053146
    61  H    0.060450
    62  H    0.061921
    63  H    0.043773
    64  H    0.028148
    65  H    0.033577
    66  H    0.048028
    67  H    0.054515
    68  H    0.023077
    69  H    0.008868
    70  H    0.052191
    71  H    0.038556
    72  H    0.041126
    73  H    0.077469
    74  H    0.017110
    75  H    0.049456
    76  H    0.080868
    77  H    0.066818
    78  H    0.047333
    79  H    0.046099
    80  Mg   0.980487
    81  C   -0.124091
    82  C   -0.080754
    83  C   -0.101720
    84  C   -0.096425
    85  N   -0.314521
    86  C   -0.024867
    87  C   -0.047695
    88  C   -0.085420
    89  C    0.060988
    90  C    0.030222
    91  C   -0.009629
    92  C   -0.101117
    93  H    0.050303
    94  N   -0.481232
    95  C    0.127672
    96  C   -0.142764
    97  C   -0.097866
    98  C    0.230189
    99  C    0.077147
   100  C    0.025843
   101  O   -0.277723
   102  C    0.020104
   103  N   -0.346983
   104  C    0.018920
   105  C   -0.090667
   106  C   -0.108997
   107  C    0.094371
   108  C    0.033653
   109  C    0.010063
   110  C   -0.047588
   111  N   -0.436694
   112  C    0.106290
   113  C   -0.206207
   114  C   -0.066870
   115  C    0.193051
   116  C    0.118141
   117  C    0.144237
   118  O   -0.188436
   119  C   -0.050546
   120  C    0.292264
   121  O   -0.254424
   122  O   -0.371202
   123  C    0.136624
   124  H   -0.000102
   125  H   -0.036476
   126  H    0.002962
   127  H    0.018559
   128  H    0.029557
   129  H    0.037178
   130  H    0.045322
   131  H    0.037051
   132  H    0.031096
   133  H    0.053740
   134  H    0.048088
   135  H    0.042420
   136  H    0.047729
   137  H    0.033296
   138  H    0.069382
   139  H    0.083969
   140  H    0.065103
   141  H    0.043347
   142  H    0.038417
   143  H    0.032686
   144  H    0.040675
   145  H    0.041130
   146  H    0.031837
   147  H    0.033594
   148  H    0.025561
   149  H    0.046675
   150  H    0.035600
   151  H    0.033280
   152  H    0.080943
   153  H    0.046780
   154  H    0.029914
   155  H    0.059500
   156  H    0.065658
   157  H    0.052746
   158  H    0.056645
 Sum of Mulliken charges =  -0.00000

 Dipole moment (field-independent basis, Debye):
    X=              5.3232    Y=             -2.4131    Z=              0.5838  Tot=              5.8737
 Quadrupole moment (field-independent basis, Debye-Ang):
   XX=           -612.1908   YY=           -568.2615   ZZ=           -504.2520
   XY=             59.1749   XZ=            -23.6613   YZ=            -13.7899

 Normal termination of Gaussian 16 at Mon Sep 20 02:31:28 2021.
