 Gaussian 16, Revision A.03,
 Gaussian 16:  ES64L-G16RevA.03 25-Dec-2016

 --------------------------------
 #p wB97XD/Def2SVP td=(nstates=5)
 --------------------------------

 --------------------------------
 TDDFT excited states in gaussian
 --------------------------------
 Symbolic Z-matrix:
 Charge =  0 Multiplicity = 1

                         Standard orientation:
 ---------------------------------------------------------------------
 Center     Atomic      Atomic             Coordinates (Angstroms)
 Number     Number       Type             X           Y           Z
 ---------------------------------------------------------------------
      1         12           0      -17.098400    0.655878    0.099013
      2          6           0      -15.576159   -2.345734   -1.136332
      3          6           0      -14.924512    2.437056   -1.899275
      4          6           0      -18.066506    3.336917    1.695888
      5          6           0      -19.014254   -1.361327    2.165609
      6          7           0      -15.198136    0.088696   -1.186518
      7          6           0      -14.922362   -1.191129   -1.585409
      8          6           0      -13.938404   -1.158524   -2.785477
      9          6           0      -13.670488    0.389269   -3.004265
     10          6           0      -14.629194    1.072197   -1.961933
     11          6           0      -12.187411    0.919607   -2.813422
     12          6           0      -14.456060   -1.835551   -4.082580
     13          6           0      -13.521669   -2.727012   -4.820326
     14          1           0      -11.956849   -2.694817   -4.631932
     15          7           0      -16.567969    2.683657   -0.050173
     16          6           0      -15.754363    3.268248   -1.020377
     17          6           0      -15.678512    4.719663   -0.765937
     18          6           0      -16.699033    4.991678    0.224295
     19          6           0      -17.153614    3.656299    0.676616
     20          6           0      -14.781608    5.693008   -1.469058
     21          6           0      -17.236189    6.328107    0.788443
     22          8           0      -18.313720    6.463236    1.405661
     23          6           0      -16.508389    7.560090    0.427059
     24          7           0      -18.278422    0.903724    1.690642
     25          6           0      -18.467766    2.166602    2.207400
     26          6           0      -19.601922    2.173962    3.269507
     27          6           0      -20.149357    0.684742    3.130115
     28          6           0      -19.097115    0.018387    2.260813
     29          6           0      -19.232905    2.576318    4.755510
     30          6           0      -21.538005    0.511134    2.535672
     31          6           0      -22.606547   -0.060070    3.491190
     32          7           0      -17.428287   -1.418565    0.337156
     33          6           0      -18.220141   -2.083754    1.243042
     34          6           0      -18.020893   -3.533261    1.114580
     35          6           0      -17.035654   -3.651368    0.150356
     36          6           0      -16.703078   -2.351742   -0.292658
     37          6           0      -18.653430   -4.643683    1.886700
     38          6           0      -16.297920   -4.632171   -0.561317
     39          8           0      -16.372756   -5.893529   -0.591310
     40          6           0      -15.352387   -3.870096   -1.389555
     41          6           0      -13.948052   -4.357499   -1.155707
     42          8           0      -13.317652   -4.184448   -0.169156
     43          8           0      -13.486810   -4.956399   -2.253451
     44          6           0      -12.314016   -5.759171   -2.172108
     45          1           0      -14.266684    3.077901   -2.490339
     46          1           0      -18.512315    4.142037    2.285169
     47          1           0      -19.564277   -1.982829    2.874154
     48          1           0      -13.041289   -1.678427   -2.447308
     49          1           0      -13.995241    0.684243   -4.001623
     50          1           0      -11.427611    0.147867   -2.693257
     51          1           0      -12.172377    1.473018   -1.873350
     52          1           0      -11.920145    1.602118   -3.620745
     53          1           0      -14.763781   -1.115968   -4.842168
     54          1           0      -15.318346   -2.478193   -3.907231
     55          1           0      -13.592307   -2.528097   -5.890121
     56          1           0      -13.842555   -3.752046   -4.636825
     57          1           0      -14.198715    6.244822   -0.731925
     58          1           0      -15.437736    6.390012   -1.990393
     59          1           0      -14.229719    5.216710   -2.280063
     60          1           0      -15.506975    7.484771    0.850965
     61          1           0      -17.019946    8.362100    0.958664
     62          1           0      -16.588495    7.787171   -0.635663
     63          1           0      -20.358232    2.855226    2.878360
     64          1           0      -20.162855    0.261717    4.134540
     65          1           0      -18.172579    2.816111    4.826418
     66          1           0      -19.563469    1.843513    5.492597
     67          1           0      -19.827382    3.455253    5.005360
     68          1           0      -21.597803    0.001852    1.573718
     69          1           0      -21.898408    1.510015    2.292074
     70          1           0      -23.266601   -0.829613    3.091397
     71          1           0      -23.340079    0.732033    3.643922
     72          1           0      -22.229036   -0.462771    4.430122
     73          1           0      -19.561746   -4.331373    2.402790
     74          1           0      -18.015080   -4.926904    2.723472
     75          1           0      -18.719232   -5.492755    1.206484
     76          1           0      -15.642616   -4.061260   -2.422335
     77          1           0      -12.610951   -6.679146   -1.666573
     78          1           0      -11.577107   -5.307151   -1.508056
     79          1           0      -11.952962   -6.031269   -3.164282
     80         12           0       16.885557    0.608425   -0.219082
     81          6           0       15.544620   -2.578384    0.391179
     82          6           0       14.195585    1.263481   -2.188165
     83          6           0       18.026121    3.671310   -0.338418
     84          6           0       19.084117   -0.104292    2.542217
     85          7           0       15.151263   -0.558100   -0.854553
     86          6           0       14.787081   -1.819575   -0.476551
     87          6           0       13.335310   -2.053215   -0.920533
     88          6           0       13.220466   -1.117688   -2.118986
     89          6           0       14.189859   -0.023041   -1.633224
     90          6           0       13.702717   -1.766114   -3.437173
     91          6           0       12.318681   -1.688519    0.223730
     92          6           0       11.456900   -2.872435    0.886203
     93          1           0       11.612055   -3.158595    2.389568
     94          7           0       16.178062    2.258758   -1.087784
     95          6           0       15.058359    2.330124   -1.884331
     96          6           0       15.009260    3.634338   -2.467470
     97          6           0       16.172242    4.372691   -2.068607
     98          6           0       16.866672    3.456897   -1.117730
     99          6           0       13.859975    4.107482   -3.422030
    100          6           0       16.551311    5.805386   -2.592325
    101          8           0       15.901928    6.319130   -3.450502
    102          6           0       17.848098    6.356390   -2.218097
    103          7           0       18.139281    1.738881    1.157632
    104          6           0       18.682639    2.842237    0.590751
    105          6           0       20.075773    3.157694    1.109006
    106          6           0       20.241238    2.188752    2.269779
    107          6           0       19.066860    1.187247    1.991811
    108          6           0       21.193348    2.973418    0.016790
    109          6           0       20.225652    2.744242    3.771225
    110          6           0       21.473084    2.807418    4.611163
    111          7           0       17.405390   -1.027163    1.042081
    112          6           0       18.304407   -1.176357    2.105929
    113          6           0       18.198845   -2.484678    2.714840
    114          6           0       17.148515   -3.067368    2.049215
    115          6           0       16.653495   -2.166383    1.049725
    116          6           0       19.007073   -2.970128    3.845336
    117          6           0       16.339784   -4.274244    1.971107
    118          8           0       16.463273   -5.346428    2.576012
    119          6           0       15.357208   -4.053506    0.840341
    120          6           0       15.645290   -5.109116   -0.221611
    121          8           0       16.754139   -5.190736   -0.745037
    122          8           0       14.563255   -5.988247   -0.383706
    123          6           0       14.780351   -7.032837   -1.348599
    124          1           0       13.406653    1.383937   -2.933082
    125          1           0       18.547797    4.576537   -0.652893
    126          1           0       19.828162   -0.350553    3.302887
    127          1           0       13.223408   -3.127354   -1.070301
    128          1           0       12.181838   -0.799457   -2.199778
    129          1           0       12.842695   -1.523456   -4.060360
    130          1           0       13.794778   -2.827301   -3.204156
    131          1           0       14.638249   -1.394754   -3.855642
    132          1           0       11.581973   -1.009338   -0.205132
    133          1           0       12.858913   -1.109415    0.972237
    134          1           0       11.806839   -3.784799    0.402665
    135          1           0       10.387263   -2.823053    0.685913
    136          1           0       13.378483    5.061467   -3.209370
    137          1           0       13.101009    3.325904   -3.374412
    138          1           0       14.177752    4.172212   -4.462823
    139          1           0       18.003475    6.451820   -1.143236
    140          1           0       17.948091    7.339763   -2.677453
    141          1           0       18.644493    5.829675   -2.742068
    142          1           0       20.184948    4.200190    1.409839
    143          1           0       21.153766    1.605291    2.147327
    144          1           0       21.494470    3.908873   -0.454440
    145          1           0       20.897770    2.186768   -0.677396
    146          1           0       22.078507    2.593718    0.529124
    147          1           0       19.417352    2.424036    4.427777
    148          1           0       19.972788    3.768360    3.495447
    149          1           0       21.792486    3.823768    4.839456
    150          1           0       22.294382    2.324690    4.080948
    151          1           0       21.215379    2.258182    5.516426
    152          1           0       19.342508   -2.100117    4.410494
    153          1           0       19.885296   -3.434711    3.396122
    154          1           0       18.468504   -3.714467    4.430067
    155          1           0       14.400682   -4.260223    1.318457
    156          1           0       14.699224   -6.714635   -2.388301
    157          1           0       14.073619   -7.851849   -1.217997
    158          1           0       15.750372   -7.522971   -1.269898
 ---------------------------------------------------------------------

 SCF Done:  E(RwB97XD) =  -4070.60839512     A.U. after   19 cycles

 Excitation energies and oscillator strengths:

 Excited State   1:      Singlet-A      1.6666 eV  743.95 nm  f=0.2353  <S**2>=0.000
     309 -> 315       -0.19294
     311 -> 313        0.14593
     312 -> 314        0.66532
     309 <- 315       -0.11788
 This state for optimization and/or second-order correction.
 Total Energy, E(TD-HF/TD-DFT) =  -4070.54714964
 Copying the excited state density for this state as the 1-particle RhoCI density.

 Excited State   2:      Singlet-A      1.6710 eV  741.98 nm  f=0.5422  <S**2>=0.000
     310 -> 316        0.17707
     311 -> 313        0.66883
     312 -> 314       -0.14503
     310 <- 316        0.11152

 Excited State   3:      Singlet-A      2.1576 eV  574.64 nm  f=0.1257  <S**2>=0.000
     310 -> 313        0.64761
     311 -> 316       -0.26960

 Excited State   4:      Singlet-A      2.2261 eV  556.95 nm  f=0.0510  <S**2>=0.000
     309 -> 314        0.60367
     312 -> 315        0.35676

 Excited State   5:      Singlet-A      3.7974 eV  326.50 nm  f=0.0000  <S**2>=0.000
     312 -> 313        0.70709

 The electronic state is 1-A.
 Alpha  occ. eigenvalues --  -46.95252 -46.95036 -19.31293 -19.30249 -19.25560
 Alpha  occ. eigenvalues --  -19.24616 -19.24192 -19.24076 -19.23860 -19.23517
 Alpha  occ. eigenvalues --  -14.46733 -14.46683 -14.46656 -14.46223 -14.44335
 Alpha  occ. eigenvalues --  -14.44104 -14.43998 -14.43983 -10.44158 -10.42916
 Alpha  occ. eigenvalues --  -10.38988 -10.38868 -10.38796 -10.38618 -10.35780
 Alpha  occ. eigenvalues --  -10.35261 -10.35259 -10.35179 -10.35146 -10.35079
 Alpha  occ. eigenvalues --  -10.34939 -10.34880 -10.34701 -10.34678 -10.34576
 Alpha  occ. eigenvalues --  -10.34122 -10.33844 -10.33660 -10.33551 -10.33474
 Alpha  occ. eigenvalues --  -10.33384 -10.33286 -10.32995 -10.32808 -10.32634
 Alpha  occ. eigenvalues --  -10.32551 -10.32496 -10.32367 -10.32311 -10.32302
 Alpha  occ. eigenvalues --  -10.32204 -10.32173 -10.32152 -10.31953 -10.31951
 Alpha  occ. eigenvalues --  -10.31950 -10.31927 -10.31663 -10.31609 -10.31564
 Alpha  occ. eigenvalues --  -10.31252 -10.31221 -10.31079 -10.31032 -10.30947
 Alpha  occ. eigenvalues --  -10.30942 -10.30913 -10.30865 -10.30791 -10.30737
 Alpha  occ. eigenvalues --  -10.30725 -10.30422 -10.30369 -10.30151 -10.30128
 Alpha  occ. eigenvalues --  -10.30095 -10.29869 -10.29761 -10.29736 -10.29503
 Alpha  occ. eigenvalues --  -10.29435 -10.29392 -10.29317 -10.29279 -10.29209
 Alpha  occ. eigenvalues --  -10.29159  -3.21272  -3.21082  -1.94844  -1.94648
 Alpha  occ. eigenvalues --   -1.94407  -1.94242  -1.94221  -1.94050  -1.20837
 Alpha  occ. eigenvalues --   -1.18175  -1.14112  -1.11937  -1.11361  -1.10470
 Alpha  occ. eigenvalues --   -1.10454  -1.10383  -1.06915  -1.06788  -1.06285
 Alpha  occ. eigenvalues --   -1.05809  -1.04919  -1.04513  -1.04118  -1.03774
 Alpha  occ. eigenvalues --   -0.95644  -0.95063  -0.91037  -0.91018  -0.90852
 Alpha  occ. eigenvalues --   -0.90463  -0.90414  -0.90247  -0.89743  -0.89580
 Alpha  occ. eigenvalues --   -0.89058  -0.88771  -0.88212  -0.86943  -0.86527
 Alpha  occ. eigenvalues --   -0.86510  -0.86150  -0.85404  -0.84522  -0.84471
 Alpha  occ. eigenvalues --   -0.84453  -0.83966  -0.83658  -0.83014  -0.82834
 Alpha  occ. eigenvalues --   -0.82480  -0.80251  -0.79955  -0.79671  -0.79183
 Alpha  occ. eigenvalues --   -0.79095  -0.78347  -0.78280  -0.78228  -0.77123
 Alpha  occ. eigenvalues --   -0.77052  -0.75196  -0.74885  -0.74119  -0.73476
 Alpha  occ. eigenvalues --   -0.71388  -0.70959  -0.70939  -0.70605  -0.70110
 Alpha  occ. eigenvalues --   -0.69442  -0.68763  -0.68212  -0.67853  -0.67798
 Alpha  occ. eigenvalues --   -0.67569  -0.66874  -0.66872  -0.66830  -0.66480
 Alpha  occ. eigenvalues --   -0.66471  -0.65038  -0.64733  -0.62317  -0.62216
 Alpha  occ. eigenvalues --   -0.62059  -0.61888  -0.61309  -0.61144  -0.61112
 Alpha  occ. eigenvalues --   -0.60887  -0.60492  -0.60196  -0.59740  -0.59715
 Alpha  occ. eigenvalues --   -0.58438  -0.58226  -0.58091  -0.58072  -0.57256
 Alpha  occ. eigenvalues --   -0.57137  -0.56900  -0.56897  -0.55926  -0.55706
 Alpha  occ. eigenvalues --   -0.55486  -0.55340  -0.55232  -0.55112  -0.54947
 Alpha  occ. eigenvalues --   -0.54924  -0.54724  -0.54672  -0.54625  -0.54358
 Alpha  occ. eigenvalues --   -0.54134  -0.53735  -0.53649  -0.53503  -0.53420
 Alpha  occ. eigenvalues --   -0.53039  -0.52961  -0.52821  -0.52392  -0.52102
 Alpha  occ. eigenvalues --   -0.52032  -0.51950  -0.51794  -0.51744  -0.51586
 Alpha  occ. eigenvalues --   -0.51266  -0.51263  -0.51048  -0.51011  -0.50699
 Alpha  occ. eigenvalues --   -0.50618  -0.50542  -0.50269  -0.50214  -0.50150
 Alpha  occ. eigenvalues --   -0.50025  -0.49620  -0.49447  -0.49340  -0.49039
 Alpha  occ. eigenvalues --   -0.48864  -0.48706  -0.48526  -0.48316  -0.48217
 Alpha  occ. eigenvalues --   -0.48170  -0.48076  -0.48047  -0.47987  -0.47906
 Alpha  occ. eigenvalues --   -0.47756  -0.47383  -0.47290  -0.47188  -0.46753
 Alpha  occ. eigenvalues --   -0.46505  -0.46425  -0.46393  -0.46250  -0.46103
 Alpha  occ. eigenvalues --   -0.45802  -0.45629  -0.45537  -0.45363  -0.45273
 Alpha  occ. eigenvalues --   -0.45039  -0.44903  -0.44591  -0.44544  -0.44521
 Alpha  occ. eigenvalues --   -0.44389  -0.44139  -0.44096  -0.43895  -0.43838
 Alpha  occ. eigenvalues --   -0.43657  -0.43551  -0.43533  -0.43408  -0.43136
 Alpha  occ. eigenvalues --   -0.43008  -0.42894  -0.42768  -0.42611  -0.42297
 Alpha  occ. eigenvalues --   -0.42183  -0.41998  -0.41961  -0.41573  -0.41033
 Alpha  occ. eigenvalues --   -0.40902  -0.40084  -0.39949  -0.39846  -0.39476
 Alpha  occ. eigenvalues --   -0.39175  -0.39099  -0.38627  -0.38593  -0.38575
 Alpha  occ. eigenvalues --   -0.38260  -0.37765  -0.36838  -0.36725  -0.36671
 Alpha  occ. eigenvalues --   -0.36121  -0.35746  -0.35161  -0.33721  -0.33570
 Alpha  occ. eigenvalues --   -0.33559  -0.33206  -0.32953  -0.32866  -0.32604
 Alpha  occ. eigenvalues --   -0.32332  -0.31827  -0.31593  -0.26329  -0.26047
 Alpha  occ. eigenvalues --   -0.23115  -0.22810
 Alpha virt. eigenvalues --   -0.07286  -0.06663  -0.00339   0.00448   0.01847
 Alpha virt. eigenvalues --    0.02583   0.04120   0.04596   0.05183   0.05402
 Alpha virt. eigenvalues --    0.06358   0.07470   0.07809   0.08348   0.08478

 Mulliken charges:
               1
     1  Mg   0.968440
     2  C   -0.020953
     3  C   -0.037276
     4  C   -0.069012
     5  C   -0.100238
     6  N   -0.318739
     7  C   -0.004842
     8  C   -0.025617
     9  C   -0.108440
    10  C    0.038717
    11  C    0.011082
    12  C    0.007044
    13  C   -0.131857
    14  H    0.014283
    15  N   -0.444937
    16  C    0.109609
    17  C   -0.188519
    18  C   -0.082103
    19  C    0.150549
    20  C    0.090892
    21  C    0.056686
    22  O   -0.260063
    23  C   -0.010021
    24  N   -0.428952
    25  C    0.096557
    26  C   -0.123020
    27  C   -0.081989
    28  C    0.106345
    29  C    0.027991
    30  C    0.012446
    31  C   -0.064928
    32  N   -0.411500
    33  C    0.113788
    34  C   -0.170921
    35  C   -0.051418
    36  C    0.143951
    37  C    0.088554
    38  C    0.114910
    39  O   -0.251356
    40  C   -0.028773
    41  C    0.225621
    42  O   -0.205789
    43  O   -0.332396
    44  C    0.138713
    45  H   -0.013853
    46  H    0.020126
    47  H   -0.001513
    48  H    0.046111
    49  H    0.041905
    50  H    0.041031
    51  H    0.040382
    52  H    0.039975
    53  H    0.033342
    54  H    0.031248
    55  H    0.045748
    56  H    0.057648
    57  H    0.058270
    58  H    0.041380
    59  H    0.035363
    60  H    0.054117
    61  H    0.046916
    62  H    0.066196
    63  H    0.046347
    64  H    0.023314
    65  H    0.051634
    66  H    0.034846
    67  H    0.038264
    68  H    0.040932
    69  H    0.022560
    70  H    0.029644
    71  H    0.032291
    72  H    0.037096
    73  H    0.030951
    74  H    0.058239
    75  H    0.072574
    76  H    0.069228
    77  H    0.047680
    78  H    0.056352
    79  H    0.061131
    80  Mg   0.956887
    81  C   -0.054806
    82  C   -0.098035
    83  C   -0.053097
    84  C   -0.094199
    85  N   -0.331729
    86  C   -0.023700
    87  C   -0.115130
    88  C   -0.115582
    89  C    0.039146
    90  C    0.060845
    91  C    0.025477
    92  C   -0.134617
    93  H    0.044919
    94  N   -0.518579
    95  C    0.210343
    96  C   -0.172881
    97  C   -0.106204
    98  C    0.151517
    99  C    0.083346
   100  C    0.062088
   101  O   -0.196923
   102  C   -0.021517
   103  N   -0.326708
   104  C    0.062479
   105  C   -0.102059
   106  C   -0.070069
   107  C    0.069667
   108  C    0.021092
   109  C   -0.022405
   110  C   -0.034771
   111  N   -0.429090
   112  C    0.127744
   113  C   -0.206609
   114  C   -0.016895
   115  C    0.192867
   116  C    0.097440
   117  C    0.099202
   118  O   -0.220811
   119  C   -0.022118
   120  C    0.288765
   121  O   -0.244371
   122  O   -0.362513
   123  C    0.139826
   124  H    0.001558
   125  H   -0.029271
   126  H   -0.001555
   127  H    0.017299
   128  H    0.023648
   129  H    0.042863
   130  H    0.038788
   131  H    0.055117
   132  H    0.032675
   133  H    0.055665
   134  H    0.047932
   135  H    0.058779
   136  H    0.056010
   137  H    0.011819
   138  H    0.051523
   139  H    0.070942
   140  H    0.041995
   141  H    0.069574
   142  H    0.033436
   143  H    0.024332
   144  H    0.046116
   145  H    0.041570
   146  H    0.029660
   147  H    0.043991
   148  H    0.016333
   149  H    0.044044
   150  H    0.026338
   151  H    0.041585
   152  H    0.036706
   153  H    0.058317
   154  H    0.066071
   155  H    0.061106
   156  H    0.042294
   157  H    0.050460
   158  H    0.054045
 Sum of Mulliken charges =  -0.00000

 Dipole moment (field-independent basis, Debye):
    X=              1.4414    Y=              2.9843    Z=             -2.9415  Tot=              4.4312
 Quadrupole moment (field-independent basis, Debye-Ang):
   XX=           -412.5434   YY=           -551.8783   ZZ=           -492.4714
   XY=             40.6595   XZ=             22.8030   YZ=             23.0154

 Normal termination of Gaussian 16 at Mon Sep 20 11:06:49 2021.
