 Gaussian 16, Revision A.03,
 Gaussian 16:  ES64L-G16RevA.03 25-Dec-2016

 --------------------------------
 #p wB97XD/Def2SVP td=(nstates=5)
 --------------------------------

 --------------------------------
 TDDFT excited states in gaussian
 --------------------------------
 Symbolic Z-matrix:
 Charge =  0 Multiplicity = 1

                         Standard orientation:
 ---------------------------------------------------------------------
 Center     Atomic      Atomic             Coordinates (Angstroms)
 Number     Number       Type             X           Y           Z
 ---------------------------------------------------------------------
      1         12           0       32.817557    0.374941   -0.306100
      2          6           0       30.707635   -2.216666    0.876492
      3          6           0       30.954043    2.555993    1.509925
      4          6           0       35.295619    2.655554   -0.772363
      5          6           0       34.882220   -2.061550   -1.652733
      6          7           0       31.121268    0.041671    1.149269
      7          6           0       30.336286   -1.047150    1.421950
      8          6           0       29.178082   -0.697790    2.280705
      9          6           0       29.116507    0.898391    2.175371
     10          6           0       30.458925    1.198582    1.601253
     11          6           0       27.953360    1.365360    1.315130
     12          6           0       29.438954   -1.305059    3.668074
     13          6           0       28.319522   -2.249420    4.278786
     14          1           0       27.703872   -1.972462    5.683411
     15          7           0       33.123786    2.345375    0.217509
     16          6           0       32.162083    3.095097    0.908929
     17          6           0       32.583658    4.463651    0.892086
     18          6           0       33.870923    4.547449    0.261573
     19          6           0       34.112575    3.153311   -0.197255
     20          6           0       31.699863    5.559621    1.473595
     21          6           0       34.755284    5.758005    0.062278
     22          8           0       34.210295    6.843445    0.416231
     23          6           0       36.237279    5.814100   -0.405011
     24          7           0       34.841598    0.331783   -1.118149
     25          6           0       35.642803    1.414446   -1.226883
     26          6           0       37.033488    1.087277   -1.832416
     27          6           0       36.847967   -0.421002   -2.217580
     28          6           0       35.425925   -0.756220   -1.563119
     29          6           0       37.305283    2.003667   -3.011950
     30          6           0       37.903148   -1.350702   -1.700839
     31          6           0       38.773227   -1.941890   -2.776657
     32          7           0       32.785385   -1.636393   -0.561818
     33          6           0       33.651477   -2.550608   -1.174895
     34          6           0       33.086415   -3.796747   -1.292854
     35          6           0       31.903449   -3.710343   -0.530786
     36          6           0       31.810869   -2.406801   -0.048465
     37          6           0       33.635123   -4.886452   -2.189410
     38          6           0       30.686881   -4.467528   -0.133078
     39          8           0       30.369614   -5.583482   -0.405965
     40          6           0       29.964834   -3.480643    0.860393
     41          6           0       28.481384   -3.578606    0.578576
     42          8           0       27.673306   -4.182195    1.284363
     43          8           0       28.150498   -2.834839   -0.580120
     44          6           0       26.708929   -2.794367   -0.823992
     45          1           0       30.247620    3.291969    1.900139
     46          1           0       36.075369    3.375447   -1.031962
     47          1           0       35.565851   -2.889104   -1.850167
     48          1           0       28.273307   -1.144312    1.868076
     49          1           0       28.976032    1.298698    3.179069
     50          1           0       27.767600    0.721140    0.456822
     51          1           0       28.216624    2.329886    0.879705
     52          1           0       27.031827    1.530242    1.873378
     53          1           0       29.602683   -0.473765    4.353665
     54          1           0       30.392591   -1.826790    3.748552
     55          1           0       28.874241   -3.186841    4.326764
     56          1           0       27.559219   -2.477922    3.532836
     57          1           0       31.372789    5.305916    2.481951
     58          1           0       30.817331    5.604659    0.835579
     59          1           0       32.150421    6.540767    1.629601
     60          1           0       36.175870    5.529453   -1.454910
     61          1           0       36.808998    5.083789    0.167718
     62          1           0       36.688001    6.795041   -0.251993
     63          1           0       37.863441    1.223334   -1.139503
     64          1           0       36.672043   -0.511065   -3.289205
     65          1           0       37.129845    3.027611   -2.681577
     66          1           0       36.606711    1.746206   -3.808719
     67          1           0       38.255329    1.929235   -3.539721
     68          1           0       37.502677   -2.221669   -1.182045
     69          1           0       38.592735   -0.946869   -0.959825
     70          1           0       39.810823   -1.733087   -2.519021
     71          1           0       38.629728   -1.464606   -3.746043
     72          1           0       38.604957   -3.004548   -2.954655
     73          1           0       32.820068   -5.597140   -2.329930
     74          1           0       34.490111   -5.396075   -1.745774
     75          1           0       33.924812   -4.370354   -3.104465
     76          1           0       30.072577   -4.004385    1.810931
     77          1           0       26.439938   -1.892933   -1.374758
     78          1           0       26.152411   -2.664786    0.103147
     79          1           0       26.333916   -3.689425   -1.321078
     80         12           0      -32.854200   -0.395172   -0.574026
     81          6           0      -30.371425    1.980859    0.444166
     82          6           0      -30.937841   -2.857333    1.094628
     83          6           0      -35.474410   -2.476588   -0.824009
     84          6           0      -34.856111    2.245793   -1.538925
     85          7           0      -30.857313   -0.458557    0.637654
     86          6           0      -30.117514    0.660752    0.898464
     87          6           0      -29.067804    0.344170    1.951902
     88          6           0      -29.133072   -1.238927    1.881695
     89          6           0      -30.379353   -1.609097    1.171925
     90          6           0      -27.918986   -1.978340    1.225562
     91          6           0      -29.414751    1.070126    3.291213
     92          6           0      -28.278202    1.822428    4.098108
     93          1           0      -27.920143    1.360164    5.522003
     94          7           0      -33.122581   -2.363400   -0.154057
     95          6           0      -32.226965   -3.234496    0.520511
     96          6           0      -32.781652   -4.573372    0.597240
     97          6           0      -34.116938   -4.441546    0.036709
     98          6           0      -34.260917   -3.048965   -0.344243
     99          6           0      -32.075215   -5.667520    1.282772
    100          6           0      -35.084681   -5.630066   -0.098380
    101          8           0      -34.698442   -6.726111    0.402989
    102          6           0      -36.465026   -5.588155   -0.787712
    103          7           0      -35.016270   -0.167380   -0.858469
    104          6           0      -35.831631   -1.177625   -1.092811
    105          6           0      -37.179922   -0.630156   -1.433732
    106          6           0      -36.919133    0.874626   -1.710758
    107          6           0      -35.500870    1.040052   -1.258491
    108          6           0      -38.042020   -1.303958   -2.585279
    109          6           0      -37.927299    1.897339   -0.971440
    110          6           0      -38.862874    2.771402   -1.842165
    111          7           0      -32.633435    1.624109   -0.753181
    112          6           0      -33.508106    2.562906   -1.152179
    113          6           0      -32.938405    3.859466   -1.104698
    114          6           0      -31.684470    3.659081   -0.522846
    115          6           0      -31.546281    2.269410   -0.277938
    116          6           0      -33.466616    5.167002   -1.540121
    117          6           0      -30.545010    4.398330   -0.074283
    118          8           0      -30.380204    5.597632   -0.066512
    119          6           0      -29.597452    3.255774    0.663010
    120          6           0      -28.283426    3.201679    0.011348
    121          8           0      -28.084669    3.223201   -1.209942
    122          8           0      -27.347781    3.093624    1.018032
    123          6           0      -25.948501    3.027396    0.599787
    124          1           0      -30.391339   -3.662063    1.588775
    125          1           0      -36.385793   -3.077490   -0.830836
    126          1           0      -35.353758    3.079285   -2.039388
    127          1           0      -28.106681    0.616854    1.515269
    128          1           0      -29.307085   -1.425579    2.942054
    129          1           0      -28.311864   -2.583608    0.407364
    130          1           0      -27.400027   -2.665200    1.893781
    131          1           0      -27.176162   -1.336116    0.751436
    132          1           0      -29.770555    0.215077    3.865583
    133          1           0      -30.250454    1.768465    3.252251
    134          1           0      -28.594138    2.865417    4.109224
    135          1           0      -27.397497    1.885258    3.459681
    136          1           0      -31.821963   -5.292827    2.274800
    137          1           0      -31.124520   -5.863964    0.787536
    138          1           0      -32.546370   -6.650698    1.295427
    139          1           0      -37.142655   -5.023413   -0.147198
    140          1           0      -36.629758   -6.615304   -1.111517
    141          1           0      -36.260664   -5.017364   -1.694173
    142          1           0      -37.800395   -0.762652   -0.548279
    143          1           0      -36.871402    0.893226   -2.799628
    144          1           0      -39.074987   -1.108527   -2.296288
    145          1           0      -37.794401   -2.364562   -2.626052
    146          1           0      -37.798948   -0.770073   -3.504129
    147          1           0      -37.263658    2.516590   -0.368167
    148          1           0      -38.479244    1.326680   -0.224690
    149          1           0      -38.835913    3.824354   -1.564875
    150          1           0      -39.879871    2.389649   -1.748441
    151          1           0      -38.670949    2.687138   -2.911984
    152          1           0      -32.672124    5.901800   -1.666417
    153          1           0      -34.094164    5.363914   -0.670727
    154          1           0      -34.222532    4.985942   -2.304156
    155          1           0      -29.581309    3.392376    1.743704
    156          1           0      -25.691516    3.839682   -0.080483
    157          1           0      -25.748090    2.060756    0.135334
    158          1           0      -25.316593    3.133238    1.481631
 ---------------------------------------------------------------------

 SCF Done:  E(RwB97XD) =  -4070.58950337     A.U. after   20 cycles

 Excitation energies and oscillator strengths:

 Excited State   1:      Singlet-A      1.6248 eV  763.08 nm  f=0.3540  <S**2>=0.000
     309 -> 315       -0.17973
     311 -> 313        0.68477
     309 <- 315       -0.11750
 This state for optimization and/or second-order correction.
 Total Energy, E(TD-HF/TD-DFT) =  -4070.52979382
 Copying the excited state density for this state as the 1-particle RhoCI density.

 Excited State   2:      Singlet-A      1.6376 eV  757.09 nm  f=0.3954  <S**2>=0.000
     310 -> 316       -0.19097
     312 -> 314        0.68323
     310 <- 316       -0.12121

 Excited State   3:      Singlet-A      2.1634 eV  573.10 nm  f=0.1559  <S**2>=0.000
     309 -> 313        0.64646
     311 -> 315        0.27023

 Excited State   4:      Singlet-A      2.1989 eV  563.84 nm  f=0.1288  <S**2>=0.000
     310 -> 314        0.63869
     312 -> 316        0.29224

 Excited State   5:      Singlet-A      3.2311 eV  383.72 nm  f=0.0021  <S**2>=0.000
     306 -> 313       -0.25011
     306 -> 317       -0.10042
     307 -> 313        0.63502

 The electronic state is 1-A.
 Alpha  occ. eigenvalues --  -46.95379 -46.95250 -19.31507 -19.30875 -19.25982
 Alpha  occ. eigenvalues --  -19.25527 -19.24897 -19.24814 -19.23379 -19.23182
 Alpha  occ. eigenvalues --  -14.47004 -14.46838 -14.46546 -14.45969 -14.44715
 Alpha  occ. eigenvalues --  -14.44554 -14.44425 -14.43629 -10.44265 -10.43953
 Alpha  occ. eigenvalues --  -10.39693 -10.39507 -10.39498 -10.39249 -10.36198
 Alpha  occ. eigenvalues --  -10.36076 -10.35419 -10.35214 -10.35137 -10.34903
 Alpha  occ. eigenvalues --  -10.34787 -10.34753 -10.34728 -10.34673 -10.34569
 Alpha  occ. eigenvalues --  -10.34397 -10.34392 -10.34325 -10.33774 -10.33099
 Alpha  occ. eigenvalues --  -10.33079 -10.32960 -10.32884 -10.32789 -10.32725
 Alpha  occ. eigenvalues --  -10.32720 -10.32605 -10.32595 -10.32458 -10.32444
 Alpha  occ. eigenvalues --  -10.32382 -10.32286 -10.32255 -10.32050 -10.31876
 Alpha  occ. eigenvalues --  -10.31849 -10.31670 -10.31632 -10.31622 -10.31581
 Alpha  occ. eigenvalues --  -10.31558 -10.31546 -10.31438 -10.31410 -10.31272
 Alpha  occ. eigenvalues --  -10.31235 -10.31194 -10.31106 -10.31103 -10.30945
 Alpha  occ. eigenvalues --  -10.30829 -10.30668 -10.30559 -10.30478 -10.30476
 Alpha  occ. eigenvalues --  -10.30388 -10.30278 -10.30194 -10.30127 -10.29897
 Alpha  occ. eigenvalues --  -10.29888 -10.29334 -10.29148 -10.29020 -10.28980
 Alpha  occ. eigenvalues --  -10.28618  -3.21385  -3.21247  -1.94954  -1.94825
 Alpha  occ. eigenvalues --   -1.94512  -1.94359  -1.94358  -1.94231  -1.18731
 Alpha  occ. eigenvalues --   -1.17770  -1.14297  -1.13088  -1.10374  -1.10187
 Alpha  occ. eigenvalues --   -1.09871  -1.09455  -1.07470  -1.07275  -1.06756
 Alpha  occ. eigenvalues --   -1.06312  -1.05753  -1.05413  -1.04824  -1.04394
 Alpha  occ. eigenvalues --   -0.95306  -0.95163  -0.91796  -0.91278  -0.91244
 Alpha  occ. eigenvalues --   -0.90968  -0.90206  -0.90004  -0.89889  -0.89814
 Alpha  occ. eigenvalues --   -0.89417  -0.88985  -0.87972  -0.87928  -0.86793
 Alpha  occ. eigenvalues --   -0.86589  -0.86222  -0.85762  -0.84609  -0.84584
 Alpha  occ. eigenvalues --   -0.83920  -0.83884  -0.83333  -0.82681  -0.82470
 Alpha  occ. eigenvalues --   -0.82445  -0.80189  -0.79791  -0.79592  -0.79396
 Alpha  occ. eigenvalues --   -0.78845  -0.78823  -0.78442  -0.78223  -0.77482
 Alpha  occ. eigenvalues --   -0.77287  -0.75542  -0.75201  -0.74231  -0.74196
 Alpha  occ. eigenvalues --   -0.71730  -0.71396  -0.71382  -0.70939  -0.70434
 Alpha  occ. eigenvalues --   -0.69683  -0.69273  -0.68746  -0.68262  -0.68070
 Alpha  occ. eigenvalues --   -0.67693  -0.67623  -0.67399  -0.67116  -0.66965
 Alpha  occ. eigenvalues --   -0.66779  -0.65132  -0.64958  -0.62548  -0.62144
 Alpha  occ. eigenvalues --   -0.62086  -0.61929  -0.61626  -0.61507  -0.60987
 Alpha  occ. eigenvalues --   -0.60901  -0.60401  -0.60105  -0.59596  -0.58842
 Alpha  occ. eigenvalues --   -0.58249  -0.58181  -0.57902  -0.57807  -0.57649
 Alpha  occ. eigenvalues --   -0.57601  -0.56874  -0.56852  -0.56471  -0.56336
 Alpha  occ. eigenvalues --   -0.55854  -0.55665  -0.55541  -0.55292  -0.55187
 Alpha  occ. eigenvalues --   -0.54893  -0.54653  -0.54576  -0.54261  -0.54059
 Alpha  occ. eigenvalues --   -0.54027  -0.53693  -0.53644  -0.53351  -0.53181
 Alpha  occ. eigenvalues --   -0.53067  -0.52838  -0.52528  -0.52489  -0.52267
 Alpha  occ. eigenvalues --   -0.52249  -0.52017  -0.51992  -0.51900  -0.51849
 Alpha  occ. eigenvalues --   -0.51623  -0.51527  -0.51351  -0.50873  -0.50728
 Alpha  occ. eigenvalues --   -0.50584  -0.50405  -0.50286  -0.49953  -0.49856
 Alpha  occ. eigenvalues --   -0.49691  -0.49656  -0.49603  -0.49543  -0.49398
 Alpha  occ. eigenvalues --   -0.49181  -0.48984  -0.48864  -0.48576  -0.48572
 Alpha  occ. eigenvalues --   -0.48445  -0.48388  -0.48089  -0.47975  -0.47892
 Alpha  occ. eigenvalues --   -0.47854  -0.47709  -0.47543  -0.47457  -0.47380
 Alpha  occ. eigenvalues --   -0.47273  -0.47149  -0.46965  -0.46837  -0.46476
 Alpha  occ. eigenvalues --   -0.46007  -0.45909  -0.45684  -0.45673  -0.45573
 Alpha  occ. eigenvalues --   -0.45534  -0.45222  -0.45210  -0.45020  -0.44909
 Alpha  occ. eigenvalues --   -0.44771  -0.44648  -0.44442  -0.44393  -0.44342
 Alpha  occ. eigenvalues --   -0.44245  -0.44002  -0.43675  -0.43494  -0.43492
 Alpha  occ. eigenvalues --   -0.43431  -0.43144  -0.43081  -0.43056  -0.42784
 Alpha  occ. eigenvalues --   -0.42242  -0.42141  -0.42058  -0.40984  -0.40865
 Alpha  occ. eigenvalues --   -0.40700  -0.40661  -0.40216  -0.40174  -0.39770
 Alpha  occ. eigenvalues --   -0.39767  -0.39591  -0.39517  -0.39290  -0.38550
 Alpha  occ. eigenvalues --   -0.38394  -0.37754  -0.37399  -0.37148  -0.36702
 Alpha  occ. eigenvalues --   -0.36103  -0.35498  -0.35293  -0.34001  -0.33556
 Alpha  occ. eigenvalues --   -0.33150  -0.33137  -0.32570  -0.32326  -0.32239
 Alpha  occ. eigenvalues --   -0.32185  -0.31975  -0.31553  -0.26343  -0.26086
 Alpha  occ. eigenvalues --   -0.23481  -0.23116
 Alpha virt. eigenvalues --   -0.07712  -0.07293   0.00060   0.00177   0.02298
 Alpha virt. eigenvalues --    0.02384   0.04417   0.04499   0.04983   0.05476
 Alpha virt. eigenvalues --    0.06257   0.06400   0.07423   0.07574   0.08138

 Mulliken charges:
               1
     1  Mg   0.972118
     2  C    0.037664
     3  C   -0.077607
     4  C   -0.047434
     5  C   -0.092948
     6  N   -0.359252
     7  C   -0.051838
     8  C   -0.053902
     9  C   -0.081818
    10  C    0.068514
    11  C    0.030555
    12  C    0.005065
    13  C   -0.116272
    14  H    0.047960
    15  N   -0.473364
    16  C    0.150687
    17  C   -0.148702
    18  C   -0.063243
    19  C    0.180156
    20  C    0.070491
    21  C    0.021610
    22  O   -0.276250
    23  C    0.023622
    24  N   -0.303495
    25  C    0.005174
    26  C   -0.045798
    27  C   -0.064936
    28  C    0.055409
    29  C    0.009439
    30  C   -0.002978
    31  C   -0.061496
    32  N   -0.466505
    33  C    0.108581
    34  C   -0.190644
    35  C   -0.079761
    36  C    0.147770
    37  C    0.086699
    38  C    0.122337
    39  O   -0.159451
    40  C   -0.057436
    41  C    0.245388
    42  O   -0.241415
    43  O   -0.390668
    44  C    0.140061
    45  H    0.005742
    46  H   -0.060384
    47  H    0.006924
    48  H    0.035234
    49  H    0.038493
    50  H    0.038050
    51  H    0.024518
    52  H    0.047539
    53  H    0.031361
    54  H    0.047670
    55  H    0.050631
    56  H    0.054802
    57  H    0.034280
    58  H    0.046800
    59  H    0.065059
    60  H    0.062882
    61  H    0.064259
    62  H    0.063541
    63  H    0.043480
    64  H    0.043093
    65  H    0.033455
    66  H    0.024388
    67  H    0.040187
    68  H    0.030987
    69  H    0.026667
    70  H    0.031348
    71  H    0.020872
    72  H    0.039958
    73  H    0.062297
    74  H    0.052061
    75  H    0.046488
    76  H    0.069839
    77  H    0.047274
    78  H    0.043970
    79  H    0.064147
    80  Mg   0.980696
    81  C   -0.124028
    82  C   -0.080655
    83  C   -0.101730
    84  C   -0.096394
    85  N   -0.314574
    86  C   -0.024861
    87  C   -0.047731
    88  C   -0.085468
    89  C    0.061015
    90  C    0.030220
    91  C   -0.009459
    92  C   -0.101196
    93  H    0.050334
    94  N   -0.481315
    95  C    0.127598
    96  C   -0.142748
    97  C   -0.097803
    98  C    0.230067
    99  C    0.076978
   100  C    0.025862
   101  O   -0.277711
   102  C    0.020024
   103  N   -0.347122
   104  C    0.019204
   105  C   -0.090691
   106  C   -0.108935
   107  C    0.094229
   108  C    0.033662
   109  C    0.010063
   110  C   -0.047585
   111  N   -0.436843
   112  C    0.106410
   113  C   -0.206247
   114  C   -0.066855
   115  C    0.193046
   116  C    0.118167
   117  C    0.144248
   118  O   -0.188421
   119  C   -0.050655
   120  C    0.292220
   121  O   -0.254428
   122  O   -0.371161
   123  C    0.136618
   124  H   -0.000093
   125  H   -0.036499
   126  H    0.002955
   127  H    0.018586
   128  H    0.029562
   129  H    0.037173
   130  H    0.045344
   131  H    0.037059
   132  H    0.031085
   133  H    0.053688
   134  H    0.048094
   135  H    0.042420
   136  H    0.047771
   137  H    0.033332
   138  H    0.069409
   139  H    0.083976
   140  H    0.065107
   141  H    0.043365
   142  H    0.038418
   143  H    0.032678
   144  H    0.040663
   145  H    0.041122
   146  H    0.031827
   147  H    0.033597
   148  H    0.025553
   149  H    0.046669
   150  H    0.035588
   151  H    0.033276
   152  H    0.080932
   153  H    0.046771
   154  H    0.029904
   155  H    0.059546
   156  H    0.065658
   157  H    0.052752
   158  H    0.056665
 Sum of Mulliken charges =  -0.00000

 Dipole moment (field-independent basis, Debye):
    X=              1.0458    Y=              2.0915    Z=             -2.1750  Tot=              3.1935
 Quadrupole moment (field-independent basis, Debye-Ang):
   XX=           -188.1945   YY=           -613.9152   ZZ=           -503.7815
   XY=             27.4239   XZ=            -65.1792   YZ=              8.9313

 Normal termination of Gaussian 16 at Sun Sep 19 18:49:56 2021.
