 Gaussian 16, Revision A.03,
 Gaussian 16:  ES64L-G16RevA.03 25-Dec-2016

 --------------------------------
 #p wB97XD/Def2SVP td=(nstates=5)
 --------------------------------

 --------------------------------
 TDDFT excited states in gaussian
 --------------------------------
 Symbolic Z-matrix:
 Charge =  0 Multiplicity = 1

                         Standard orientation:
 ---------------------------------------------------------------------
 Center     Atomic      Atomic             Coordinates (Angstroms)
 Number     Number       Type             X           Y           Z
 ---------------------------------------------------------------------
      1         12           0       25.876916   -0.782152    0.184466
      2          6           0       26.931939    2.435530   -0.839935
      3          6           0       24.992764    0.550848    3.242744
      4          6           0       25.148698   -3.918588    1.239972
      5          6           0       26.987059   -2.126148   -2.857024
      6          7           0       26.089121    1.251521    1.033675
      7          6           0       26.335330    2.456054    0.379059
      8          6           0       26.103177    3.693855    1.338937
      9          6           0       25.759465    2.994704    2.681161
     10          6           0       25.649062    1.491027    2.343272
     11          6           0       26.725379    3.219900    3.904038
     12          6           0       25.122371    4.823007    0.818612
     13          6           0       25.731407    6.185951    0.685106
     14          1           0       24.795238    7.403749    1.055301
     15          7           0       25.194995   -1.507269    1.967212
     16          6           0       24.814818   -0.821661    3.103062
     17          6           0       24.384031   -1.769590    4.118715
     18          6           0       24.407911   -3.089264    3.585154
     19          6           0       24.916749   -2.886663    2.178829
     20          6           0       23.820042   -1.362828    5.494988
     21          6           0       23.989552   -4.413147    4.216666
     22          8           0       23.975742   -5.471261    3.622042
     23          6           0       23.420609   -4.557976    5.687487
     24          7           0       26.139460   -2.776054   -0.669325
     25          6           0       25.761586   -3.881111   -0.040086
     26          6           0       25.994635   -5.165384   -0.913266
     27          6           0       26.407348   -4.554463   -2.310647
     28          6           0       26.501125   -3.040260   -1.953322
     29          6           0       26.980223   -6.160594   -0.235311
     30          6           0       25.427507   -4.921650   -3.407468
     31          6           0       26.087586   -5.295897   -4.733349
     32          7           0       26.905281   -0.116977   -1.500563
     33          6           0       27.204233   -0.738504   -2.697846
     34          6           0       27.907179    0.209922   -3.505847
     35          6           0       27.801476    1.472575   -2.871609
     36          6           0       27.175592    1.244061   -1.614459
     37          6           0       28.541131   -0.062709   -4.817014
     38          6           0       28.050266    2.915986   -3.030878
     39          8           0       28.663466    3.568686   -3.870441
     40          6           0       27.397355    3.613386   -1.607152
     41          6           0       28.411087    4.358206   -0.927826
     42          8           0       28.978972    3.991827    0.078177
     43          8           0       28.561679    5.605299   -1.490901
     44          6           0       29.644744    6.394346   -0.852878
     45          1           0       24.586028    0.947885    4.175353
     46          1           0       24.977664   -4.953049    1.543372
     47          1           0       27.223444   -2.611046   -3.807157
     48          1           0       27.106717    4.074631    1.525639
     49          1           0       24.774675    3.301868    3.033338
     50          1           0       26.090790    3.332100    4.783687
     51          1           0       27.323437    4.110139    3.710906
     52          1           0       27.414817    2.396195    4.090260
     53          1           0       24.275603    4.818873    1.505095
     54          1           0       24.804840    4.524804   -0.180709
     55          1           0       26.040896    6.350204   -0.347883
     56          1           0       26.605482    6.136082    1.333804
     57          1           0       22.770238   -1.652352    5.464507
     58          1           0       23.796659   -0.274775    5.560255
     59          1           0       24.280222   -1.843667    6.359090
     60          1           0       22.546852   -3.911095    5.773266
     61          1           0       24.199701   -4.511413    6.448950
     62          1           0       23.208163   -5.621706    5.790202
     63          1           0       25.083276   -5.731050   -1.105997
     64          1           0       27.422127   -4.905612   -2.498818
     65          1           0       27.749790   -6.427087   -0.960334
     66          1           0       26.486728   -7.030387    0.199042
     67          1           0       27.472343   -5.671962    0.604018
     68          1           0       24.702260   -4.130042   -3.592946
     69          1           0       24.755701   -5.742392   -3.151396
     70          1           0       27.153593   -5.068332   -4.726351
     71          1           0       25.615428   -4.673234   -5.493775
     72          1           0       25.867213   -6.320170   -5.034429
     73          1           0       28.486592   -1.082398   -5.198149
     74          1           0       29.513864    0.429817   -4.789372
     75          1           0       27.837099    0.384845   -5.518947
     76          1           0       26.576693    4.276307   -1.882766
     77          1           0       30.593343    5.865761   -0.949553
     78          1           0       29.317504    6.580630    0.169984
     79          1           0       29.809213    7.357084   -1.335234
     80         12           0      -26.839441   -0.476120   -0.150741
     81          6           0      -24.934199    2.415925   -0.880580
     82          6           0      -27.998851    1.098912    2.599588
     83          6           0      -28.471698   -3.226865    0.547435
     84          6           0      -24.923925   -2.171562   -2.665521
     85          7           0      -26.434557    1.531898    0.853166
     86          6           0      -25.821889    2.589445    0.202008
     87          6           0      -26.162070    3.822795    0.966819
     88          6           0      -26.637369    3.317908    2.329536
     89          6           0      -27.092127    1.887215    1.946898
     90          6           0      -25.445249    3.264804    3.357025
     91          6           0      -27.243366    4.826389    0.291406
     92          6           0      -27.020408    6.369386    0.327563
     93          1           0      -26.666574    6.993940    1.708213
     94          7           0      -28.070776   -0.968594    1.410776
     95          6           0      -28.417759   -0.191211    2.393810
     96          6           0      -29.291522   -0.955906    3.300491
     97          6           0      -29.638135   -2.168447    2.630903
     98          6           0      -28.693686   -2.184719    1.477906
     99          6           0      -29.825487   -0.552345    4.722962
    100          6           0      -30.672709   -3.246984    2.950714
    101          8           0      -30.780816   -4.321251    2.329086
    102          6           0      -31.448514   -3.118305    4.174653
    103          7           0      -26.558420   -2.511316   -0.881930
    104          6           0      -27.487434   -3.468129   -0.481655
    105          6           0      -27.338417   -4.740382   -1.402207
    106          6           0      -26.311394   -4.288178   -2.470060
    107          6           0      -25.922084   -2.880221   -2.013994
    108          6           0      -27.019992   -6.012650   -0.616387
    109          6           0      -26.759725   -4.416026   -3.947719
    110          6           0      -25.711493   -4.892797   -4.980023
    111          7           0      -25.250150   -0.035531   -1.499208
    112          6           0      -24.547047   -0.816655   -2.410903
    113          6           0      -23.675269    0.041133   -3.172588
    114          6           0      -23.754746    1.296851   -2.568601
    115          6           0      -24.741017    1.235848   -1.545776
    116          6           0      -22.918326   -0.308598   -4.301747
    117          6           0      -23.297497    2.693260   -2.623026
    118          8           0      -22.532969    3.287152   -3.366780
    119          6           0      -24.082020    3.482964   -1.524721
    120          6           0      -23.054120    4.130571   -0.614080
    121          8           0      -22.422721    3.737192    0.340484
    122          8           0      -23.052837    5.417813   -1.068137
    123          6           0      -22.422556    6.450688   -0.211748
    124          1           0      -28.450237    1.625491    3.443499
    125          1           0      -29.181776   -4.043841    0.691190
    126          1           0      -24.498762   -2.605417   -3.572461
    127          1           0      -25.338117    4.511746    1.154355
    128          1           0      -27.541328    3.820447    2.672785
    129          1           0      -25.740972    3.460244    4.387225
    130          1           0      -24.704555    4.048783    3.197493
    131          1           0      -25.075987    2.241267    3.302705
    132          1           0      -28.241172    4.571488    0.646970
    133          1           0      -27.350399    4.586148   -0.767040
    134          1           0      -28.014425    6.748512    0.087543
    135          1           0      -26.249540    6.496245   -0.432587
    136          1           0      -30.895352   -0.353337    4.781040
    137          1           0      -29.277923    0.341339    5.023616
    138          1           0      -29.748190   -1.327551    5.485361
    139          1           0      -31.957546   -2.154906    4.213951
    140          1           0      -30.810287   -3.229645    5.051311
    141          1           0      -32.275366   -3.823672    4.097715
    142          1           0      -28.278861   -4.825481   -1.946862
    143          1           0      -25.358852   -4.797391   -2.324830
    144          1           0      -25.937997   -6.112632   -0.524312
    145          1           0      -27.323246   -6.936804   -1.107367
    146          1           0      -27.308373   -5.867252    0.424146
    147          1           0      -27.250259   -3.526021   -4.341583
    148          1           0      -27.594490   -5.111847   -4.042100
    149          1           0      -25.348395   -3.970216   -5.433142
    150          1           0      -26.289627   -5.432404   -5.730836
    151          1           0      -24.923778   -5.458117   -4.482763
    152          1           0      -22.042416    0.279363   -4.575012
    153          1           0      -23.616661   -0.374740   -5.136640
    154          1           0      -22.514433   -1.295871   -4.080488
    155          1           0      -24.724323    4.230510   -1.989892
    156          1           0      -23.114813    7.291560   -0.243234
    157          1           0      -21.449424    6.818010   -0.536625
    158          1           0      -22.356276    6.092482    0.815241
 ---------------------------------------------------------------------

 SCF Done:  E(RwB97XD) =  -4070.60316930     A.U. after   19 cycles

 Excitation energies and oscillator strengths:

 Excited State   1:      Singlet-A      1.6742 eV  740.55 nm  f=0.3808  <S**2>=0.000
     310 -> 315       -0.19698
     312 -> 314        0.67926
     310 <- 315       -0.11759
 This state for optimization and/or second-order correction.
 Total Energy, E(TD-HF/TD-DFT) =  -4070.54164291
 Copying the excited state density for this state as the 1-particle RhoCI density.

 Excited State   2:      Singlet-A      1.7608 eV  704.12 nm  f=0.3724  <S**2>=0.000
     309 -> 316       -0.17858
     311 -> 313        0.68336
     309 <- 316       -0.10772

 Excited State   3:      Singlet-A      2.2066 eV  561.88 nm  f=0.0647  <S**2>=0.000
     310 -> 314        0.62030
     312 -> 315        0.32383

 Excited State   4:      Singlet-A      2.2095 eV  561.14 nm  f=0.1145  <S**2>=0.000
     309 -> 313        0.63735
     311 -> 316        0.28419

 Excited State   5:      Singlet-A      3.4491 eV  359.47 nm  f=0.0259  <S**2>=0.000
     303 -> 313       -0.29679
     308 -> 313        0.60907

 The electronic state is 1-A.
 Alpha  occ. eigenvalues --  -46.95720 -46.94566 -19.29617 -19.29471 -19.24985
 Alpha  occ. eigenvalues --  -19.24950 -19.24343 -19.24315 -19.24065 -19.23740
 Alpha  occ. eigenvalues --  -14.46886 -14.46379 -14.46324 -14.46016 -14.45002
 Alpha  occ. eigenvalues --  -14.44442 -14.43564 -14.43258 -10.43099 -10.42056
 Alpha  occ. eigenvalues --  -10.40441 -10.39954 -10.39506 -10.38844 -10.36653
 Alpha  occ. eigenvalues --  -10.36157 -10.35788 -10.35347 -10.35271 -10.35213
 Alpha  occ. eigenvalues --  -10.34947 -10.34843 -10.34832 -10.34447 -10.34339
 Alpha  occ. eigenvalues --  -10.34133 -10.34056 -10.34003 -10.33847 -10.33732
 Alpha  occ. eigenvalues --  -10.33663 -10.33573 -10.33065 -10.32650 -10.32573
 Alpha  occ. eigenvalues --  -10.32371 -10.32211 -10.32075 -10.31999 -10.31975
 Alpha  occ. eigenvalues --  -10.31941 -10.31894 -10.31844 -10.31841 -10.31653
 Alpha  occ. eigenvalues --  -10.31652 -10.31630 -10.31625 -10.31594 -10.31592
 Alpha  occ. eigenvalues --  -10.31382 -10.31361 -10.31310 -10.31264 -10.31153
 Alpha  occ. eigenvalues --  -10.30869 -10.30779 -10.30678 -10.30642 -10.30580
 Alpha  occ. eigenvalues --  -10.30579 -10.30315 -10.30288 -10.30239 -10.30116
 Alpha  occ. eigenvalues --  -10.29932 -10.29862 -10.29671 -10.29644 -10.29574
 Alpha  occ. eigenvalues --  -10.29482 -10.29104 -10.29068 -10.28902 -10.28849
 Alpha  occ. eigenvalues --  -10.28829  -3.21565  -3.20532  -1.95148  -1.94686
 Alpha  occ. eigenvalues --   -1.94524  -1.94129  -1.93647  -1.93511  -1.18300
 Alpha  occ. eigenvalues --   -1.17941  -1.13781  -1.11837  -1.11593  -1.11420
 Alpha  occ. eigenvalues --   -1.09978  -1.09542  -1.07198  -1.06068  -1.05957
 Alpha  occ. eigenvalues --   -1.05060  -1.04528  -1.04103  -1.03949  -1.02926
 Alpha  occ. eigenvalues --   -0.94756  -0.93740  -0.90971  -0.90776  -0.90377
 Alpha  occ. eigenvalues --   -0.90279  -0.89996  -0.89889  -0.89499  -0.89246
 Alpha  occ. eigenvalues --   -0.89085  -0.88818  -0.88808  -0.87458  -0.86264
 Alpha  occ. eigenvalues --   -0.86149  -0.85494  -0.85486  -0.84623  -0.84417
 Alpha  occ. eigenvalues --   -0.84400  -0.83456  -0.82983  -0.82646  -0.82578
 Alpha  occ. eigenvalues --   -0.82040  -0.80436  -0.80357  -0.79383  -0.78962
 Alpha  occ. eigenvalues --   -0.78815  -0.78340  -0.77797  -0.77642  -0.77059
 Alpha  occ. eigenvalues --   -0.76665  -0.74506  -0.74197  -0.73800  -0.73275
 Alpha  occ. eigenvalues --   -0.71079  -0.70872  -0.70725  -0.70679  -0.69705
 Alpha  occ. eigenvalues --   -0.69414  -0.69336  -0.69131  -0.67514  -0.67439
 Alpha  occ. eigenvalues --   -0.67296  -0.66978  -0.66728  -0.66589  -0.66336
 Alpha  occ. eigenvalues --   -0.66333  -0.63949  -0.63110  -0.62497  -0.62074
 Alpha  occ. eigenvalues --   -0.61570  -0.61241  -0.61140  -0.60755  -0.60301
 Alpha  occ. eigenvalues --   -0.59927  -0.59906  -0.59734  -0.59507  -0.58992
 Alpha  occ. eigenvalues --   -0.58171  -0.57931  -0.57869  -0.57650  -0.57146
 Alpha  occ. eigenvalues --   -0.56700  -0.56415  -0.56115  -0.55650  -0.55602
 Alpha  occ. eigenvalues --   -0.55519  -0.55220  -0.55194  -0.55153  -0.55147
 Alpha  occ. eigenvalues --   -0.54935  -0.54888  -0.54482  -0.54344  -0.54046
 Alpha  occ. eigenvalues --   -0.54033  -0.53615  -0.53597  -0.53515  -0.53300
 Alpha  occ. eigenvalues --   -0.53163  -0.53026  -0.52761  -0.52729  -0.52487
 Alpha  occ. eigenvalues --   -0.52358  -0.52030  -0.51908  -0.51605  -0.51505
 Alpha  occ. eigenvalues --   -0.51437  -0.51340  -0.51339  -0.50943  -0.50743
 Alpha  occ. eigenvalues --   -0.50617  -0.50548  -0.50111  -0.49947  -0.49897
 Alpha  occ. eigenvalues --   -0.49660  -0.49582  -0.49458  -0.49323  -0.49040
 Alpha  occ. eigenvalues --   -0.48866  -0.48676  -0.48584  -0.48316  -0.48202
 Alpha  occ. eigenvalues --   -0.48108  -0.47900  -0.47869  -0.47475  -0.47449
 Alpha  occ. eigenvalues --   -0.47083  -0.46978  -0.46827  -0.46736  -0.46642
 Alpha  occ. eigenvalues --   -0.46617  -0.46397  -0.46314  -0.46011  -0.45945
 Alpha  occ. eigenvalues --   -0.45859  -0.45777  -0.45628  -0.45460  -0.45175
 Alpha  occ. eigenvalues --   -0.45140  -0.44965  -0.44957  -0.44901  -0.44697
 Alpha  occ. eigenvalues --   -0.44283  -0.44238  -0.44175  -0.44100  -0.43932
 Alpha  occ. eigenvalues --   -0.43875  -0.43512  -0.43389  -0.43213  -0.43117
 Alpha  occ. eigenvalues --   -0.42810  -0.42449  -0.42446  -0.42186  -0.42135
 Alpha  occ. eigenvalues --   -0.41920  -0.41774  -0.41548  -0.41493  -0.41294
 Alpha  occ. eigenvalues --   -0.40681  -0.40584  -0.39701  -0.39635  -0.39338
 Alpha  occ. eigenvalues --   -0.39189  -0.38878  -0.38585  -0.38483  -0.38209
 Alpha  occ. eigenvalues --   -0.37848  -0.37821  -0.36660  -0.36148  -0.35925
 Alpha  occ. eigenvalues --   -0.35764  -0.35323  -0.35315  -0.33899  -0.33695
 Alpha  occ. eigenvalues --   -0.33478  -0.33375  -0.32865  -0.32741  -0.32445
 Alpha  occ. eigenvalues --   -0.32164  -0.31432  -0.30734  -0.26002  -0.25901
 Alpha  occ. eigenvalues --   -0.23137  -0.22786
 Alpha virt. eigenvalues --   -0.06820  -0.06633  -0.00156   0.00168   0.01916
 Alpha virt. eigenvalues --    0.02110   0.04229   0.04274   0.05009   0.06036
 Alpha virt. eigenvalues --    0.06939   0.07843   0.07929   0.08032   0.08231

 Mulliken charges:
               1
     1  Mg   0.955243
     2  C    0.013751
     3  C   -0.100439
     4  C   -0.065546
     5  C   -0.067011
     6  N   -0.380773
     7  C   -0.011650
     8  C   -0.052109
     9  C   -0.156801
    10  C    0.113078
    11  C    0.022925
    12  C    0.049741
    13  C   -0.135359
    14  H    0.029619
    15  N   -0.510002
    16  C    0.184490
    17  C   -0.168063
    18  C   -0.051422
    19  C    0.184713
    20  C    0.065846
    21  C    0.037447
    22  O   -0.218194
    23  C   -0.019076
    24  N   -0.317884
    25  C    0.037531
    26  C   -0.121230
    27  C   -0.060557
    28  C    0.021276
    29  C    0.018083
    30  C    0.000721
    31  C   -0.057025
    32  N   -0.463639
    33  C    0.166532
    34  C   -0.208652
    35  C   -0.042140
    36  C    0.161105
    37  C    0.091211
    38  C    0.152341
    39  O   -0.199099
    40  C   -0.162734
    41  C    0.269530
    42  O   -0.250521
    43  O   -0.372336
    44  C    0.150478
    45  H   -0.008611
    46  H    0.020412
    47  H   -0.018253
    48  H    0.051687
    49  H    0.032791
    50  H    0.036894
    51  H    0.043457
    52  H    0.050783
    53  H    0.038845
    54  H    0.034444
    55  H    0.066039
    56  H    0.050574
    57  H    0.052572
    58  H    0.034064
    59  H    0.066405
    60  H    0.061627
    61  H    0.055619
    62  H    0.047382
    63  H    0.040353
    64  H    0.034384
    65  H    0.035210
    66  H    0.050598
    67  H    0.041468
    68  H    0.030963
    69  H    0.027964
    70  H    0.041051
    71  H    0.031101
    72  H    0.041230
    73  H    0.019049
    74  H    0.070158
    75  H    0.044835
    76  H    0.079891
    77  H    0.060074
    78  H    0.049455
    79  H    0.052085
    80  Mg   0.941991
    81  C   -0.051945
    82  C   -0.101168
    83  C   -0.067646
    84  C   -0.090873
    85  N   -0.320348
    86  C    0.052355
    87  C   -0.094468
    88  C   -0.080787
    89  C   -0.005967
    90  C    0.041946
    91  C   -0.020879
    92  C   -0.113930
    93  H    0.029604
    94  N   -0.428094
    95  C    0.194929
    96  C   -0.167294
    97  C   -0.071021
    98  C    0.113712
    99  C    0.058654
   100  C    0.066997
   101  O   -0.250760
   102  C   -0.004243
   103  N   -0.356260
   104  C    0.033227
   105  C   -0.062149
   106  C   -0.056354
   107  C    0.068527
   108  C    0.048398
   109  C   -0.039071
   110  C   -0.040890
   111  N   -0.439142
   112  C    0.135361
   113  C   -0.196851
   114  C   -0.015742
   115  C    0.167356
   116  C    0.061232
   117  C    0.109505
   118  O   -0.199664
   119  C   -0.077055
   120  C    0.279483
   121  O   -0.226469
   122  O   -0.373842
   123  C    0.131582
   124  H   -0.012461
   125  H    0.026179
   126  H   -0.012841
   127  H    0.024508
   128  H    0.020089
   129  H    0.029351
   130  H    0.045917
   131  H    0.057423
   132  H    0.021579
   133  H    0.024532
   134  H    0.065224
   135  H    0.071819
   136  H    0.043727
   137  H    0.041007
   138  H    0.041527
   139  H    0.037725
   140  H    0.075191
   141  H    0.054613
   142  H    0.039220
   143  H    0.033347
   144  H    0.015957
   145  H    0.046706
   146  H    0.047937
   147  H    0.025320
   148  H    0.022977
   149  H    0.043226
   150  H    0.039868
   151  H    0.045432
   152  H    0.060001
   153  H    0.054180
   154  H    0.037933
   155  H    0.081388
   156  H    0.047556
   157  H    0.063806
   158  H    0.058091
 Sum of Mulliken charges =  -0.00000

 Dipole moment (field-independent basis, Debye):
    X=             -7.4512    Y=             -0.6414    Z=              5.0734  Tot=              9.0373
 Quadrupole moment (field-independent basis, Debye-Ang):
   XX=           -473.8015   YY=           -492.2911   ZZ=           -478.1525
   XY=            -80.7340   XZ=             61.4234   YZ=             47.9046

 Normal termination of Gaussian 16 at Mon Sep 20 13:54:33 2021.
