 Gaussian 16, Revision A.03,
 Gaussian 16:  ES64L-G16RevA.03 25-Dec-2016

 --------------------------------
 #p wB97XD/Def2SVP td=(nstates=5)
 --------------------------------

 --------------------------------
 TDDFT excited states in gaussian
 --------------------------------
 Symbolic Z-matrix:
 Charge =  0 Multiplicity = 1

                         Standard orientation:
 ---------------------------------------------------------------------
 Center     Atomic      Atomic             Coordinates (Angstroms)
 Number     Number       Type             X           Y           Z
 ---------------------------------------------------------------------
      1         12           0       26.381113   -0.901102    0.209728
      2          6           0       27.136369    2.427579   -0.935556
      3          6           0       25.345256    0.519104    3.136136
      4          6           0       25.968125   -4.018735    1.376464
      5          6           0       27.906398   -2.102038   -2.579970
      6          7           0       26.213703    1.337694    0.995488
      7          6           0       26.552829    2.456680    0.291713
      8          6           0       26.092385    3.624265    1.079163
      9          6           0       25.641876    3.043776    2.448265
     10          6           0       25.759604    1.505122    2.271742
     11          6           0       26.551391    3.538041    3.617856
     12          6           0       25.039912    4.485253    0.426666
     13          6           0       24.683624    5.823849    1.052895
     14          1           0       24.662038    6.991021    0.157813
     15          7           0       25.649786   -1.630795    1.941501
     16          6           0       25.355759   -0.869595    3.106366
     17          6           0       24.780245   -1.809805    4.086367
     18          6           0       25.053161   -3.084788    3.597657
     19          6           0       25.649375   -2.947348    2.256466
     20          6           0       24.223492   -1.323054    5.407956
     21          6           0       24.740834   -4.464412    4.216537
     22          8           0       25.223878   -5.537606    3.809542
     23          6           0       23.786155   -4.489546    5.339613
     24          7           0       26.923781   -2.835939   -0.462010
     25          6           0       26.659431   -3.979046    0.136766
     26          6           0       27.181335   -5.218696   -0.640377
     27          6           0       27.552676   -4.577134   -1.979109
     28          6           0       27.414298   -3.102013   -1.679789
     29          6           0       28.405520   -5.877160    0.080850
     30          6           0       26.743427   -4.995820   -3.185840
     31          6           0       27.526440   -5.259676   -4.484256
     32          7           0       27.233503   -0.025178   -1.446127
     33          6           0       27.809351   -0.672961   -2.517128
     34          6           0       28.269060    0.297394   -3.556041
     35          6           0       28.010620    1.480618   -2.893872
     36          6           0       27.447465    1.265070   -1.630270
     37          6           0       28.717383    0.023902   -4.955758
     38          6           0       28.127728    2.922129   -3.057597
     39          8           0       28.532757    3.532693   -4.040383
     40          6           0       27.564730    3.617094   -1.796682
     41          6           0       28.566954    4.558218   -1.366150
     42          8           0       29.636423    4.298484   -0.763740
     43          8           0       28.125750    5.833428   -1.549579
     44          6           0       28.860404    6.917675   -0.935257
     45          1           0       24.930879    0.962377    4.043738
     46          1           0       25.989650   -5.019494    1.812542
     47          1           0       28.570891   -2.576645   -3.304726
     48          1           0       27.007952    4.199518    1.210336
     49          1           0       24.618369    3.321111    2.701090
     50          1           0       26.163624    3.980730    4.535876
     51          1           0       27.181680    4.298830    3.157653
     52          1           0       27.309510    2.826490    3.946143
     53          1           0       24.070396    3.986857    0.421570
     54          1           0       25.164407    4.531498   -0.654859
     55          1           0       25.389545    6.079577    1.841652
     56          1           0       23.622132    5.753313    1.288873
     57          1           0       24.556659   -1.896410    6.272785
     58          1           0       23.134837   -1.289567    5.445402
     59          1           0       24.535809   -0.318801    5.695435
     60          1           0       22.891691   -3.941665    5.042859
     61          1           0       24.328456   -3.948602    6.114324
     62          1           0       23.489705   -5.530217    5.465580
     63          1           0       26.333913   -5.899857   -0.725022
     64          1           0       28.589031   -4.692819   -2.295131
     65          1           0       29.323066   -5.755123   -0.493991
     66          1           0       28.272141   -6.954097    0.183535
     67          1           0       28.493326   -5.352964    1.032606
     68          1           0       25.951783   -4.281582   -3.410017
     69          1           0       26.103286   -5.791754   -2.806685
     70          1           0       26.949707   -5.987957   -5.053588
     71          1           0       28.572144   -5.514407   -4.309135
     72          1           0       27.518910   -4.267654   -4.935360
     73          1           0       27.952087    0.194827   -5.713093
     74          1           0       29.166945   -0.968096   -4.922244
     75          1           0       29.623500    0.596329   -5.158051
     76          1           0       26.760076    4.247640   -2.174786
     77          1           0       29.663878    6.602637   -0.268930
     78          1           0       28.179358    7.619372   -0.454473
     79          1           0       29.352131    7.548923   -1.675876
     80         12           0      -27.192488   -0.555077   -0.413803
     81          6           0      -25.583302    2.610775   -0.459752
     82          6           0      -28.701913    0.529604    2.595701
     83          6           0      -28.454274   -3.541367   -0.047319
     84          6           0      -25.354396   -1.470404   -3.220970
     85          7           0      -27.139355    1.389869    0.949249
     86          6           0      -26.470150    2.539115    0.606481
     87          6           0      -26.761926    3.702053    1.539631
     88          6           0      -27.679126    2.945108    2.593207
     89          6           0      -27.896471    1.541939    2.006223
     90          6           0      -27.088750    3.036209    3.997262
     91          6           0      -27.493521    4.836150    0.788552
     92          6           0      -27.170675    6.329006    1.178004
     93          1           0      -26.532390    6.599485    2.560843
     94          7           0      -28.478709   -1.384491    1.028933
     95          6           0      -28.908947   -0.795699    2.218356
     96          6           0      -29.771294   -1.760545    2.918887
     97          6           0      -29.782796   -2.930607    2.091528
     98          6           0      -28.906514   -2.602399    0.950726
     99          6           0      -30.354602   -1.507557    4.205058
    100          6           0      -30.512037   -4.250247    2.322857
    101          8           0      -30.346620   -5.214986    1.559531
    102          6           0      -31.565276   -4.360952    3.354239
    103          7           0      -26.858832   -2.299261   -1.426635
    104          6           0      -27.585550   -3.383422   -1.143140
    105          6           0      -27.191925   -4.581328   -2.067238
    106          6           0      -26.364519   -3.856856   -3.176055
    107          6           0      -26.145064   -2.487314   -2.614005
    108          6           0      -26.468440   -5.761447   -1.324038
    109          6           0      -27.311729   -3.814186   -4.435494
    110          6           0      -28.220212   -2.564435   -4.700354
    111          7           0      -25.844956    0.364779   -1.679319
    112          6           0      -25.163729   -0.162815   -2.791201
    113          6           0      -24.229052    0.872806   -3.297402
    114          6           0      -24.338406    1.913298   -2.382285
    115          6           0      -25.311611    1.634657   -1.446108
    116          6           0      -23.248024    0.540843   -4.316130
    117          6           0      -23.703918    3.179186   -2.023125
    118          8           0      -22.758683    3.731277   -2.574875
    119          6           0      -24.474884    3.695268   -0.718866
    120          6           0      -23.539795    3.889384    0.415884
    121          8           0      -23.286290    3.070257    1.294454
    122          8           0      -22.992585    5.184297    0.342108
    123          6           0      -21.998566    5.639896    1.287453
    124          1           0      -29.389712    0.859828    3.377450
    125          1           0      -28.857719   -4.555157    0.004349
    126          1           0      -24.871405   -1.857602   -4.120229
    127          1           0      -25.861299    4.104113    2.004378
    128          1           0      -28.590466    3.537223    2.672030
    129          1           0      -27.756973    3.451455    4.750867
    130          1           0      -26.152680    3.586908    4.090335
    131          1           0      -26.934020    2.009563    4.331814
    132          1           0      -28.574247    4.716505    0.863864
    133          1           0      -27.201499    4.610546   -0.237671
    134          1           0      -28.089187    6.912374    1.232805
    135          1           0      -26.692974    6.753219    0.294872
    136          1           0      -31.420737   -1.709677    4.100068
    137          1           0      -30.003617   -0.560270    4.613259
    138          1           0      -29.815455   -2.241152    4.805272
    139          1           0      -31.177797   -4.370243    4.373448
    140          1           0      -32.092715   -5.306663    3.231056
    141          1           0      -32.165869   -3.452897    3.309585
    142          1           0      -28.198125   -4.890237   -2.350596
    143          1           0      -25.468817   -4.416845   -3.445989
    144          1           0      -27.189162   -6.537861   -1.067099
    145          1           0      -25.931542   -5.319152   -0.485483
    146          1           0      -25.739221   -6.154972   -2.031994
    147          1           0      -27.825775   -4.770900   -4.530153
    148          1           0      -26.612841   -3.652738   -5.256759
    149          1           0      -29.173991   -3.006566   -4.986859
    150          1           0      -27.869986   -1.950275   -5.530963
    151          1           0      -28.412728   -1.919909   -3.843351
    152          1           0      -22.750970   -0.384832   -4.028837
    153          1           0      -22.507818    1.341498   -4.302807
    154          1           0      -23.682240    0.605209   -5.313467
    155          1           0      -24.867680    4.663726   -1.030093
    156          1           0      -20.976269    5.533965    0.925245
    157          1           0      -22.224165    5.297828    2.297614
    158          1           0      -22.277747    6.689865    1.379866
 ---------------------------------------------------------------------

 SCF Done:  E(RwB97XD) =  -4070.61693711     A.U. after   19 cycles

 Excitation energies and oscillator strengths:

 Excited State   1:      Singlet-A      1.6935 eV  732.13 nm  f=0.3689  <S**2>=0.000
     309 -> 315       -0.20454
     311 -> 313        0.67929
     309 <- 315       -0.12254
 This state for optimization and/or second-order correction.
 Total Energy, E(TD-HF/TD-DFT) =  -4070.55470281
 Copying the excited state density for this state as the 1-particle RhoCI density.

 Excited State   2:      Singlet-A      1.6998 eV  729.40 nm  f=0.3787  <S**2>=0.000
     310 -> 316       -0.19452
     312 -> 314        0.67889
     310 <- 316       -0.11676

 Excited State   3:      Singlet-A      2.2204 eV  558.38 nm  f=0.0704  <S**2>=0.000
     310 -> 314        0.62143
     312 -> 316        0.32309

 Excited State   4:      Singlet-A      2.2627 eV  547.96 nm  f=0.0703  <S**2>=0.000
     309 -> 313        0.61590
     311 -> 315        0.33995

 Excited State   5:      Singlet-A      3.4838 eV  355.89 nm  f=0.5867  <S**2>=0.000
     307 -> 314       -0.28420
     310 -> 314       -0.27703
     312 -> 316        0.57802
     310 <- 314        0.10911

 The electronic state is 1-A.
 Alpha  occ. eigenvalues --  -46.94839 -46.94836 -19.30401 -19.29225 -19.24812
 Alpha  occ. eigenvalues --  -19.24341 -19.24073 -19.23822 -19.23819 -19.23669
 Alpha  occ. eigenvalues --  -14.46742 -14.46467 -14.45846 -14.45706 -14.44385
 Alpha  occ. eigenvalues --  -14.44295 -14.44185 -14.43525 -10.43328 -10.42992
 Alpha  occ. eigenvalues --  -10.39379 -10.39302 -10.39217 -10.38475 -10.35062
 Alpha  occ. eigenvalues --  -10.34950 -10.34903 -10.34786 -10.34761 -10.34599
 Alpha  occ. eigenvalues --  -10.34579 -10.34555 -10.34544 -10.34459 -10.34456
 Alpha  occ. eigenvalues --  -10.34446 -10.34433 -10.34214 -10.34079 -10.33238
 Alpha  occ. eigenvalues --  -10.33223 -10.33191 -10.33166 -10.32921 -10.32530
 Alpha  occ. eigenvalues --  -10.32371 -10.32213 -10.32173 -10.32165 -10.32133
 Alpha  occ. eigenvalues --  -10.32029 -10.32011 -10.31715 -10.31705 -10.31590
 Alpha  occ. eigenvalues --  -10.31490 -10.31453 -10.31429 -10.31425 -10.31421
 Alpha  occ. eigenvalues --  -10.31360 -10.31251 -10.31200 -10.31106 -10.31072
 Alpha  occ. eigenvalues --  -10.31024 -10.30958 -10.30770 -10.30412 -10.30406
 Alpha  occ. eigenvalues --  -10.30313 -10.30220 -10.30084 -10.29955 -10.29838
 Alpha  occ. eigenvalues --  -10.29833 -10.29832 -10.29762 -10.29619 -10.29557
 Alpha  occ. eigenvalues --  -10.29378 -10.29211 -10.29100 -10.28921 -10.28687
 Alpha  occ. eigenvalues --  -10.28639  -3.20874  -3.20828  -1.94474  -1.94424
 Alpha  occ. eigenvalues --   -1.93992  -1.93963  -1.93855  -1.93785  -1.18305
 Alpha  occ. eigenvalues --   -1.16812  -1.11873  -1.11709  -1.11461  -1.11274
 Alpha  occ. eigenvalues --   -1.09438  -1.08153  -1.07763  -1.06809  -1.06611
 Alpha  occ. eigenvalues --   -1.06098  -1.05085  -1.05083  -1.04229  -1.03369
 Alpha  occ. eigenvalues --   -0.95154  -0.93936  -0.91945  -0.91876  -0.91182
 Alpha  occ. eigenvalues --   -0.90537  -0.90408  -0.90251  -0.89535  -0.89308
 Alpha  occ. eigenvalues --   -0.89002  -0.88643  -0.88572  -0.88101  -0.86622
 Alpha  occ. eigenvalues --   -0.86066  -0.85949  -0.85209  -0.84813  -0.84588
 Alpha  occ. eigenvalues --   -0.84523  -0.83867  -0.83192  -0.82856  -0.82763
 Alpha  occ. eigenvalues --   -0.82416  -0.80966  -0.80627  -0.79641  -0.79368
 Alpha  occ. eigenvalues --   -0.79017  -0.78777  -0.78478  -0.77705  -0.77176
 Alpha  occ. eigenvalues --   -0.76740  -0.74983  -0.74101  -0.73923  -0.73289
 Alpha  occ. eigenvalues --   -0.71450  -0.71220  -0.71139  -0.70871  -0.70035
 Alpha  occ. eigenvalues --   -0.69838  -0.68749  -0.68524  -0.68322  -0.67367
 Alpha  occ. eigenvalues --   -0.67103  -0.66938  -0.66641  -0.66561  -0.66431
 Alpha  occ. eigenvalues --   -0.66181  -0.64530  -0.63525  -0.62386  -0.62370
 Alpha  occ. eigenvalues --   -0.61894  -0.61486  -0.61317  -0.61054  -0.60756
 Alpha  occ. eigenvalues --   -0.60358  -0.60021  -0.59845  -0.59619  -0.59149
 Alpha  occ. eigenvalues --   -0.58467  -0.58281  -0.57692  -0.57516  -0.57471
 Alpha  occ. eigenvalues --   -0.57205  -0.56365  -0.56181  -0.55955  -0.55945
 Alpha  occ. eigenvalues --   -0.55823  -0.55756  -0.55414  -0.55297  -0.55122
 Alpha  occ. eigenvalues --   -0.55106  -0.54877  -0.54713  -0.54192  -0.53905
 Alpha  occ. eigenvalues --   -0.53794  -0.53713  -0.53633  -0.53446  -0.53233
 Alpha  occ. eigenvalues --   -0.53122  -0.52771  -0.52713  -0.52500  -0.52445
 Alpha  occ. eigenvalues --   -0.52214  -0.51901  -0.51857  -0.51714  -0.51579
 Alpha  occ. eigenvalues --   -0.51546  -0.51001  -0.50906  -0.50837  -0.50596
 Alpha  occ. eigenvalues --   -0.50444  -0.50329  -0.50306  -0.50262  -0.50030
 Alpha  occ. eigenvalues --   -0.49874  -0.49753  -0.49552  -0.49305  -0.49289
 Alpha  occ. eigenvalues --   -0.49156  -0.48970  -0.48860  -0.48624  -0.48462
 Alpha  occ. eigenvalues --   -0.48150  -0.48030  -0.47961  -0.47940  -0.47507
 Alpha  occ. eigenvalues --   -0.47294  -0.47084  -0.47007  -0.46940  -0.46502
 Alpha  occ. eigenvalues --   -0.46458  -0.46214  -0.46156  -0.45992  -0.45871
 Alpha  occ. eigenvalues --   -0.45827  -0.45827  -0.45625  -0.45560  -0.45379
 Alpha  occ. eigenvalues --   -0.45332  -0.45291  -0.45060  -0.44909  -0.44458
 Alpha  occ. eigenvalues --   -0.44442  -0.44346  -0.43975  -0.43858  -0.43691
 Alpha  occ. eigenvalues --   -0.43667  -0.43641  -0.43502  -0.43352  -0.43207
 Alpha  occ. eigenvalues --   -0.42972  -0.42891  -0.42760  -0.42597  -0.42213
 Alpha  occ. eigenvalues --   -0.42038  -0.41806  -0.41761  -0.41284  -0.40705
 Alpha  occ. eigenvalues --   -0.40510  -0.39836  -0.39711  -0.39365  -0.39217
 Alpha  occ. eigenvalues --   -0.39107  -0.38624  -0.38123  -0.38011  -0.37907
 Alpha  occ. eigenvalues --   -0.37660  -0.37642  -0.36124  -0.36013  -0.35878
 Alpha  occ. eigenvalues --   -0.35526  -0.35489  -0.35160  -0.33773  -0.33193
 Alpha  occ. eigenvalues --   -0.33153  -0.32984  -0.32787  -0.32750  -0.32526
 Alpha  occ. eigenvalues --   -0.32432  -0.32392  -0.31475  -0.25999  -0.25815
 Alpha  occ. eigenvalues --   -0.22719  -0.22592
 Alpha virt. eigenvalues --   -0.06504  -0.06489   0.00104   0.00202   0.02293
 Alpha virt. eigenvalues --    0.02793   0.04277   0.04625   0.06135   0.06370
 Alpha virt. eigenvalues --    0.06687   0.07078   0.07665   0.08135   0.08301

 Mulliken charges:
               1
     1  Mg   0.974898
     2  C    0.002781
     3  C   -0.074061
     4  C   -0.058934
     5  C   -0.108679
     6  N   -0.330819
     7  C   -0.063291
     8  C    0.015575
     9  C   -0.121667
    10  C    0.063849
    11  C    0.011227
    12  C    0.011803
    13  C   -0.120005
    14  H    0.035319
    15  N   -0.515873
    16  C    0.189986
    17  C   -0.128882
    18  C   -0.091734
    19  C    0.167331
    20  C    0.036607
    21  C    0.055194
    22  O   -0.254777
    23  C    0.008751
    24  N   -0.326279
    25  C   -0.014194
    26  C   -0.060025
    27  C   -0.104884
    28  C    0.037543
    29  C    0.034227
    30  C    0.005166
    31  C   -0.035286
    32  N   -0.421318
    33  C    0.133115
    34  C   -0.209159
    35  C   -0.009030
    36  C    0.152732
    37  C    0.108969
    38  C    0.073371
    39  O   -0.209182
    40  C   -0.031908
    41  C    0.264645
    42  O   -0.283666
    43  O   -0.351473
    44  C    0.134930
    45  H   -0.012354
    46  H    0.030656
    47  H    0.003600
    48  H    0.033959
    49  H    0.037527
    50  H    0.041020
    51  H    0.017661
    52  H    0.035921
    53  H    0.014297
    54  H    0.025698
    55  H    0.056584
    56  H    0.056722
    57  H    0.040359
    58  H    0.054031
    59  H    0.038971
    60  H    0.053158
    61  H    0.060414
    62  H    0.061921
    63  H    0.043783
    64  H    0.028136
    65  H    0.033568
    66  H    0.048024
    67  H    0.054507
    68  H    0.023093
    69  H    0.008877
    70  H    0.052208
    71  H    0.038544
    72  H    0.041123
    73  H    0.077473
    74  H    0.017118
    75  H    0.049448
    76  H    0.080816
    77  H    0.066809
    78  H    0.047336
    79  H    0.046095
    80  Mg   0.959138
    81  C    0.014366
    82  C   -0.115988
    83  C   -0.071779
    84  C   -0.091902
    85  N   -0.268507
    86  C   -0.050264
    87  C   -0.080682
    88  C   -0.081140
    89  C    0.061344
    90  C    0.017851
    91  C   -0.000800
    92  C   -0.101164
    93  H    0.041865
    94  N   -0.420583
    95  C    0.160590
    96  C   -0.187183
    97  C   -0.089525
    98  C    0.146035
    99  C    0.087364
   100  C    0.060845
   101  O   -0.251524
   102  C   -0.004507
   103  N   -0.411475
   104  C    0.041862
   105  C   -0.106396
   106  C   -0.056877
   107  C    0.053205
   108  C    0.041993
   109  C   -0.057094
   110  C   -0.040341
   111  N   -0.481915
   112  C    0.164338
   113  C   -0.192792
   114  C   -0.021453
   115  C    0.159871
   116  C    0.078059
   117  C    0.119436
   118  O   -0.197012
   119  C   -0.104594
   120  C    0.296137
   121  O   -0.245697
   122  O   -0.393134
   123  C    0.148813
   124  H    0.010784
   125  H    0.016631
   126  H   -0.005069
   127  H    0.045986
   128  H    0.028881
   129  H    0.025217
   130  H    0.045294
   131  H    0.027071
   132  H    0.030859
   133  H    0.034380
   134  H    0.044126
   135  H    0.052224
   136  H    0.062372
   137  H    0.037774
   138  H    0.061574
   139  H    0.050591
   140  H    0.063470
   141  H    0.049882
   142  H    0.039327
   143  H    0.036112
   144  H    0.056274
   145  H    0.049491
   146  H    0.029618
   147  H    0.044657
   148  H    0.027423
   149  H    0.033434
   150  H    0.043546
   151  H    0.047368
   152  H    0.057783
   153  H    0.044318
   154  H    0.045830
   155  H    0.074983
   156  H    0.071670
   157  H    0.047341
   158  H    0.039997
 Sum of Mulliken charges =  -0.00000

 Dipole moment (field-independent basis, Debye):
    X=             -7.7507    Y=             -0.2346    Z=              4.9437  Tot=              9.1961
 Quadrupole moment (field-independent basis, Debye-Ang):
   XX=           -500.8718   YY=           -500.8441   ZZ=           -480.4444
   XY=            -56.5609   XZ=             -6.1875   YZ=             51.7475

 Normal termination of Gaussian 16 at Mon Sep 20 02:45:11 2021.
