 Gaussian 16, Revision A.03,
 Gaussian 16:  ES64L-G16RevA.03 25-Dec-2016

 --------------------------------
 #p wB97XD/Def2SVP td=(nstates=5)
 --------------------------------

 --------------------------------
 TDDFT excited states in gaussian
 --------------------------------
 Symbolic Z-matrix:
 Charge =  0 Multiplicity = 1

                         Standard orientation:
 ---------------------------------------------------------------------
 Center     Atomic      Atomic             Coordinates (Angstroms)
 Number     Number       Type             X           Y           Z
 ---------------------------------------------------------------------
      1         12           0      -21.228322    0.031276   -0.433643
      2          6           0      -17.823273   -0.440427   -0.098126
      3          6           0      -21.676455   -3.259037    0.473742
      4          6           0      -24.599259    0.640746   -0.179606
      5          6           0      -20.702054    3.340419   -1.223454
      6          7           0      -19.932860   -1.582244    0.310641
      7          6           0      -18.552780   -1.540004    0.284540
      8          6           0      -17.934792   -2.868579    0.712079
      9          6           0      -19.164942   -3.838319    0.555672
     10          6           0      -20.315157   -2.844177    0.490285
     11          6           0      -19.109046   -4.908961   -0.626203
     12          6           0      -17.237877   -2.892843    2.109815
     13          6           0      -15.888983   -3.578778    2.160227
     14          1           0      -15.938320   -4.884166    2.938900
     15          7           0      -22.854116   -1.152702    0.088848
     16          6           0      -22.840458   -2.454942    0.394909
     17          6           0      -24.191212   -2.954078    0.586086
     18          6           0      -25.108614   -1.928485    0.429580
     19          6           0      -24.217003   -0.722582    0.148211
     20          6           0      -24.498747   -4.465836    1.019767
     21          6           0      -26.670059   -2.043346    0.464029
     22          8           0      -27.188729   -3.161131    0.743577
     23          6           0      -27.547929   -0.874107    0.229836
     24          7           0      -22.516130    1.858881   -0.434228
     25          6           0      -23.827603    1.815635   -0.484698
     26          6           0      -24.439124    3.103789   -0.994732
     27          6           0      -23.248676    4.082634   -1.274509
     28          6           0      -22.046631    3.046264   -1.046273
     29          6           0      -25.601611    3.058035   -2.037199
     30          6           0      -23.069026    5.373151   -0.423534
     31          6           0      -22.154668    6.389423   -1.075860
     32          7           0      -19.567593    1.247075   -0.617848
     33          6           0      -19.489072    2.594790   -1.038754
     34          6           0      -18.098748    2.931535   -1.180377
     35          6           0      -17.371651    1.760568   -0.854980
     36          6           0      -18.332786    0.821389   -0.491470
     37          6           0      -17.531954    4.193834   -1.812970
     38          6           0      -16.088183    1.263611   -0.785290
     39          8           0      -14.983898    1.724048   -0.888347
     40          6           0      -16.297233   -0.199185   -0.130071
     41          6           0      -15.924108    0.000414    1.338087
     42          8           0      -16.642437    0.479855    2.194079
     43          8           0      -14.621328   -0.448592    1.482736
     44          6           0      -14.020466   -0.248431    2.797476
     45          1           0      -21.878638   -4.328670    0.558224
     46          1           0      -25.681046    0.760438   -0.094489
     47          1           0      -20.383791    4.315906   -1.597034
     48          1           0      -17.216572   -3.155024   -0.055625
     49          1           0      -19.329447   -4.289903    1.534669
     50          1           0      -20.168004   -5.110837   -0.786937
     51          1           0      -18.717113   -5.882520   -0.330756
     52          1           0      -18.599068   -4.606530   -1.540737
     53          1           0      -17.954155   -3.428837    2.732847
     54          1           0      -17.212527   -1.955892    2.665833
     55          1           0      -15.188511   -2.880354    2.618665
     56          1           0      -15.513139   -3.834512    1.169353
     57          1           0      -23.619498   -5.087472    1.194043
     58          1           0      -25.116343   -4.960709    0.269506
     59          1           0      -24.973534   -4.542056    1.996981
     60          1           0      -27.358259   -0.470341   -0.764197
     61          1           0      -27.508976   -0.169458    1.060635
     62          1           0      -28.533624   -1.313940    0.083166
     63          1           0      -24.932931    3.719495   -0.242676
     64          1           0      -23.094625    4.258837   -2.339346
     65          1           0      -25.938030    2.020636   -2.062288
     66          1           0      -25.342801    3.487155   -3.005858
     67          1           0      -26.483550    3.630450   -1.749394
     68          1           0      -22.730756    5.040436    0.557686
     69          1           0      -24.085289    5.738179   -0.275347
     70          1           0      -22.496852    7.379237   -0.772700
     71          1           0      -22.141233    6.373427   -2.166304
     72          1           0      -21.159826    6.302572   -0.638924
     73          1           0      -16.458947    4.150485   -1.999944
     74          1           0      -17.784750    5.029714   -1.161954
     75          1           0      -18.007342    4.403682   -2.771197
     76          1           0      -15.755637   -0.965062   -0.686087
     77          1           0      -13.913500    0.819414    2.988886
     78          1           0      -13.071731   -0.775192    2.894200
     79          1           0      -14.701254   -0.613449    3.565979
     80         12           0       20.882072    0.690639   -0.287212
     81          6           0       19.836817   -2.670695   -0.335378
     82          6           0       17.585292    1.507152    0.460017
     83          6           0       21.818163    3.845462    0.225026
     84          6           0       24.156490   -0.446114   -0.115812
     85          7           0       18.985519   -0.535870    0.179812
     86          6           0       18.726997   -1.878561   -0.015737
     87          6           0       17.261866   -2.253529   -0.092040
     88          6           0       16.538841   -0.905389    0.140307
     89          6           0       17.728911    0.098392    0.288239
     90          6           0       15.532507   -0.497493   -1.010983
     91          6           0       16.754707   -3.356181    0.940962
     92          6           0       17.440140   -3.425862    2.315345
     93          1           0       16.682547   -2.851149    3.548770
     94          7           0       19.861182    2.394102    0.245414
     95          6           0       18.518577    2.542270    0.448361
     96          6           0       18.198020    3.960289    0.663871
     97          6           0       19.435702    4.670271    0.594740
     98          6           0       20.455843    3.604530    0.351694
     99          6           0       16.783279    4.481622    0.886332
    100          6           0       19.449452    6.217111    0.886663
    101          8           0       18.393964    6.750292    1.199254
    102          6           0       20.815732    7.023181    0.862719
    103          7           0       22.686038    1.528380    0.130256
    104          6           0       22.867633    2.909367    0.148685
    105          6           0       24.455221    3.280215    0.215526
    106          6           0       25.101503    1.791290    0.256111
    107          6           0       23.902096    0.918353    0.071882
    108          6           0       24.921792    4.141870   -0.994605
    109          6           0       25.889982    1.429735    1.587209
    110          6           0       27.319666    0.877256    1.478702
    111          7           0       21.870172   -1.174274   -0.356947
    112          6           0       23.195153   -1.516546   -0.267912
    113          6           0       23.303460   -2.989920   -0.316780
    114          6           0       21.969662   -3.456283   -0.464814
    115          6           0       21.152989   -2.291572   -0.431149
    116          6           0       24.549592   -3.824734   -0.211559
    117          6           0       21.172068   -4.695368   -0.530764
    118          8           0       21.480516   -5.890774   -0.643570
    119          6           0       19.743791   -4.184973   -0.650451
    120          6           0       19.138721   -4.516335   -1.896362
    121          8           0       19.380636   -3.869695   -2.948331
    122          8           0       18.246151   -5.598742   -1.765731
    123          6           0       17.422585   -5.957956   -2.915721
    124          1           0       16.547852    1.840737    0.525181
    125          1           0       22.147577    4.886171    0.229991
    126          1           0       25.213906   -0.717100   -0.117106
    127          1           0       17.167912   -2.627469   -1.110867
    128          1           0       16.119006   -0.970052    1.143478
    129          1           0       14.510717   -0.553227   -0.635667
    130          1           0       15.695873   -1.212887   -1.817421
    131          1           0       15.708132    0.523919   -1.350217
    132          1           0       17.004371   -4.273382    0.406061
    133          1           0       15.670940   -3.283937    1.035062
    134          1           0       18.415167   -2.938535    2.283072
    135          1           0       17.688610   -4.467255    2.515649
    136          1           0       16.545657    4.731418    1.920396
    137          1           0       16.050879    3.859882    0.371272
    138          1           0       16.617483    5.399493    0.322579
    139          1           0       21.331537    6.740104   -0.055154
    140          1           0       21.379967    6.731517    1.748136
    141          1           0       20.705159    8.089188    1.061470
    142          1           0       24.570927    3.933025    1.080202
    143          1           0       25.730145    1.695916   -0.629511
    144          1           0       25.322025    3.459838   -1.744480
    145          1           0       25.611462    4.935910   -0.708091
    146          1           0       24.128370    4.730917   -1.454315
    147          1           0       25.250902    0.748624    2.150055
    148          1           0       25.938329    2.402688    2.076198
    149          1           0       27.625247    0.350829    2.383330
    150          1           0       27.905818    1.784499    1.334032
    151          1           0       27.281699    0.211426    0.616280
    152          1           0       25.237113   -3.200063    0.358067
    153          1           0       24.890825   -3.860023   -1.246151
    154          1           0       24.399169   -4.844564    0.143810
    155          1           0       19.262884   -4.702049    0.179594
    156          1           0       17.934847   -6.331740   -3.802312
    157          1           0       16.816561   -5.104109   -3.220096
    158          1           0       16.652101   -6.632047   -2.541123
 ---------------------------------------------------------------------

 SCF Done:  E(RwB97XD) =  -4070.60358798     A.U. after   20 cycles

 Excitation energies and oscillator strengths:

 Excited State   1:      Singlet-A      1.6638 eV  745.19 nm  f=0.3735  <S**2>=0.000
     310 -> 315        0.18689
     312 -> 314        0.68288
     310 <- 315        0.11706
 This state for optimization and/or second-order correction.
 Total Energy, E(TD-HF/TD-DFT) =  -4070.54244507
 Copying the excited state density for this state as the 1-particle RhoCI density.

 Excited State   2:      Singlet-A      1.8712 eV  662.58 nm  f=0.3762  <S**2>=0.000
     309 -> 316        0.14188
     311 -> 313        0.68597

 Excited State   3:      Singlet-A      2.2255 eV  557.11 nm  f=0.1263  <S**2>=0.000
     309 -> 313        0.64386
     311 -> 316       -0.24647
     311 -> 317        0.10808

 Excited State   4:      Singlet-A      2.2613 eV  548.29 nm  f=0.0695  <S**2>=0.000
     310 -> 314        0.61504
     312 -> 315       -0.33673

 Excited State   5:      Singlet-A      3.9807 eV  311.46 nm  f=0.0000  <S**2>=0.000
     312 -> 313        0.70708

 The electronic state is 1-A.
 Alpha  occ. eigenvalues --  -46.95762 -46.95259 -19.31001 -19.29696 -19.25355
 Alpha  occ. eigenvalues --  -19.25178 -19.24739 -19.24620 -19.24236 -19.22660
 Alpha  occ. eigenvalues --  -14.47269 -14.46922 -14.46639 -14.46636 -14.45233
 Alpha  occ. eigenvalues --  -14.44539 -14.43874 -14.43023 -10.43868 -10.42899
 Alpha  occ. eigenvalues --  -10.41111 -10.40484 -10.39364 -10.37355 -10.37301
 Alpha  occ. eigenvalues --  -10.36536 -10.35953 -10.35840 -10.35822 -10.35399
 Alpha  occ. eigenvalues --  -10.35262 -10.34985 -10.34858 -10.34597 -10.34559
 Alpha  occ. eigenvalues --  -10.34359 -10.34094 -10.34082 -10.33876 -10.33780
 Alpha  occ. eigenvalues --  -10.33398 -10.33345 -10.32945 -10.32538 -10.32502
 Alpha  occ. eigenvalues --  -10.32493 -10.32423 -10.32333 -10.32329 -10.32311
 Alpha  occ. eigenvalues --  -10.32251 -10.32240 -10.32220 -10.32127 -10.32108
 Alpha  occ. eigenvalues --  -10.31863 -10.31783 -10.31591 -10.31577 -10.31370
 Alpha  occ. eigenvalues --  -10.31333 -10.31229 -10.31190 -10.31116 -10.31069
 Alpha  occ. eigenvalues --  -10.31047 -10.31001 -10.30955 -10.30833 -10.30795
 Alpha  occ. eigenvalues --  -10.30790 -10.30777 -10.30734 -10.30652 -10.30643
 Alpha  occ. eigenvalues --  -10.30501 -10.30468 -10.30422 -10.29892 -10.29843
 Alpha  occ. eigenvalues --  -10.29680 -10.29640 -10.29392 -10.29205 -10.29093
 Alpha  occ. eigenvalues --  -10.27003  -3.21656  -3.21326  -1.95226  -1.94871
 Alpha  occ. eigenvalues --   -1.94782  -1.94626  -1.94463  -1.94301  -1.17562
 Alpha  occ. eigenvalues --   -1.17119  -1.12620  -1.11943  -1.11451  -1.11271
 Alpha  occ. eigenvalues --   -1.10040  -1.09195  -1.06617  -1.06130  -1.05881
 Alpha  occ. eigenvalues --   -1.05574  -1.05292  -1.04584  -1.04551  -1.03879
 Alpha  occ. eigenvalues --   -0.95108  -0.93477  -0.91041  -0.91037  -0.90689
 Alpha  occ. eigenvalues --   -0.90362  -0.89961  -0.89933  -0.89013  -0.88711
 Alpha  occ. eigenvalues --   -0.88702  -0.87991  -0.87726  -0.87514  -0.86436
 Alpha  occ. eigenvalues --   -0.86416  -0.85763  -0.85554  -0.85138  -0.84664
 Alpha  occ. eigenvalues --   -0.84001  -0.83549  -0.82930  -0.82628  -0.82162
 Alpha  occ. eigenvalues --   -0.82023  -0.80073  -0.79601  -0.79133  -0.79110
 Alpha  occ. eigenvalues --   -0.78671  -0.78652  -0.78424  -0.77272  -0.77099
 Alpha  occ. eigenvalues --   -0.76837  -0.74364  -0.74299  -0.73705  -0.73687
 Alpha  occ. eigenvalues --   -0.71672  -0.71211  -0.71109  -0.70849  -0.70347
 Alpha  occ. eigenvalues --   -0.69857  -0.69380  -0.68802  -0.67671  -0.67557
 Alpha  occ. eigenvalues --   -0.67404  -0.67165  -0.66709  -0.66559  -0.66162
 Alpha  occ. eigenvalues --   -0.66039  -0.64411  -0.63678  -0.62217  -0.62043
 Alpha  occ. eigenvalues --   -0.61576  -0.61434  -0.61045  -0.61005  -0.60622
 Alpha  occ. eigenvalues --   -0.60478  -0.59771  -0.59697  -0.59333  -0.59177
 Alpha  occ. eigenvalues --   -0.58473  -0.58087  -0.57509  -0.57415  -0.56977
 Alpha  occ. eigenvalues --   -0.56856  -0.56341  -0.56127  -0.56095  -0.55925
 Alpha  occ. eigenvalues --   -0.55692  -0.55673  -0.55282  -0.55120  -0.54966
 Alpha  occ. eigenvalues --   -0.54707  -0.54478  -0.54277  -0.54032  -0.53956
 Alpha  occ. eigenvalues --   -0.53505  -0.53458  -0.53132  -0.52981  -0.52860
 Alpha  occ. eigenvalues --   -0.52677  -0.52632  -0.52505  -0.52213  -0.52141
 Alpha  occ. eigenvalues --   -0.51970  -0.51921  -0.51751  -0.51414  -0.51295
 Alpha  occ. eigenvalues --   -0.51229  -0.51158  -0.50991  -0.50880  -0.50620
 Alpha  occ. eigenvalues --   -0.50455  -0.50408  -0.50237  -0.50134  -0.50050
 Alpha  occ. eigenvalues --   -0.49529  -0.49289  -0.49247  -0.49175  -0.49166
 Alpha  occ. eigenvalues --   -0.48526  -0.48511  -0.48354  -0.48144  -0.48127
 Alpha  occ. eigenvalues --   -0.48057  -0.48044  -0.47926  -0.47655  -0.47270
 Alpha  occ. eigenvalues --   -0.47135  -0.47118  -0.46970  -0.46872  -0.46805
 Alpha  occ. eigenvalues --   -0.46698  -0.46609  -0.46548  -0.46442  -0.46266
 Alpha  occ. eigenvalues --   -0.46095  -0.45857  -0.45846  -0.45514  -0.45318
 Alpha  occ. eigenvalues --   -0.45130  -0.45092  -0.44990  -0.44857  -0.44778
 Alpha  occ. eigenvalues --   -0.44622  -0.44463  -0.44454  -0.44329  -0.44152
 Alpha  occ. eigenvalues --   -0.44095  -0.44024  -0.43985  -0.43524  -0.43509
 Alpha  occ. eigenvalues --   -0.42934  -0.42656  -0.42464  -0.42340  -0.42122
 Alpha  occ. eigenvalues --   -0.42086  -0.41772  -0.41741  -0.41575  -0.41234
 Alpha  occ. eigenvalues --   -0.40891  -0.40815  -0.40011  -0.39574  -0.39437
 Alpha  occ. eigenvalues --   -0.39281  -0.39131  -0.38961  -0.38615  -0.38604
 Alpha  occ. eigenvalues --   -0.38324  -0.37283  -0.36716  -0.36393  -0.36287
 Alpha  occ. eigenvalues --   -0.36151  -0.35449  -0.35342  -0.34484  -0.34135
 Alpha  occ. eigenvalues --   -0.33512  -0.33211  -0.33073  -0.32993  -0.32419
 Alpha  occ. eigenvalues --   -0.31741  -0.31609  -0.31165  -0.26058  -0.26044
 Alpha  occ. eigenvalues --   -0.23357  -0.22612
 Alpha virt. eigenvalues --   -0.06744  -0.06481   0.00138   0.00144   0.02174
 Alpha virt. eigenvalues --    0.02367   0.04088   0.04130   0.04924   0.04949
 Alpha virt. eigenvalues --    0.05605   0.07517   0.07614   0.07833   0.08178

 Mulliken charges:
               1
     1  Mg   0.966450
     2  C   -0.041268
     3  C   -0.128690
     4  C   -0.109115
     5  C   -0.042006
     6  N   -0.332914
     7  C   -0.011605
     8  C   -0.074661
     9  C   -0.075932
    10  C    0.063397
    11  C    0.034901
    12  C    0.028230
    13  C   -0.107138
    14  H    0.024743
    15  N   -0.466105
    16  C    0.186006
    17  C   -0.152944
    18  C   -0.065470
    19  C    0.142321
    20  C    0.072133
    21  C    0.052413
    22  O   -0.253971
    23  C    0.003567
    24  N   -0.330840
    25  C    0.128575
    26  C   -0.083486
    27  C   -0.090958
    28  C    0.027178
    29  C    0.020529
    30  C    0.009822
    31  C   -0.034504
    32  N   -0.438413
    33  C    0.046219
    34  C   -0.148257
    35  C    0.002749
    36  C    0.157753
    37  C    0.059529
    38  C    0.057922
    39  O   -0.195185
    40  C   -0.117858
    41  C    0.297032
    42  O   -0.238869
    43  O   -0.364142
    44  C    0.141286
    45  H   -0.003537
    46  H   -0.019473
    47  H   -0.016859
    48  H    0.023277
    49  H    0.032770
    50  H    0.025025
    51  H    0.044677
    52  H    0.053873
    53  H    0.020268
    54  H    0.052780
    55  H    0.048274
    56  H    0.048669
    57  H    0.019584
    58  H    0.064701
    59  H    0.059513
    60  H    0.061901
    61  H    0.091296
    62  H    0.055080
    63  H    0.038404
    64  H    0.031575
    65  H    0.030243
    66  H    0.041603
    67  H    0.029160
    68  H    0.042111
    69  H    0.025825
    70  H    0.032462
    71  H    0.043065
    72  H    0.051676
    73  H    0.058553
    74  H    0.038074
    75  H    0.040756
    76  H    0.054805
    77  H    0.058155
    78  H    0.060920
    79  H    0.042368
    80  Mg   0.986992
    81  C   -0.108847
    82  C   -0.085574
    83  C   -0.110575
    84  C   -0.096071
    85  N   -0.341844
    86  C   -0.038399
    87  C   -0.062252
    88  C   -0.058610
    89  C    0.026482
    90  C    0.027352
    91  C   -0.015140
    92  C   -0.118733
    93  H    0.036909
    94  N   -0.448558
    95  C    0.153529
    96  C   -0.157690
    97  C   -0.113583
    98  C    0.206756
    99  C    0.095239
   100  C    0.069646
   101  O   -0.226486
   102  C   -0.026140
   103  N   -0.421994
   104  C    0.079372
   105  C   -0.103161
   106  C   -0.075603
   107  C    0.085693
   108  C    0.009848
   109  C   -0.024343
   110  C   -0.038118
   111  N   -0.406487
   112  C    0.119751
   113  C   -0.211665
   114  C   -0.096393
   115  C    0.263510
   116  C    0.092508
   117  C    0.145499
   118  O   -0.217905
   119  C   -0.059603
   120  C    0.315944
   121  O   -0.277642
   122  O   -0.382228
   123  C    0.152223
   124  H   -0.009055
   125  H   -0.035075
   126  H   -0.015895
   127  H    0.049477
   128  H    0.045686
   129  H    0.043774
   130  H    0.040420
   131  H    0.046414
   132  H    0.038295
   133  H    0.048372
   134  H    0.063088
   135  H    0.056388
   136  H    0.065436
   137  H    0.023110
   138  H    0.044183
   139  H    0.073625
   140  H    0.060903
   141  H    0.052781
   142  H    0.044425
   143  H    0.036107
   144  H    0.037573
   145  H    0.038491
   146  H    0.031792
   147  H    0.048526
   148  H    0.025109
   149  H    0.051598
   150  H    0.041608
   151  H    0.037695
   152  H    0.034732
   153  H    0.054910
   154  H    0.066647
   155  H    0.059858
   156  H    0.069352
   157  H    0.033819
   158  H    0.052220
 Sum of Mulliken charges =  -0.00000

 Dipole moment (field-independent basis, Debye):
    X=             -3.8750    Y=              2.3640    Z=             -1.9839  Tot=              4.9538
 Quadrupole moment (field-independent basis, Debye-Ang):
   XX=           -300.7703   YY=           -515.5478   ZZ=           -512.6359
   XY=             52.4103   XZ=             46.8425   YZ=             -8.3799

 Normal termination of Gaussian 16 at Sun Sep 19 12:28:47 2021.
