 Gaussian 16, Revision A.03,
 Gaussian 16:  ES64L-G16RevA.03 25-Dec-2016

 --------------------------------
 #p wB97XD/Def2SVP td=(nstates=5)
 --------------------------------

 --------------------------------
 TDDFT excited states in gaussian
 --------------------------------
 Symbolic Z-matrix:
 Charge =  0 Multiplicity = 1

                         Standard orientation:
 ---------------------------------------------------------------------
 Center     Atomic      Atomic             Coordinates (Angstroms)
 Number     Number       Type             X           Y           Z
 ---------------------------------------------------------------------
      1         12           0      -11.664500    0.163400   -0.344695
      2          6           0       -8.799577   -1.814266    0.324468
      3          6           0      -13.564999   -2.476076    0.629412
      4          6           0      -14.302442    2.303208   -0.196814
      5          6           0       -9.557823    2.879049   -0.791804
      6          7           0      -11.101857   -1.840543    0.535197
      7          6           0       -9.908345   -2.505062    0.635321
      8          6           0      -10.089444   -3.913961    1.063290
      9          6           0      -11.650961   -4.169325    0.820112
     10          6           0      -12.148417   -2.772430    0.668345
     11          6           0      -11.898945   -5.053166   -0.391628
     12          6           0       -9.571708   -4.022836    2.506105
     13          6           0       -8.476006   -5.129149    2.811757
     14          1           0       -8.688936   -6.192831    3.930662
     15          7           0      -13.672445   -0.001588    0.092898
     16          6           0      -14.275589   -1.231139    0.391961
     17          6           0      -15.693342   -1.028996    0.399974
     18          6           0      -15.966830    0.365501    0.194536
     19          6           0      -14.617921    0.939757   -0.056892
     20          6           0      -16.647554   -2.200740    0.592041
     21          6           0      -17.298584    1.082162    0.185249
     22          8           0      -18.290904    0.301759    0.267401
     23          6           0      -17.580884    2.611209    0.196947
     24          7           0      -11.927025    2.324340   -0.484142
     25          6           0      -13.121700    2.952808   -0.423397
     26          6           0      -13.007272    4.495779   -0.541139
     27          6           0      -11.478640    4.662899   -0.846143
     28          6           0      -10.935992    3.170920   -0.640166
     29          6           0      -13.922064    4.992865   -1.646129
     30          6           0      -10.747075    5.621847    0.042677
     31          6           0      -10.274656    6.864848   -0.661379
     32          7           0       -9.668144    0.505887   -0.440374
     33          6           0       -8.889458    1.644761   -0.681991
     34          6           0       -7.565417    1.333323   -0.871712
     35          6           0       -7.480411   -0.029942   -0.522562
     36          6           0       -8.764769   -0.458877   -0.195657
     37          6           0       -6.554240    2.290401   -1.466583
     38          6           0       -6.547612   -1.186630   -0.463418
     39          8           0       -5.387775   -1.235478   -0.733366
     40          6           0       -7.432010   -2.322051    0.177627
     41          6           0       -7.087118   -3.608146   -0.541157
     42          8           0       -6.380666   -4.502329   -0.075530
     43          8           0       -7.734580   -3.657367   -1.799577
     44          6           0       -7.534092   -4.936340   -2.480212
     45          1           0      -14.187477   -3.368654    0.723151
     46          1           0      -15.131569    3.012096   -0.257433
     47          1           0       -8.846741    3.702222   -0.702781
     48          1           0       -9.490815   -4.565782    0.426867
     49          1           0      -12.051275   -4.678143    1.696607
     50          1           0      -11.209271   -4.860929   -1.212366
     51          1           0      -12.880754   -4.807707   -0.797848
     52          1           0      -11.927975   -6.118023   -0.160789
     53          1           0      -10.437485   -4.207877    3.141779
     54          1           0       -9.213843   -3.079362    2.918287
     55          1           0       -7.642566   -4.488900    3.101985
     56          1           0       -8.106465   -5.571172    1.887220
     57          1           0      -16.372658   -2.791153    1.466095
     58          1           0      -16.531061   -2.831230   -0.289360
     59          1           0      -17.692727   -1.970308    0.802996
     60          1           0      -17.260647    2.928815   -0.794849
     61          1           0      -16.969239    3.070495    0.973595
     62          1           0      -18.625796    2.842776    0.405136
     63          1           0      -13.295420    5.033317    0.361904
     64          1           0      -11.331176    4.851939   -1.909138
     65          1           0      -14.912934    4.575117   -1.467104
     66          1           0      -13.532531    4.629038   -2.597456
     67          1           0      -13.987730    6.061644   -1.846301
     68          1           0       -9.837666    5.207768    0.478131
     69          1           0      -11.277964    5.973790    0.926988
     70          1           0      -10.655965    7.724839   -0.112199
     71          1           0      -10.694944    6.969584   -1.661624
     72          1           0       -9.194198    6.917704   -0.799418
     73          1           0       -5.717225    1.674358   -1.796788
     74          1           0       -6.202545    3.024191   -0.741741
     75          1           0       -7.084523    2.778110   -2.284228
     76          1           0       -6.959573   -2.447564    1.152557
     77          1           0       -8.364192   -5.143755   -3.155634
     78          1           0       -7.597809   -5.771410   -1.784016
     79          1           0       -6.576486   -4.999981   -2.997706
     80         12           0       10.814686    0.867446   -0.225853
     81          6           0       12.421640   -2.165939    0.043516
     82          6           0        7.859916   -0.719796    0.417803
     83          6           0        9.619862    3.793401    0.735342
     84          6           0       13.943761    2.340321   -0.831667
     85          7           0       10.347707   -1.157342    0.638569
     86          6           0       11.105233   -2.263563    0.423066
     87          6           0       10.363059   -3.537872    0.698263
     88          6           0        8.904823   -3.070565    0.384862
     89          6           0        9.042668   -1.555405    0.404391
     90          6           0        8.342674   -3.671084   -0.935507
     91          6           0       10.514062   -4.012395    2.229918
     92          6           0       10.567554   -5.594332    2.455986
     93          1           0        9.404460   -5.976940    3.337386
     94          7           0        8.926561    1.469725    0.289407
     95          6           0        7.848691    0.715114    0.596514
     96          6           0        6.731164    1.556002    1.006671
     97          6           0        7.222854    2.875996    1.070580
     98          6           0        8.657746    2.745703    0.691124
     99          6           0        5.350865    0.944116    1.348202
    100          6           0        6.430815    4.014820    1.649926
    101          8           0        5.296464    3.827665    2.005544
    102          6           0        6.979774    5.435837    1.880036
    103          7           0       11.604997    2.871923   -0.178444
    104          6           0       10.935392    3.844722    0.256418
    105          6           0       11.724820    5.094451    0.387892
    106          6           0       13.148413    4.653269   -0.134308
    107          6           0       12.917477    3.229016   -0.398724
    108          6           0       11.038631    6.294251   -0.348616
    109          6           0       14.291228    4.898915    0.956245
    110          6           0       15.777346    4.939919    0.451178
    111          7           0       12.777520    0.272518   -0.455466
    112          6           0       13.916190    0.976734   -0.802482
    113          6           0       15.011834    0.079321   -1.043677
    114          6           0       14.446568   -1.214209   -0.765132
    115          6           0       13.152441   -1.022511   -0.321180
    116          6           0       16.399537    0.422178   -1.480803
    117          6           0       14.733357   -2.607194   -0.767229
    118          8           0       15.729065   -3.295999   -1.024459
    119          6           0       13.502476   -3.266016   -0.060894
    120          6           0       13.148328   -4.474664   -0.861475
    121          8           0       13.550358   -5.622603   -0.625216
    122          8           0       12.364088   -4.113499   -1.922059
    123          6           0       12.061779   -5.324850   -2.735141
    124          1           0        6.851588   -1.135436    0.478867
    125          1           0        9.213729    4.733034    1.114139
    126          1           0       14.930306    2.806982   -0.885781
    127          1           0       10.725382   -4.221966   -0.068056
    128          1           0        8.238421   -3.441572    1.163730
    129          1           0        7.493412   -4.313729   -0.705231
    130          1           0        9.113823   -4.326155   -1.342182
    131          1           0        8.131668   -2.840578   -1.608454
    132          1           0        9.808171   -3.581969    2.940076
    133          1           0       11.444415   -3.633723    2.651958
    134          1           0       11.481331   -5.747846    3.030241
    135          1           0       10.662515   -6.261120    1.598893
    136          1           0        4.997066    1.144399    2.359477
    137          1           0        5.282538   -0.128804    1.165150
    138          1           0        4.641772    1.351423    0.628286
    139          1           0        7.248203    5.948355    0.956834
    140          1           0        7.819918    5.474299    2.573875
    141          1           0        6.206267    5.934133    2.465199
    142          1           0       11.759029    5.253780    1.465560
    143          1           0       13.492229    5.040132   -1.093293
    144          1           0       10.859377    7.063219    0.402501
    145          1           0       10.109782    5.996017   -0.835158
    146          1           0       11.703146    6.851063   -1.009100
    147          1           0       14.244176    4.128392    1.726068
    148          1           0       14.037726    5.849010    1.424235
    149          1           0       16.395040    5.826771    0.590087
    150          1           0       15.816740    4.809471   -0.629407
    151          1           0       16.347821    4.123930    0.894854
    152          1           0       16.574715    1.452737   -1.788987
    153          1           0       16.503814   -0.290176   -2.298211
    154          1           0       16.959616    0.058898   -0.619057
    155          1           0       13.675313   -3.537619    0.981028
    156          1           0       12.969989   -5.658820   -3.235846
    157          1           0       11.428573   -5.107803   -3.595426
    158          1           0       11.609802   -6.061956   -2.071119
 ---------------------------------------------------------------------

 SCF Done:  E(RwB97XD) =  -4070.59766406     A.U. after   19 cycles

 Excitation energies and oscillator strengths:

 Excited State   1:      Singlet-A      1.6237 eV  763.60 nm  f=0.4740  <S**2>=0.000
     309 -> 315       -0.17695
     311 -> 313        0.67519
     312 -> 314        0.11519
     309 <- 315       -0.11579
 This state for optimization and/or second-order correction.
 Total Energy, E(TD-HF/TD-DFT) =  -4070.53799515
 Copying the excited state density for this state as the 1-particle RhoCI density.

 Excited State   2:      Singlet-A      1.6611 eV  746.41 nm  f=0.2664  <S**2>=0.000
     310 -> 316        0.16531
     311 -> 313       -0.11436
     312 -> 314        0.67590
     310 <- 316        0.10711

 Excited State   3:      Singlet-A      2.1633 eV  573.12 nm  f=0.1184  <S**2>=0.000
     309 -> 313        0.63763
     310 -> 314       -0.10588
     311 -> 315        0.26638

 Excited State   4:      Singlet-A      2.1692 eV  571.58 nm  f=0.1374  <S**2>=0.000
     309 -> 313        0.10658
     310 -> 314        0.62921
     312 -> 316       -0.27851

 Excited State   5:      Singlet-A      3.4809 eV  356.19 nm  f=0.0000  <S**2>=0.000
     312 -> 313        0.70686

 The electronic state is 1-A.
 Alpha  occ. eigenvalues --  -46.95439 -46.95404 -19.30916 -19.30613 -19.26023
 Alpha  occ. eigenvalues --  -19.24930 -19.24460 -19.23858 -19.23403 -19.22759
 Alpha  occ. eigenvalues --  -14.47029 -14.46861 -14.46554 -14.46367 -14.44830
 Alpha  occ. eigenvalues --  -14.44739 -14.43658 -14.43007 -10.44305 -10.42370
 Alpha  occ. eigenvalues --  -10.39716 -10.39654 -10.39539 -10.37894 -10.36317
 Alpha  occ. eigenvalues --  -10.36102 -10.35755 -10.35465 -10.35319 -10.35161
 Alpha  occ. eigenvalues --  -10.35027 -10.34927 -10.34778 -10.34753 -10.34595
 Alpha  occ. eigenvalues --  -10.34575 -10.34040 -10.33790 -10.33508 -10.33106
 Alpha  occ. eigenvalues --  -10.32908 -10.32750 -10.32631 -10.32624 -10.32588
 Alpha  occ. eigenvalues --  -10.32482 -10.32470 -10.32415 -10.32336 -10.32313
 Alpha  occ. eigenvalues --  -10.32132 -10.32111 -10.32074 -10.32068 -10.31978
 Alpha  occ. eigenvalues --  -10.31901 -10.31720 -10.31706 -10.31608 -10.31588
 Alpha  occ. eigenvalues --  -10.31545 -10.31436 -10.31413 -10.31295 -10.31245
 Alpha  occ. eigenvalues --  -10.31169 -10.31128 -10.31121 -10.30971 -10.30852
 Alpha  occ. eigenvalues --  -10.30795 -10.30536 -10.30529 -10.30504 -10.30474
 Alpha  occ. eigenvalues --  -10.30415 -10.30394 -10.30215 -10.30018 -10.29923
 Alpha  occ. eigenvalues --  -10.29908 -10.29901 -10.29356 -10.29175 -10.29042
 Alpha  occ. eigenvalues --  -10.28247  -3.21451  -3.21410  -1.95027  -1.94979
 Alpha  occ. eigenvalues --   -1.94589  -1.94538  -1.94412  -1.94383  -1.17958
 Alpha  occ. eigenvalues --   -1.17812  -1.14330  -1.14102  -1.10229  -1.10139
 Alpha  occ. eigenvalues --   -1.09894  -1.08934  -1.08477  -1.07300  -1.06554
 Alpha  occ. eigenvalues --   -1.06338  -1.05841  -1.05438  -1.04849  -1.04678
 Alpha  occ. eigenvalues --   -0.95335  -0.94292  -0.91820  -0.91492  -0.91303
 Alpha  occ. eigenvalues --   -0.90995  -0.90497  -0.89986  -0.89840  -0.89109
 Alpha  occ. eigenvalues --   -0.89010  -0.88789  -0.88396  -0.87952  -0.86817
 Alpha  occ. eigenvalues --   -0.86248  -0.86082  -0.85560  -0.84611  -0.84055
 Alpha  occ. eigenvalues --   -0.83908  -0.83610  -0.82706  -0.82701  -0.82503
 Alpha  occ. eigenvalues --   -0.82152  -0.80229  -0.79815  -0.79672  -0.79425
 Alpha  occ. eigenvalues --   -0.78871  -0.78573  -0.78473  -0.77747  -0.77507
 Alpha  occ. eigenvalues --   -0.77308  -0.75567  -0.74514  -0.74258  -0.74084
 Alpha  occ. eigenvalues --   -0.72281  -0.71421  -0.71192  -0.70963  -0.70009
 Alpha  occ. eigenvalues --   -0.69710  -0.69538  -0.69299  -0.68632  -0.68285
 Alpha  occ. eigenvalues --   -0.67719  -0.67427  -0.67163  -0.66993  -0.66730
 Alpha  occ. eigenvalues --   -0.66331  -0.65167  -0.64258  -0.62573  -0.62438
 Alpha  occ. eigenvalues --   -0.62112  -0.61651  -0.61437  -0.61052  -0.61013
 Alpha  occ. eigenvalues --   -0.60643  -0.60131  -0.59861  -0.58875  -0.58840
 Alpha  occ. eigenvalues --   -0.58458  -0.58274  -0.57988  -0.57840  -0.57677
 Alpha  occ. eigenvalues --   -0.57515  -0.56908  -0.56808  -0.56366  -0.55947
 Alpha  occ. eigenvalues --   -0.55884  -0.55568  -0.55410  -0.55217  -0.54802
 Alpha  occ. eigenvalues --   -0.54679  -0.54529  -0.54287  -0.54199  -0.54053
 Alpha  occ. eigenvalues --   -0.53808  -0.53718  -0.53500  -0.53096  -0.52999
 Alpha  occ. eigenvalues --   -0.52997  -0.52865  -0.52515  -0.52404  -0.52293
 Alpha  occ. eigenvalues --   -0.52272  -0.52043  -0.52027  -0.51878  -0.51709
 Alpha  occ. eigenvalues --   -0.51649  -0.51525  -0.50933  -0.50898  -0.50727
 Alpha  occ. eigenvalues --   -0.50616  -0.50469  -0.50312  -0.50127  -0.49982
 Alpha  occ. eigenvalues --   -0.49715  -0.49558  -0.49439  -0.49215  -0.49207
 Alpha  occ. eigenvalues --   -0.48888  -0.48738  -0.48607  -0.48597  -0.48470
 Alpha  occ. eigenvalues --   -0.48071  -0.48027  -0.48000  -0.47880  -0.47739
 Alpha  occ. eigenvalues --   -0.47680  -0.47543  -0.47488  -0.47299  -0.47186
 Alpha  occ. eigenvalues --   -0.47175  -0.46946  -0.46864  -0.46427  -0.46215
 Alpha  occ. eigenvalues --   -0.46133  -0.46033  -0.46004  -0.45932  -0.45796
 Alpha  occ. eigenvalues --   -0.45705  -0.45247  -0.45160  -0.44981  -0.44748
 Alpha  occ. eigenvalues --   -0.44674  -0.44479  -0.44420  -0.44398  -0.44366
 Alpha  occ. eigenvalues --   -0.44026  -0.43954  -0.43728  -0.43700  -0.43680
 Alpha  occ. eigenvalues --   -0.43519  -0.43455  -0.43211  -0.43083  -0.42976
 Alpha  occ. eigenvalues --   -0.42557  -0.42082  -0.41830  -0.41403  -0.41009
 Alpha  occ. eigenvalues --   -0.40725  -0.40434  -0.40199  -0.40088  -0.39793
 Alpha  occ. eigenvalues --   -0.39543  -0.39482  -0.39331  -0.38757  -0.38640
 Alpha  occ. eigenvalues --   -0.38420  -0.38270  -0.37436  -0.36839  -0.36728
 Alpha  occ. eigenvalues --   -0.35672  -0.35523  -0.35206  -0.34027  -0.33829
 Alpha  occ. eigenvalues --   -0.33444  -0.33170  -0.32659  -0.32593  -0.32210
 Alpha  occ. eigenvalues --   -0.32000  -0.31883  -0.30901  -0.26369  -0.26012
 Alpha  occ. eigenvalues --   -0.23506  -0.22855
 Alpha virt. eigenvalues --   -0.07738  -0.06975   0.00035   0.00268   0.02272
 Alpha virt. eigenvalues --    0.02431   0.04287   0.04389   0.04954   0.05270
 Alpha virt. eigenvalues --    0.06219   0.07103   0.07397   0.08112   0.08257

 Mulliken charges:
               1
     1  Mg   0.972300
     2  C    0.037947
     3  C   -0.077627
     4  C   -0.047309
     5  C   -0.093071
     6  N   -0.359284
     7  C   -0.051941
     8  C   -0.053864
     9  C   -0.081863
    10  C    0.068437
    11  C    0.030583
    12  C    0.005060
    13  C   -0.116321
    14  H    0.048042
    15  N   -0.473375
    16  C    0.150747
    17  C   -0.148813
    18  C   -0.063113
    19  C    0.180091
    20  C    0.070602
    21  C    0.021622
    22  O   -0.276213
    23  C    0.023491
    24  N   -0.303453
    25  C    0.005266
    26  C   -0.045730
    27  C   -0.064958
    28  C    0.055348
    29  C    0.009325
    30  C   -0.002920
    31  C   -0.061516
    32  N   -0.466592
    33  C    0.108524
    34  C   -0.190623
    35  C   -0.079779
    36  C    0.147588
    37  C    0.086720
    38  C    0.122401
    39  O   -0.159666
    40  C   -0.057615
    41  C    0.245529
    42  O   -0.241577
    43  O   -0.390674
    44  C    0.140127
    45  H    0.005767
    46  H   -0.060413
    47  H    0.007068
    48  H    0.035143
    49  H    0.038544
    50  H    0.037952
    51  H    0.024545
    52  H    0.047555
    53  H    0.031416
    54  H    0.047738
    55  H    0.050611
    56  H    0.054721
    57  H    0.034286
    58  H    0.046792
    59  H    0.065105
    60  H    0.062898
    61  H    0.064305
    62  H    0.063579
    63  H    0.043510
    64  H    0.043036
    65  H    0.033492
    66  H    0.024361
    67  H    0.040194
    68  H    0.031086
    69  H    0.026698
    70  H    0.031347
    71  H    0.020794
    72  H    0.039995
    73  H    0.062186
    74  H    0.052360
    75  H    0.046377
    76  H    0.069871
    77  H    0.047328
    78  H    0.043995
    79  H    0.063902
    80  Mg   0.966827
    81  C    0.015871
    82  C   -0.089112
    83  C   -0.073774
    84  C   -0.081987
    85  N   -0.340869
    86  C   -0.050088
    87  C   -0.024522
    88  C   -0.146593
    89  C    0.111001
    90  C    0.045213
    91  C    0.022989
    92  C   -0.130037
    93  H    0.029276
    94  N   -0.460826
    95  C    0.119117
    96  C   -0.139013
    97  C   -0.060820
    98  C    0.168841
    99  C    0.086548
   100  C    0.018648
   101  O   -0.210564
   102  C   -0.019591
   103  N   -0.295246
   104  C    0.031443
   105  C   -0.087936
   106  C   -0.051359
   107  C    0.005287
   108  C    0.018891
   109  C   -0.018379
   110  C   -0.065343
   111  N   -0.450882
   112  C    0.151340
   113  C   -0.201041
   114  C   -0.007601
   115  C    0.105754
   116  C    0.098553
   117  C    0.085628
   118  O   -0.226589
   119  C   -0.061075
   120  C    0.241409
   121  O   -0.258253
   122  O   -0.370073
   123  C    0.138545
   124  H    0.003853
   125  H   -0.045772
   126  H   -0.027520
   127  H    0.026035
   128  H    0.042943
   129  H    0.042340
   130  H    0.029589
   131  H    0.040920
   132  H    0.040799
   133  H    0.032107
   134  H    0.057285
   135  H    0.062864
   136  H    0.070095
   137  H    0.020258
   138  H    0.053720
   139  H    0.066980
   140  H    0.060492
   141  H    0.051319
   142  H    0.046575
   143  H    0.041746
   144  H    0.030364
   145  H    0.057272
   146  H    0.038471
   147  H    0.041078
   148  H    0.036313
   149  H    0.039840
   150  H    0.032998
   151  H    0.044179
   152  H    0.043012
   153  H    0.064826
   154  H    0.064521
   155  H    0.078353
   156  H    0.064642
   157  H    0.047332
   158  H    0.060563
 Sum of Mulliken charges =  -0.00000

 Dipole moment (field-independent basis, Debye):
    X=             -5.0990    Y=              8.2372    Z=             -2.5289  Tot=             10.0123
 Quadrupole moment (field-independent basis, Debye-Ang):
   XX=           -604.2941   YY=           -467.0380   ZZ=           -500.2676
   XY=             83.9594   XZ=             16.6487   YZ=              5.7131

 Normal termination of Gaussian 16 at Sun Sep 19 20:46:27 2021.
