 Gaussian 16, Revision A.03,
 Gaussian 16:  ES64L-G16RevA.03 25-Dec-2016

 --------------------------------
 #p wB97XD/Def2SVP td=(nstates=5)
 --------------------------------

 --------------------------------
 TDDFT excited states in gaussian
 --------------------------------
 Symbolic Z-matrix:
 Charge =  0 Multiplicity = 1

                         Standard orientation:
 ---------------------------------------------------------------------
 Center     Atomic      Atomic             Coordinates (Angstroms)
 Number     Number       Type             X           Y           Z
 ---------------------------------------------------------------------
      1         12           0      -27.580618   -0.442623   -0.297668
      2          6           0      -25.679330    2.364010   -0.855995
      3          6           0      -29.012587    1.215235    2.506008
      4          6           0      -29.111328   -3.286060    0.703065
      5          6           0      -25.989225   -2.113455   -2.732093
      6          7           0      -27.357294    1.570975    0.708164
      7          6           0      -26.487416    2.534214    0.272452
      8          6           0      -26.643375    3.823205    1.082464
      9          6           0      -27.585751    3.315797    2.269404
     10          6           0      -28.016642    1.952121    1.814559
     11          6           0      -26.916569    3.370272    3.691700
     12          6           0      -27.297011    5.023930    0.257358
     13          6           0      -26.776984    6.439468    0.329555
     14          1           0      -26.489027    7.020257    1.668333
     15          7           0      -28.941565   -0.987398    1.353703
     16          6           0      -29.522717   -0.154037    2.244469
     17          6           0      -30.538499   -0.816443    2.992036
     18          6           0      -30.618023   -2.143123    2.462662
     19          6           0      -29.471324   -2.188215    1.506950
     20          6           0      -31.215651   -0.071286    4.096674
     21          6           0      -31.479941   -3.303706    2.929647
     22          8           0      -31.263555   -4.469361    2.583950
     23          6           0      -32.645724   -3.060190    3.871920
     24          7           0      -27.446241   -2.499407   -0.833919
     25          6           0      -28.283413   -3.455318   -0.351843
     26          6           0      -28.144631   -4.748650   -1.153129
     27          6           0      -27.258075   -4.289579   -2.372575
     28          6           0      -26.873726   -2.879261   -1.970781
     29          6           0      -27.682137   -6.072722   -0.476277
     30          6           0      -27.904221   -4.421838   -3.814591
     31          6           0      -28.643792   -3.254711   -4.433620
     32          7           0      -26.079812   -0.047092   -1.478212
     33          6           0      -25.577820   -0.737379   -2.552170
     34          6           0      -24.524269   -0.059476   -3.215272
     35          6           0      -24.553402    1.196264   -2.616825
     36          6           0      -25.528284    1.158565   -1.586886
     37          6           0      -23.614273   -0.430787   -4.378876
     38          6           0      -23.980451    2.470159   -2.584395
     39          8           0      -23.054783    2.896263   -3.250220
     40          6           0      -24.662178    3.353463   -1.395379
     41          6           0      -23.610877    3.725311   -0.456578
     42          8           0      -22.954020    2.939756    0.255057
     43          8           0      -23.344229    5.058191   -0.443165
     44          6           0      -22.115061    5.528452    0.205493
     45          1           0      -29.440858    1.851300    3.283001
     46          1           0      -29.793729   -4.130469    0.818570
     47          1           0      -25.726524   -2.476432   -3.727194
     48          1           0      -25.649720    4.172778    1.365625
     49          1           0      -28.458100    3.958913    2.386860
     50          1           0      -27.524213    4.023178    4.317326
     51          1           0      -25.892578    3.691040    3.499476
     52          1           0      -26.942436    2.437112    4.255230
     53          1           0      -28.319591    5.004082    0.634647
     54          1           0      -27.476324    4.734089   -0.777449
     55          1           0      -27.411725    7.099863   -0.261234
     56          1           0      -25.786675    6.405496   -0.123138
     57          1           0      -32.275254   -0.289973    3.969441
     58          1           0      -31.106151    1.005051    3.961670
     59          1           0      -30.900084   -0.318717    5.110804
     60          1           0      -33.238845   -2.178887    3.625981
     61          1           0      -32.308682   -3.159420    4.904654
     62          1           0      -33.311273   -3.905026    3.692157
     63          1           0      -29.176951   -4.987949   -1.409279
     64          1           0      -26.393654   -4.933210   -2.531334
     65          1           0      -26.677214   -6.334697   -0.807024
     66          1           0      -28.375731   -6.843372   -0.812204
     67          1           0      -27.739195   -5.890027    0.596225
     68          1           0      -28.598721   -5.259301   -3.763796
     69          1           0      -27.132441   -4.676414   -4.541337
     70          1           0      -29.639133   -3.540122   -4.774931
     71          1           0      -28.116265   -2.798780   -5.272495
     72          1           0      -28.718454   -2.518631   -3.633155
     73          1           0      -23.896055   -1.416795   -4.750305
     74          1           0      -22.577848   -0.416478   -4.040710
     75          1           0      -23.738789    0.313354   -5.165044
     76          1           0      -24.963926    4.234306   -1.962834
     77          1           0      -21.762431    6.493895   -0.157634
     78          1           0      -21.304093    4.802709    0.258683
     79          1           0      -22.420435    5.797198    1.216860
     80         12           0       26.944363   -0.886060    0.273163
     81          6           0       27.807912    2.457999   -0.348628
     82          6           0       26.691514   -0.285775    3.543826
     83          6           0       26.243880   -4.022243    0.656960
     84          6           0       28.242605   -1.566816   -3.034376
     85          7           0       27.333766    0.890778    1.427936
     86          6           0       27.499422    2.153004    1.013022
     87          6           0       27.656367    3.109776    2.166620
     88          6           0       27.706281    2.135200    3.410996
     89          6           0       27.205402    0.848177    2.784667
     90          6           0       29.064844    1.956215    4.163209
     91          6           0       26.369020    4.075935    2.279331
     92          6           0       26.737607    5.586523    2.446714
     93          1           0       25.441624    6.543344    2.243471
     94          7           0       26.299411   -1.911829    1.793368
     95          6           0       26.208575   -1.494311    3.110253
     96          6           0       25.472639   -2.481536    3.851095
     97          6           0       25.260572   -3.659307    3.023745
     98          6           0       25.839875   -3.213535    1.698964
     99          6           0       25.198521   -2.236751    5.362809
    100          6           0       24.621262   -5.029772    3.216164
    101          8           0       24.451936   -5.895424    2.338532
    102          6           0       24.082702   -5.220432    4.589816
    103          7           0       27.380032   -2.511747   -0.991556
    104          6           0       26.949452   -3.726640   -0.518399
    105          6           0       27.356164   -4.857329   -1.464075
    106          6           0       27.694324   -4.067096   -2.755424
    107          6           0       27.848449   -2.632686   -2.246095
    108          6           0       28.484354   -5.740252   -0.797157
    109          6           0       26.637940   -4.173917   -3.935769
    110          6           0       27.160636   -3.914834   -5.357833
    111          7           0       27.814694    0.190142   -1.404502
    112          6           0       28.261083   -0.235462   -2.618833
    113          6           0       28.633193    0.880305   -3.459604
    114          6           0       28.390069    1.963848   -2.595748
    115          6           0       27.957908    1.500825   -1.344726
    116          6           0       29.158744    0.954751   -4.911652
    117          6           0       28.425212    3.398493   -2.536318
    118          8           0       28.567312    4.257656   -3.366519
    119          6           0       28.197611    3.757503   -0.977165
    120          6           0       27.261546    4.879151   -1.090146
    121          8           0       26.013959    4.856989   -1.242080
    122          8           0       28.029103    5.979888   -1.012133
    123          6           0       27.381100    7.286539   -1.133826
    124          1           0       26.517765   -0.077678    4.601774
    125          1           0       25.939129   -5.066330    0.756254
    126          1           0       28.533129   -1.819383   -4.056266
    127          1           0       28.521327    3.770974    2.107174
    128          1           0       26.987739    2.336243    4.205815
    129          1           0       29.424016    0.947075    3.961461
    130          1           0       28.817767    2.060545    5.219553
    131          1           0       29.892649    2.618489    3.912200
    132          1           0       25.640171    3.810490    3.046022
    133          1           0       25.769101    3.883485    1.389789
    134          1           0       27.493797    5.878622    1.718339
    135          1           0       27.086578    5.872027    3.438797
    136          1           0       24.245800   -1.716162    5.449499
    137          1           0       25.835027   -1.469135    5.804664
    138          1           0       25.383824   -3.068748    6.041779
    139          1           0       23.300225   -4.517195    4.872725
    140          1           0       24.985477   -5.145900    5.197297
    141          1           0       23.693658   -6.222448    4.772869
    142          1           0       26.462036   -5.470781   -1.575815
    143          1           0       28.622204   -4.452302   -3.178121
    144          1           0       29.444170   -5.551066   -1.277679
    145          1           0       28.384114   -6.825003   -0.823573
    146          1           0       28.732109   -5.517185    0.240819
    147          1           0       25.978206   -3.328049   -3.740590
    148          1           0       26.047347   -5.087765   -4.003931
    149          1           0       26.732403   -3.011784   -5.794759
    150          1           0       27.027746   -4.681777   -6.121154
    151          1           0       28.213886   -3.666757   -5.234324
    152          1           0       29.634207   -0.007433   -5.102021
    153          1           0       29.870437    1.772826   -5.030392
    154          1           0       28.280898    1.065601   -5.548119
    155          1           0       29.127136    4.133828   -0.549641
    156          1           0       27.418258    7.781378   -0.163492
    157          1           0       26.393612    7.216837   -1.588774
    158          1           0       28.001443    7.914093   -1.773591
 ---------------------------------------------------------------------

 SCF Done:  E(RwB97XD) =  -4070.62387848     A.U. after   19 cycles

 Excitation energies and oscillator strengths:

 Excited State   1:      Singlet-A      1.6605 eV  746.65 nm  f=0.4115  <S**2>=0.000
     310 -> 316        0.18410
     311 -> 313        0.68430
     310 <- 316        0.11635
 This state for optimization and/or second-order correction.
 Total Energy, E(TD-HF/TD-DFT) =  -4070.56285501
 Copying the excited state density for this state as the 1-particle RhoCI density.

 Excited State   2:      Singlet-A      1.6707 eV  742.09 nm  f=0.3811  <S**2>=0.000
     309 -> 315       -0.20303
     312 -> 314        0.67878
     309 <- 315       -0.12002

 Excited State   3:      Singlet-A      2.1344 eV  580.89 nm  f=0.1702  <S**2>=0.000
     310 -> 313        0.66026
     311 -> 316       -0.24164

 Excited State   4:      Singlet-A      2.1931 eV  565.34 nm  f=0.0611  <S**2>=0.000
     309 -> 314        0.61586
     312 -> 315        0.33613

 Excited State   5:      Singlet-A      3.4187 eV  362.67 nm  f=0.4042  <S**2>=0.000
     305 -> 314        0.13468
     308 -> 314       -0.34053
     309 -> 314       -0.25482
     312 -> 315        0.52574

 The electronic state is 1-A.
 Alpha  occ. eigenvalues --  -46.95441 -46.93908 -19.30273 -19.30068 -19.24719
 Alpha  occ. eigenvalues --  -19.24054 -19.23925 -19.23645 -19.23472 -19.23388
 Alpha  occ. eigenvalues --  -14.47170 -14.46704 -14.46297 -14.46112 -14.44159
 Alpha  occ. eigenvalues --  -14.44086 -14.44080 -14.42983 -10.42772 -10.42409
 Alpha  occ. eigenvalues --  -10.39975 -10.39355 -10.38647 -10.38529 -10.35745
 Alpha  occ. eigenvalues --  -10.35353 -10.35184 -10.35077 -10.34893 -10.34810
 Alpha  occ. eigenvalues --  -10.34726 -10.34656 -10.34399 -10.34241 -10.34236
 Alpha  occ. eigenvalues --  -10.34144 -10.34138 -10.34123 -10.34115 -10.33884
 Alpha  occ. eigenvalues --  -10.33445 -10.33209 -10.32989 -10.32778 -10.32677
 Alpha  occ. eigenvalues --  -10.32526 -10.32522 -10.32521 -10.32402 -10.32312
 Alpha  occ. eigenvalues --  -10.32111 -10.32086 -10.32042 -10.31977 -10.31870
 Alpha  occ. eigenvalues --  -10.31780 -10.31777 -10.31761 -10.31742 -10.31668
 Alpha  occ. eigenvalues --  -10.31638 -10.31596 -10.31542 -10.31351 -10.31320
 Alpha  occ. eigenvalues --  -10.30857 -10.30806 -10.30749 -10.30645 -10.30505
 Alpha  occ. eigenvalues --  -10.30342 -10.30340 -10.30283 -10.30248 -10.30148
 Alpha  occ. eigenvalues --  -10.30059 -10.29923 -10.29919 -10.29854 -10.29715
 Alpha  occ. eigenvalues --  -10.29562 -10.29237 -10.29173 -10.28834 -10.28635
 Alpha  occ. eigenvalues --  -10.28465  -3.21493  -3.20151  -1.95065  -1.94580
 Alpha  occ. eigenvalues --   -1.94507  -1.93733  -1.93295  -1.93141  -1.18102
 Alpha  occ. eigenvalues --   -1.18021  -1.12989  -1.12119  -1.11690  -1.11615
 Alpha  occ. eigenvalues --   -1.08016  -1.07705  -1.07396  -1.07186  -1.06691
 Alpha  occ. eigenvalues --   -1.06298  -1.06157  -1.05598  -1.05502  -1.04455
 Alpha  occ. eigenvalues --   -0.94678  -0.94582  -0.91043  -0.90946  -0.90109
 Alpha  occ. eigenvalues --   -0.90103  -0.90055  -0.89881  -0.89720  -0.89365
 Alpha  occ. eigenvalues --   -0.89361  -0.88917  -0.88366  -0.88200  -0.86438
 Alpha  occ. eigenvalues --   -0.86212  -0.85717  -0.85653  -0.84562  -0.84376
 Alpha  occ. eigenvalues --   -0.84153  -0.83770  -0.83218  -0.83106  -0.82275
 Alpha  occ. eigenvalues --   -0.82229  -0.80351  -0.80172  -0.79400  -0.79221
 Alpha  occ. eigenvalues --   -0.79028  -0.78812  -0.78157  -0.77835  -0.77426
 Alpha  occ. eigenvalues --   -0.77306  -0.75529  -0.74760  -0.74100  -0.73519
 Alpha  occ. eigenvalues --   -0.71542  -0.71209  -0.71208  -0.70702  -0.70089
 Alpha  occ. eigenvalues --   -0.69835  -0.69184  -0.69120  -0.67975  -0.67551
 Alpha  occ. eigenvalues --   -0.67448  -0.67102  -0.66865  -0.66721  -0.66423
 Alpha  occ. eigenvalues --   -0.66200  -0.64229  -0.63741  -0.62248  -0.62198
 Alpha  occ. eigenvalues --   -0.61800  -0.61779  -0.61130  -0.61057  -0.60605
 Alpha  occ. eigenvalues --   -0.60267  -0.59973  -0.59873  -0.59272  -0.59094
 Alpha  occ. eigenvalues --   -0.58308  -0.58233  -0.57833  -0.57427  -0.57325
 Alpha  occ. eigenvalues --   -0.56994  -0.56771  -0.56271  -0.55984  -0.55827
 Alpha  occ. eigenvalues --   -0.55365  -0.55222  -0.55162  -0.55086  -0.54742
 Alpha  occ. eigenvalues --   -0.54740  -0.54478  -0.54476  -0.54165  -0.54134
 Alpha  occ. eigenvalues --   -0.54011  -0.53508  -0.53393  -0.53323  -0.52964
 Alpha  occ. eigenvalues --   -0.52679  -0.52665  -0.52521  -0.52296  -0.52187
 Alpha  occ. eigenvalues --   -0.52108  -0.51934  -0.51794  -0.51456  -0.51344
 Alpha  occ. eigenvalues --   -0.51157  -0.51003  -0.51002  -0.50826  -0.50724
 Alpha  occ. eigenvalues --   -0.50666  -0.50496  -0.50385  -0.50162  -0.50070
 Alpha  occ. eigenvalues --   -0.49916  -0.49770  -0.49496  -0.49301  -0.49174
 Alpha  occ. eigenvalues --   -0.49089  -0.48797  -0.48792  -0.48418  -0.48397
 Alpha  occ. eigenvalues --   -0.48244  -0.48088  -0.47880  -0.47827  -0.47796
 Alpha  occ. eigenvalues --   -0.47634  -0.47442  -0.47227  -0.47051  -0.46948
 Alpha  occ. eigenvalues --   -0.46836  -0.46449  -0.45946  -0.45853  -0.45825
 Alpha  occ. eigenvalues --   -0.45673  -0.45548  -0.45488  -0.45400  -0.45284
 Alpha  occ. eigenvalues --   -0.45162  -0.44997  -0.44920  -0.44796  -0.44765
 Alpha  occ. eigenvalues --   -0.44578  -0.44179  -0.44147  -0.44010  -0.43902
 Alpha  occ. eigenvalues --   -0.43860  -0.43785  -0.43448  -0.43242  -0.43223
 Alpha  occ. eigenvalues --   -0.43137  -0.43026  -0.42692  -0.42487  -0.42448
 Alpha  occ. eigenvalues --   -0.42187  -0.41917  -0.41749  -0.41487  -0.41448
 Alpha  occ. eigenvalues --   -0.40710  -0.40404  -0.40143  -0.39755  -0.39447
 Alpha  occ. eigenvalues --   -0.39268  -0.38932  -0.38653  -0.38036  -0.37669
 Alpha  occ. eigenvalues --   -0.37499  -0.37204  -0.36541  -0.36139  -0.35959
 Alpha  occ. eigenvalues --   -0.35412  -0.35074  -0.34943  -0.33706  -0.33530
 Alpha  occ. eigenvalues --   -0.33488  -0.33241  -0.33025  -0.32604  -0.32449
 Alpha  occ. eigenvalues --   -0.32443  -0.32249  -0.31758  -0.26103  -0.25740
 Alpha  occ. eigenvalues --   -0.23267  -0.22917
 Alpha virt. eigenvalues --   -0.07454  -0.06772  -0.00381   0.00734   0.01766
 Alpha virt. eigenvalues --    0.02319   0.04565   0.04576   0.04947   0.06233
 Alpha virt. eigenvalues --    0.06880   0.07387   0.07614   0.08258   0.08562

 Mulliken charges:
               1
     1  Mg   0.974609
     2  C   -0.004217
     3  C   -0.064862
     4  C   -0.065471
     5  C   -0.074914
     6  N   -0.330467
     7  C    0.000564
     8  C   -0.084486
     9  C   -0.117727
    10  C    0.051370
    11  C    0.025252
    12  C    0.010925
    13  C   -0.102366
    14  H    0.032746
    15  N   -0.356517
    16  C    0.129019
    17  C   -0.163756
    18  C   -0.075495
    19  C    0.099992
    20  C    0.082208
    21  C    0.043295
    22  O   -0.246913
    23  C   -0.017126
    24  N   -0.351357
    25  C    0.050137
    26  C   -0.080570
    27  C   -0.041488
    28  C    0.061353
    29  C    0.035317
    30  C   -0.058000
    31  C   -0.043031
    32  N   -0.478775
    33  C    0.099599
    34  C   -0.189193
    35  C    0.041027
    36  C    0.138090
    37  C    0.096919
    38  C    0.037820
    39  O   -0.207894
    40  C   -0.056012
    41  C    0.260124
    42  O   -0.281282
    43  O   -0.359705
    44  C    0.146621
    45  H   -0.010904
    46  H    0.017278
    47  H   -0.000404
    48  H    0.049020
    49  H    0.042624
    50  H    0.031643
    51  H    0.050437
    52  H    0.040572
    53  H    0.012373
    54  H    0.032273
    55  H    0.056002
    56  H    0.054347
    57  H    0.030606
    58  H    0.036830
    59  H    0.063555
    60  H    0.053821
    61  H    0.071503
    62  H    0.050420
    63  H    0.036329
    64  H    0.036896
    65  H    0.036523
    66  H    0.040342
    67  H    0.051418
    68  H    0.029687
    69  H    0.029359
    70  H    0.038440
    71  H    0.037291
    72  H    0.035897
    73  H    0.026408
    74  H    0.066844
    75  H    0.060972
    76  H    0.060673
    77  H    0.053421
    78  H    0.075510
    79  H    0.036631
    80  Mg   0.994367
    81  C    0.048506
    82  C   -0.082916
    83  C   -0.068703
    84  C   -0.108842
    85  N   -0.341606
    86  C    0.046108
    87  C   -0.121736
    88  C   -0.075762
    89  C    0.029357
    90  C    0.026875
    91  C    0.023850
    92  C   -0.140399
    93  H    0.018721
    94  N   -0.559213
    95  C    0.189732
    96  C   -0.126404
    97  C   -0.130513
    98  C    0.181134
    99  C    0.043715
   100  C    0.089219
   101  O   -0.240711
   102  C   -0.020844
   103  N   -0.363999
   104  C    0.073073
   105  C   -0.083672
   106  C   -0.059579
   107  C    0.063269
   108  C    0.017243
   109  C   -0.011477
   110  C   -0.064793
   111  N   -0.360461
   112  C    0.130833
   113  C   -0.202659
   114  C   -0.018013
   115  C    0.092203
   116  C    0.097839
   117  C    0.101701
   118  O   -0.185109
   119  C   -0.133338
   120  C    0.263561
   121  O   -0.285021
   122  O   -0.350121
   123  C    0.138312
   124  H   -0.014469
   125  H    0.026631
   126  H   -0.019371
   127  H    0.037171
   128  H    0.028911
   129  H    0.042198
   130  H    0.037578
   131  H    0.042983
   132  H    0.031571
   133  H    0.058233
   134  H    0.053286
   135  H    0.056592
   136  H    0.054112
   137  H    0.028138
   138  H    0.054180
   139  H    0.074609
   140  H    0.050217
   141  H    0.047502
   142  H    0.043297
   143  H    0.027313
   144  H    0.021170
   145  H    0.043985
   146  H    0.041011
   147  H    0.036430
   148  H    0.043310
   149  H    0.035213
   150  H    0.044635
   151  H    0.027532
   152  H    0.034203
   153  H    0.066250
   154  H    0.064453
   155  H    0.073451
   156  H    0.048547
   157  H    0.075983
   158  H    0.049416
 Sum of Mulliken charges =  -0.00000

 Dipole moment (field-independent basis, Debye):
    X=             -2.3720    Y=              0.3497    Z=              4.8576  Tot=              5.4171
 Quadrupole moment (field-independent basis, Debye-Ang):
   XX=           -192.1106   YY=           -506.2369   ZZ=           -468.7882
   XY=            -91.7095   XZ=            103.4473   YZ=             47.2565

 Normal termination of Gaussian 16 at Mon Sep 20 20:35:58 2021.
