 Gaussian 16, Revision A.03,
 Gaussian 16:  ES64L-G16RevA.03 25-Dec-2016

 --------------------------------
 #p wB97XD/Def2SVP td=(nstates=5)
 --------------------------------

 --------------------------------
 TDDFT excited states in gaussian
 --------------------------------
 Symbolic Z-matrix:
 Charge =  0 Multiplicity = 1

                         Standard orientation:
 ---------------------------------------------------------------------
 Center     Atomic      Atomic             Coordinates (Angstroms)
 Number     Number       Type             X           Y           Z
 ---------------------------------------------------------------------
      1         12           0      -28.551092    0.214580    0.358342
      2          6           0      -26.801716   -1.982070   -1.531401
      3          6           0      -28.110943    2.656384   -2.072421
      4          6           0      -30.295561    2.413253    2.251523
      5          6           0      -28.567857   -2.049286    2.977058
      6          7           0      -27.674984    0.223697   -1.556313
      7          6           0      -26.968044   -0.764252   -2.160945
      8          6           0      -26.635300   -0.439645   -3.593883
      9          6           0      -26.810751    1.125191   -3.657261
     10          6           0      -27.620891    1.350391   -2.338656
     11          6           0      -25.547842    2.066609   -3.840438
     12          6           0      -27.643278   -1.144041   -4.609542
     13          6           0      -27.024144   -1.339492   -6.024925
     14          1           0      -25.924033   -0.410755   -6.565618
     15          7           0      -29.084577    2.306518    0.192305
     16          6           0      -28.791605    3.112990   -0.938608
     17          6           0      -29.337249    4.422449   -0.743966
     18          6           0      -29.981775    4.391046    0.543882
     19          6           0      -29.801221    2.974935    1.025480
     20          6           0      -29.297486    5.516547   -1.752479
     21          6           0      -30.725334    5.500263    1.279504
     22          8           0      -31.168807    5.432702    2.463374
     23          6           0      -30.961754    6.828528    0.580920
     24          7           0      -29.261371    0.223874    2.341903
     25          6           0      -30.133663    1.185530    2.854249
     26          6           0      -30.880014    0.758774    4.151210
     27          6           0      -30.286916   -0.753000    4.294572
     28          6           0      -29.348423   -0.907745    3.154404
     29          6           0      -30.485706    1.706938    5.290924
     30          6           0      -31.334980   -1.822581    4.386683
     31          6           0      -31.209138   -2.680887    5.612829
     32          7           0      -27.799437   -1.539529    0.792510
     33          6           0      -27.880978   -2.404623    1.876591
     34          6           0      -27.170470   -3.598515    1.603191
     35          6           0      -26.665137   -3.501550    0.278847
     36          6           0      -27.156641   -2.279038   -0.225557
     37          6           0      -26.984236   -4.791384    2.460101
     38          6           0      -25.808269   -4.123373   -0.706824
     39          8           0      -25.122006   -5.126053   -0.740531
     40          6           0      -25.954822   -3.137454   -1.961023
     41          6           0      -24.667924   -2.937751   -2.677407
     42          8           0      -23.588255   -2.748966   -2.177918
     43          8           0      -24.784091   -3.022473   -4.011774
     44          6           0      -23.509902   -2.811006   -4.755909
     45          1           0      -27.768901    3.387572   -2.808001
     46          1           0      -30.738076    3.169754    2.902809
     47          1           0      -28.623074   -2.859566    3.706924
     48          1           0      -25.581772   -0.598908   -3.823081
     49          1           0      -27.515219    1.356684   -4.455513
     50          1           0      -24.685316    1.420575   -4.004529
     51          1           0      -25.318600    2.766948   -3.038837
     52          1           0      -25.759382    2.702247   -4.700482
     53          1           0      -28.520488   -0.496817   -4.606075
     54          1           0      -27.898710   -2.115661   -4.186505
     55          1           0      -27.902445   -1.284635   -6.668365
     56          1           0      -26.719049   -2.384186   -6.079107
     57          1           0      -30.062027    5.475021   -2.528335
     58          1           0      -28.293359    5.481442   -2.173223
     59          1           0      -29.255642    6.509792   -1.306460
     60          1           0      -30.046370    7.403791    0.718813
     61          1           0      -31.770826    7.297137    1.140657
     62          1           0      -31.167407    6.739491   -0.485941
     63          1           0      -31.941452    0.896611    3.944829
     64          1           0      -29.713852   -0.810695    5.220590
     65          1           0      -29.675564    2.403110    5.072856
     66          1           0      -30.335844    1.122980    6.198709
     67          1           0      -31.345810    2.359967    5.441629
     68          1           0      -31.289744   -2.540994    3.568081
     69          1           0      -32.361746   -1.457733    4.356732
     70          1           0      -32.150369   -2.803826    6.147854
     71          1           0      -30.497833   -2.258417    6.322026
     72          1           0      -30.748091   -3.598790    5.246967
     73          1           0      -26.958019   -4.609867    3.534974
     74          1           0      -25.935645   -5.045958    2.303316
     75          1           0      -27.720444   -5.553230    2.203577
     76          1           0      -26.566657   -3.802483   -2.571219
     77          1           0      -22.866708   -3.691669   -4.726632
     78          1           0      -23.021469   -1.878802   -4.471636
     79          1           0      -23.753619   -2.664038   -5.808384
     80         12           0       28.568442    0.543969   -0.374090
     81          6           0       26.432040   -2.246291   -0.353145
     82          6           0       25.816122    2.556357   -0.818137
     83          6           0       30.524446    3.105415    0.373300
     84          6           0       31.289565   -1.623099    0.345042
     85          7           0       26.386289    0.207389   -0.306090
     86          6           0       25.706550   -1.037976   -0.294836
     87          6           0       24.294718   -0.922752   -0.699163
     88          6           0       24.141705    0.640537   -0.943126
     89          6           0       25.542687    1.184585   -0.712169
     90          6           0       23.475200    0.967621   -2.301362
     91          6           0       23.306613   -1.308332    0.359091
     92          6           0       23.661429   -0.933528    1.805738
     93          1           0       22.550327   -0.498112    2.838721
     94          7           0       28.255695    2.595288   -0.265937
     95          6           0       27.098379    3.195357   -0.603869
     96          6           0       27.307249    4.621654   -0.600327
     97          6           0       28.683833    4.820384   -0.330936
     98          6           0       29.248137    3.483682   -0.084276
     99          6           0       26.247780    5.669919   -0.809926
    100          6           0       29.400405    6.170059   -0.300818
    101          8           0       28.797014    7.205054   -0.506170
    102          6           0       30.827604    6.436280    0.076490
    103          7           0       30.526049    0.720208    0.510083
    104          6           0       31.151970    1.926740    0.676991
    105          6           0       32.684411    1.746278    0.933024
    106          6           0       32.788535    0.217039    1.216261
    107          6           0       31.474142   -0.267822    0.644874
    108          6           0       33.607730    2.150652   -0.241572
    109          6           0       32.742552   -0.217901    2.756755
    110          6           0       33.755205   -1.208646    3.204643
    111          7           0       28.880593   -1.443518   -0.166482
    112          6           0       30.022909   -2.137697   -0.074582
    113          6           0       29.786900   -3.578930   -0.464488
    114          6           0       28.365359   -3.612181   -0.627463
    115          6           0       27.850538   -2.327797   -0.292813
    116          6           0       30.762892   -4.737924   -0.607453
    117          6           0       27.270431   -4.517768   -0.824324
    118          8           0       27.259106   -5.727023   -0.992010
    119          6           0       25.961577   -3.640749   -0.681401
    120          6           0       25.243650   -4.120372    0.563051
    121          8           0       25.590555   -4.002409    1.691648
    122          8           0       24.025552   -4.637349    0.176143
    123          6           0       23.105261   -4.876019    1.292577
    124          1           0       24.974501    3.165341   -1.154128
    125          1           0       31.227958    3.936074    0.450480
    126          1           0       32.197787   -2.222731    0.434501
    127          1           0       24.150319   -1.554982   -1.575247
    128          1           0       23.614371    1.196498   -0.167998
    129          1           0       22.725256    1.691489   -1.981961
    130          1           0       23.060190    0.035019   -2.683787
    131          1           0       24.149383    1.465031   -2.998899
    132          1           0       22.949484   -2.335279    0.277579
    133          1           0       22.326924   -0.840264    0.260567
    134          1           0       24.408027   -0.144128    1.712508
    135          1           0       24.194998   -1.822025    2.143801
    136          1           0       26.326723    6.461131   -0.063634
    137          1           0       25.263909    5.201541   -0.833846
    138          1           0       26.476006    6.080740   -1.793701
    139          1           0       31.083501    6.232717    1.115790
    140          1           0       30.858191    7.524201    0.014695
    141          1           0       31.540054    6.116286   -0.684602
    142          1           0       32.950717    2.362402    1.791749
    143          1           0       33.627531   -0.261361    0.710308
    144          1           0       34.074230    1.250113   -0.640552
    145          1           0       34.234070    3.005911    0.011537
    146          1           0       32.988090    2.540155   -1.048513
    147          1           0       31.749155   -0.569279    3.034721
    148          1           0       32.902630    0.717566    3.293104
    149          1           0       34.355992   -0.855260    4.042405
    150          1           0       34.423013   -1.539160    2.408762
    151          1           0       33.290406   -2.119213    3.581734
    152          1           0       30.426744   -5.509109    0.085661
    153          1           0       31.772035   -4.335655   -0.510342
    154          1           0       30.581411   -5.147883   -1.600898
    155          1           0       25.324865   -3.700553   -1.563797
    156          1           0       23.258522   -4.190065    2.125577
    157          1           0       23.335091   -5.897988    1.594165
    158          1           0       22.111283   -4.926671    0.848946
 ---------------------------------------------------------------------

 SCF Done:  E(RwB97XD) =  -4070.60323980     A.U. after   19 cycles

 Excitation energies and oscillator strengths:

 Excited State   1:      Singlet-A      1.5874 eV  781.05 nm  f=0.3824  <S**2>=0.000
     309 -> 316       -0.17575
     312 -> 313        0.68651
     309 <- 316       -0.11663
 This state for optimization and/or second-order correction.
 Total Energy, E(TD-HF/TD-DFT) =  -4070.54490395
 Copying the excited state density for this state as the 1-particle RhoCI density.

 Excited State   2:      Singlet-A      1.6067 eV  771.68 nm  f=0.3802  <S**2>=0.000
     310 -> 315        0.17856
     311 -> 314        0.68542
     310 <- 315        0.11727

 Excited State   3:      Singlet-A      2.1692 eV  571.56 nm  f=0.1098  <S**2>=0.000
     309 -> 313        0.63603
     312 -> 316        0.29411

 Excited State   4:      Singlet-A      2.2111 eV  560.74 nm  f=0.0984  <S**2>=0.000
     310 -> 314        0.62752
     311 -> 315       -0.31206

 Excited State   5:      Singlet-A      3.3098 eV  374.60 nm  f=0.0147  <S**2>=0.000
     305 -> 313        0.10121
     308 -> 313        0.67090
     312 -> 316       -0.11072

 The electronic state is 1-A.
 Alpha  occ. eigenvalues --  -46.94927 -46.93512 -19.30376 -19.29832 -19.25325
 Alpha  occ. eigenvalues --  -19.24286 -19.24173 -19.23698 -19.23556 -19.23243
 Alpha  occ. eigenvalues --  -14.47462 -14.46985 -14.46481 -14.46301 -14.44169
 Alpha  occ. eigenvalues --  -14.44117 -14.44102 -14.43410 -10.43071 -10.42422
 Alpha  occ. eigenvalues --  -10.39224 -10.39178 -10.38998 -10.38555 -10.35819
 Alpha  occ. eigenvalues --  -10.35384 -10.35235 -10.35190 -10.34964 -10.34954
 Alpha  occ. eigenvalues --  -10.34827 -10.34720 -10.34647 -10.34592 -10.34521
 Alpha  occ. eigenvalues --  -10.34500 -10.34125 -10.33986 -10.33902 -10.33335
 Alpha  occ. eigenvalues --  -10.33315 -10.32967 -10.32896 -10.32855 -10.32840
 Alpha  occ. eigenvalues --  -10.32553 -10.32544 -10.32447 -10.32309 -10.32281
 Alpha  occ. eigenvalues --  -10.32192 -10.32169 -10.32103 -10.32097 -10.31918
 Alpha  occ. eigenvalues --  -10.31912 -10.31872 -10.31868 -10.31814 -10.31763
 Alpha  occ. eigenvalues --  -10.31603 -10.31594 -10.31545 -10.31514 -10.31146
 Alpha  occ. eigenvalues --  -10.31060 -10.30848 -10.30683 -10.30532 -10.30483
 Alpha  occ. eigenvalues --  -10.30413 -10.30357 -10.30293 -10.29974 -10.29947
 Alpha  occ. eigenvalues --  -10.29714 -10.29634 -10.29501 -10.29447 -10.29426
 Alpha  occ. eigenvalues --  -10.29356 -10.29330 -10.29285 -10.29174 -10.29148
 Alpha  occ. eigenvalues --  -10.28920  -3.20997  -3.19762  -1.94550  -1.94127
 Alpha  occ. eigenvalues --   -1.93986  -1.93351  -1.92876  -1.92783  -1.19481
 Alpha  occ. eigenvalues --   -1.19397  -1.12602  -1.12390  -1.12183  -1.11148
 Alpha  occ. eigenvalues --   -1.09627  -1.09456  -1.06582  -1.06523  -1.06024
 Alpha  occ. eigenvalues --   -1.05607  -1.05320  -1.04731  -1.04641  -1.03427
 Alpha  occ. eigenvalues --   -0.95362  -0.95149  -0.91734  -0.91586  -0.91303
 Alpha  occ. eigenvalues --   -0.90731  -0.90449  -0.90289  -0.89599  -0.89441
 Alpha  occ. eigenvalues --   -0.89174  -0.88364  -0.88275  -0.87746  -0.86637
 Alpha  occ. eigenvalues --   -0.86240  -0.86043  -0.85726  -0.84621  -0.84383
 Alpha  occ. eigenvalues --   -0.83593  -0.83591  -0.83007  -0.82808  -0.82469
 Alpha  occ. eigenvalues --   -0.82457  -0.80312  -0.79875  -0.79712  -0.79431
 Alpha  occ. eigenvalues --   -0.79276  -0.78769  -0.78467  -0.77969  -0.77160
 Alpha  occ. eigenvalues --   -0.77085  -0.74882  -0.74682  -0.73819  -0.73645
 Alpha  occ. eigenvalues --   -0.71547  -0.71080  -0.70801  -0.70594  -0.70563
 Alpha  occ. eigenvalues --   -0.70147  -0.69081  -0.68684  -0.67791  -0.67781
 Alpha  occ. eigenvalues --   -0.67307  -0.67065  -0.66779  -0.66511  -0.66358
 Alpha  occ. eigenvalues --   -0.66087  -0.64332  -0.64087  -0.62336  -0.61967
 Alpha  occ. eigenvalues --   -0.61891  -0.61416  -0.60997  -0.60941  -0.60915
 Alpha  occ. eigenvalues --   -0.60369  -0.60096  -0.59969  -0.59724  -0.59388
 Alpha  occ. eigenvalues --   -0.58527  -0.58082  -0.58007  -0.57361  -0.57352
 Alpha  occ. eigenvalues --   -0.57160  -0.57044  -0.56991  -0.56551  -0.56014
 Alpha  occ. eigenvalues --   -0.55862  -0.55286  -0.54982  -0.54961  -0.54813
 Alpha  occ. eigenvalues --   -0.54795  -0.54460  -0.54368  -0.54290  -0.54200
 Alpha  occ. eigenvalues --   -0.54110  -0.54009  -0.53909  -0.53521  -0.53331
 Alpha  occ. eigenvalues --   -0.53250  -0.53088  -0.53067  -0.52862  -0.52241
 Alpha  occ. eigenvalues --   -0.52090  -0.52019  -0.51931  -0.51603  -0.51541
 Alpha  occ. eigenvalues --   -0.51327  -0.51203  -0.50949  -0.50836  -0.50800
 Alpha  occ. eigenvalues --   -0.50679  -0.50541  -0.50313  -0.50274  -0.50138
 Alpha  occ. eigenvalues --   -0.49906  -0.49757  -0.49454  -0.49259  -0.49131
 Alpha  occ. eigenvalues --   -0.49120  -0.49034  -0.48814  -0.48727  -0.48637
 Alpha  occ. eigenvalues --   -0.48546  -0.48303  -0.48300  -0.47938  -0.47845
 Alpha  occ. eigenvalues --   -0.47814  -0.47414  -0.47158  -0.47150  -0.46854
 Alpha  occ. eigenvalues --   -0.46714  -0.46592  -0.46480  -0.46286  -0.46013
 Alpha  occ. eigenvalues --   -0.46000  -0.45831  -0.45826  -0.45525  -0.45468
 Alpha  occ. eigenvalues --   -0.45211  -0.45140  -0.45125  -0.44687  -0.44511
 Alpha  occ. eigenvalues --   -0.44370  -0.44370  -0.44257  -0.44102  -0.44071
 Alpha  occ. eigenvalues --   -0.43985  -0.43842  -0.43780  -0.43334  -0.43047
 Alpha  occ. eigenvalues --   -0.42957  -0.42839  -0.42663  -0.42505  -0.42329
 Alpha  occ. eigenvalues --   -0.42285  -0.42282  -0.41927  -0.41753  -0.41022
 Alpha  occ. eigenvalues --   -0.40398  -0.40210  -0.39888  -0.39799  -0.39638
 Alpha  occ. eigenvalues --   -0.39303  -0.39175  -0.39065  -0.38989  -0.38647
 Alpha  occ. eigenvalues --   -0.38464  -0.37699  -0.37037  -0.36624  -0.36211
 Alpha  occ. eigenvalues --   -0.36205  -0.35435  -0.35287  -0.33687  -0.33568
 Alpha  occ. eigenvalues --   -0.33109  -0.32820  -0.32646  -0.32456  -0.32139
 Alpha  occ. eigenvalues --   -0.32062  -0.31814  -0.31760  -0.26236  -0.26217
 Alpha  occ. eigenvalues --   -0.22841  -0.22840
 Alpha virt. eigenvalues --   -0.07327  -0.07110   0.00138   0.00292   0.02164
 Alpha virt. eigenvalues --    0.02309   0.04333   0.04503   0.04663   0.06120
 Alpha virt. eigenvalues --    0.07433   0.07590   0.07785   0.07845   0.08024

 Mulliken charges:
               1
     1  Mg   0.985644
     2  C    0.012938
     3  C   -0.095348
     4  C   -0.062410
     5  C   -0.128211
     6  N   -0.378375
     7  C   -0.008604
     8  C   -0.043269
     9  C   -0.122001
    10  C    0.058060
    11  C    0.021185
    12  C    0.005266
    13  C   -0.092450
    14  H    0.043454
    15  N   -0.389616
    16  C    0.163891
    17  C   -0.155445
    18  C   -0.073765
    19  C    0.100273
    20  C    0.064866
    21  C    0.052929
    22  O   -0.274730
    23  C   -0.022218
    24  N   -0.391989
    25  C    0.057746
    26  C   -0.092117
    27  C   -0.027246
    28  C    0.109081
    29  C    0.008966
    30  C   -0.008522
    31  C   -0.062943
    32  N   -0.527783
    33  C    0.189861
    34  C   -0.191418
    35  C   -0.055021
    36  C    0.141593
    37  C    0.072783
    38  C    0.153175
    39  O   -0.183125
    40  C   -0.107209
    41  C    0.224353
    42  O   -0.229884
    43  O   -0.358800
    44  C    0.140860
    45  H   -0.003545
    46  H    0.017265
    47  H   -0.016862
    48  H    0.024526
    49  H    0.035441
    50  H    0.042326
    51  H    0.048428
    52  H    0.037243
    53  H    0.035718
    54  H    0.041482
    55  H    0.044242
    56  H    0.060623
    57  H    0.073835
    58  H    0.034855
    59  H    0.031899
    60  H    0.066673
    61  H    0.059209
    62  H    0.050460
    63  H    0.056047
    64  H    0.035267
    65  H    0.060725
    66  H    0.037241
    67  H    0.041388
    68  H    0.033226
    69  H    0.028298
    70  H    0.043815
    71  H    0.022317
    72  H    0.037623
    73  H    0.026944
    74  H    0.061476
    75  H    0.068393
    76  H    0.069225
    77  H    0.070812
    78  H    0.058569
    79  H    0.040393
    80  Mg   0.971022
    81  C   -0.073426
    82  C   -0.088819
    83  C   -0.070219
    84  C   -0.087690
    85  N   -0.366471
    86  C    0.021319
    87  C   -0.041293
    88  C   -0.131920
    89  C    0.059995
    90  C    0.036708
    91  C   -0.026158
    92  C   -0.106293
    93  H    0.042103
    94  N   -0.438542
    95  C    0.155197
    96  C   -0.199127
    97  C   -0.050503
    98  C    0.165394
    99  C    0.110831
   100  C    0.017526
   101  O   -0.237374
   102  C   -0.009356
   103  N   -0.356981
   104  C    0.045683
   105  C   -0.080015
   106  C   -0.111648
   107  C    0.037673
   108  C    0.042914
   109  C    0.014752
   110  C   -0.045866
   111  N   -0.434440
   112  C    0.147857
   113  C   -0.205222
   114  C   -0.044286
   115  C    0.163067
   116  C    0.102122
   117  C    0.124242
   118  O   -0.206568
   119  C   -0.072900
   120  C    0.257934
   121  O   -0.210084
   122  O   -0.374978
   123  C    0.128937
   124  H   -0.001770
   125  H   -0.030313
   126  H    0.001582
   127  H    0.040547
   128  H    0.052544
   129  H    0.037932
   130  H    0.045552
   131  H    0.046130
   132  H    0.018127
   133  H    0.023465
   134  H    0.051733
   135  H    0.057276
   136  H    0.065727
   137  H    0.021452
   138  H    0.056243
   139  H    0.066067
   140  H    0.044658
   141  H    0.054420
   142  H    0.033924
   143  H    0.029519
   144  H    0.040561
   145  H    0.046097
   146  H    0.027739
   147  H    0.057248
   148  H    0.024511
   149  H    0.038662
   150  H    0.024899
   151  H    0.035861
   152  H    0.069388
   153  H    0.037723
   154  H    0.057393
   155  H    0.064950
   156  H    0.073170
   157  H    0.055943
   158  H    0.055947
 Sum of Mulliken charges =  -0.00000

 Dipole moment (field-independent basis, Debye):
    X=             -1.2902    Y=              2.8998    Z=             -4.6217  Tot=              5.6066
 Quadrupole moment (field-independent basis, Debye-Ang):
   XX=           -226.3831   YY=           -569.8257   ZZ=           -479.1729
   XY=             -5.0074   XZ=             65.1098   YZ=            -22.1654

 Normal termination of Gaussian 16 at Sun Sep 19 21:44:22 2021.
