 Gaussian 16, Revision A.03,
 Gaussian 16:  ES64L-G16RevA.03 25-Dec-2016

 --------------------------------
 #p wB97XD/Def2SVP td=(nstates=5)
 --------------------------------

 --------------------------------
 TDDFT excited states in gaussian
 --------------------------------
 Symbolic Z-matrix:
 Charge =  0 Multiplicity = 1

                         Standard orientation:
 ---------------------------------------------------------------------
 Center     Atomic      Atomic             Coordinates (Angstroms)
 Number     Number       Type             X           Y           Z
 ---------------------------------------------------------------------
      1         12           0      -16.328849    0.610343    0.523639
      2          6           0      -15.185716   -2.069040   -1.561782
      3          6           0      -17.660027   -1.892780    2.622664
      4          6           0      -18.041094    2.879594    2.143170
      5          6           0      -15.274458    2.829356   -1.827257
      6          7           0      -16.348071   -1.703323    0.522789
      7          6           0      -15.717278   -2.487120   -0.384437
      8          6           0      -15.770661   -3.927273    0.098209
      9          6           0      -16.528004   -3.951080    1.455790
     10          6           0      -16.844098   -2.447898    1.577074
     11          6           0      -17.826158   -4.939392    1.464546
     12          6           0      -14.328730   -4.569516    0.277616
     13          6           0      -14.116430   -5.955597   -0.332017
     14          1           0      -15.294511   -7.008881   -0.391695
     15          7           0      -17.721184    0.498145    2.141829
     16          6           0      -18.075002   -0.566135    2.830658
     17          6           0      -19.007611   -0.136612    3.834251
     18          6           0      -19.067273    1.279783    3.863990
     19          6           0      -18.303908    1.600594    2.686498
     20          6           0      -19.562123   -1.077447    4.902665
     21          6           0      -19.638123    2.299721    4.836740
     22          8           0      -19.632184    3.497651    4.620068
     23          6           0      -20.166532    1.752258    6.134049
     24          7           0      -16.891986    2.505467   -0.013267
     25          6           0      -17.454439    3.332211    0.961021
     26          6           0      -17.311518    4.843498    0.633784
     27          6           0      -16.280090    4.746051   -0.552814
     28          6           0      -16.121953    3.251134   -0.830194
     29          6           0      -18.675115    5.460411    0.290300
     30          6           0      -14.829362    5.319083   -0.189081
     31          6           0      -14.422183    6.637220   -0.757171
     32          7           0      -15.336706    0.465788   -1.227957
     33          6           0      -15.001158    1.477166   -2.101950
     34          6           0      -14.421345    0.980659   -3.347162
     35          6           0      -14.464890   -0.449926   -3.183730
     36          6           0      -15.131066   -0.699943   -1.960790
     37          6           0      -13.764706    1.841333   -4.365004
     38          6           0      -14.056229   -1.725802   -3.750894
     39          8           0      -13.425830   -1.910120   -4.807989
     40          6           0      -14.547253   -2.881357   -2.706389
     41          6           0      -15.491129   -3.689100   -3.462561
     42          8           0      -16.477315   -3.240860   -4.005205
     43          8           0      -15.137213   -4.979706   -3.469533
     44          6           0      -15.908171   -6.015591   -4.226051
     45          1           0      -18.029082   -2.622936    3.345818
     46          1           0      -18.208436    3.718206    2.823236
     47          1           0      -14.878495    3.582281   -2.511532
     48          1           0      -16.355462   -4.486265   -0.632313
     49          1           0      -15.919341   -4.374039    2.255179
     50          1           0      -17.734802   -5.706818    0.695843
     51          1           0      -18.677811   -4.279462    1.297355
     52          1           0      -17.929723   -5.400048    2.446842
     53          1           0      -13.961323   -4.601952    1.302402
     54          1           0      -13.594440   -3.946010   -0.232299
     55          1           0      -13.281299   -6.476751    0.136493
     56          1           0      -13.763359   -5.721505   -1.336335
     57          1           0      -19.024396   -1.043367    5.850328
     58          1           0      -19.685178   -2.091438    4.520969
     59          1           0      -20.587629   -0.755340    5.082035
     60          1           0      -19.565108    0.962075    6.584504
     61          1           0      -21.177036    1.349302    6.082493
     62          1           0      -20.049617    2.509939    6.908916
     63          1           0      -16.905387    5.328837    1.520835
     64          1           0      -16.688348    5.304087   -1.395544
     65          1           0      -19.528768    4.817159    0.503404
     66          1           0      -18.756508    5.689873   -0.771581
     67          1           0      -18.793304    6.395542    0.838692
     68          1           0      -13.998214    4.672623   -0.470774
     69          1           0      -14.661424    5.382145    0.885425
     70          1           0      -14.273460    7.361893    0.042330
     71          1           0      -15.273184    6.905546   -1.383465
     72          1           0      -13.489655    6.541671   -1.313291
     73          1           0      -12.918621    1.334240   -4.827546
     74          1           0      -13.545559    2.786314   -3.868270
     75          1           0      -14.511059    2.033017   -5.137135
     76          1           0      -13.719635   -3.510532   -2.381618
     77          1           0      -16.064137   -5.673770   -5.249417
     78          1           0      -16.887055   -6.212868   -3.788361
     79          1           0      -15.468904   -7.011567   -4.176899
     80         12           0       15.870503    0.808124    0.108626
     81          6           0       17.871337   -1.930415    1.323474
     82          6           0       13.561767   -1.378315   -0.913634
     83          6           0       14.558388    3.282802   -1.731231
     84          6           0       18.605698    2.884516    0.823864
     85          7           0       15.779301   -1.364739    0.155077
     86          6           0       16.585949   -2.278046    0.855133
     87          6           0       15.920227   -3.705648    0.912768
     88          6           0       14.588718   -3.486420    0.132648
     89          6           0       14.605707   -1.968206   -0.188495
     90          6           0       14.364244   -4.321840   -1.102133
     91          6           0       15.761206   -4.263493    2.426953
     92          6           0       16.342670   -5.661141    2.673185
     93          1           0       15.292084   -6.706622    3.202898
     94          7           0       14.188830    0.965958   -1.045912
     95          6           0       13.357154   -0.029665   -1.368768
     96          6           0       12.280684    0.430826   -2.247551
     97          6           0       12.647355    1.786841   -2.553681
     98          6           0       13.858885    2.077503   -1.779864
     99          6           0       11.167418   -0.423519   -2.679944
    100          6           0       11.904606    2.669852   -3.605078
    101          8           0       12.201650    3.837666   -3.793544
    102          6           0       10.768046    2.159977   -4.432502
    103          7           0       16.488488    2.732071   -0.352869
    104          6           0       15.683972    3.625383   -1.052104
    105          6           0       16.330605    5.048902   -1.092594
    106          6           0       17.435883    4.960218    0.024915
    107          6           0       17.495027    3.447233    0.234052
    108          6           0       16.771517    5.611318   -2.483169
    109          6           0       17.071031    5.700359    1.340875
    110          6           0       18.152558    6.457051    2.069870
    111          7           0       17.862722    0.559184    0.859603
    112          6           0       18.834195    1.492396    1.086143
    113          6           0       19.996774    0.817899    1.812979
    114          6           0       19.638579   -0.499369    1.968634
    115          6           0       18.366516   -0.625885    1.312039
    116          6           0       21.197952    1.583290    2.319726
    117          6           0       20.020462   -1.812223    2.457590
    118          8           0       21.092714   -2.053216    3.050632
    119          6           0       18.876874   -2.880931    1.957592
    120          6           0       19.354900   -3.889834    0.934288
    121          8           0       19.908457   -3.517950   -0.119339
    122          8           0       19.265785   -5.203663    1.396158
    123          6           0       20.092199   -6.120294    0.619379
    124          1           0       12.718420   -2.019611   -1.177345
    125          1           0       14.028617    4.046722   -2.303555
    126          1           0       19.361678    3.613173    1.125430
    127          1           0       16.645886   -4.322514    0.383040
    128          1           0       13.816754   -3.883197    0.793430
    129          1           0       15.206698   -4.971268   -1.340451
    130          1           0       14.405109   -3.535426   -1.855019
    131          1           0       13.476612   -4.952253   -1.041324
    132          1           0       14.682770   -4.232747    2.579781
    133          1           0       16.157727   -3.522153    3.120190
    134          1           0       17.196688   -5.529176    3.337516
    135          1           0       16.717940   -6.062904    1.731115
    136          1           0       10.965198   -0.563869   -3.741327
    137          1           0       10.276014    0.152433   -2.434010
    138          1           0       11.023272   -1.335954   -2.100923
    139          1           0        9.997780    1.882210   -3.712033
    140          1           0       11.115171    1.238584   -4.900930
    141          1           0       10.521472    2.966924   -5.121394
    142          1           0       15.534071    5.700906   -0.734011
    143          1           0       18.425519    5.242358   -0.333644
    144          1           0       16.389873    4.881913   -3.197243
    145          1           0       17.840719    5.802008   -2.571085
    146          1           0       16.206077    6.500601   -2.764395
    147          1           0       16.744538    4.829337    1.908725
    148          1           0       16.212984    6.368854    1.267464
    149          1           0       17.691563    7.393580    2.383930
    150          1           0       18.998423    6.716424    1.432391
    151          1           0       18.325235    5.909244    2.996585
    152          1           0       21.061413    2.624052    2.026568
    153          1           0       22.075516    1.232368    1.777198
    154          1           0       21.318776    1.408031    3.388547
    155          1           0       18.448393   -3.358886    2.838541
    156          1           0       20.958244   -6.523846    1.142149
    157          1           0       20.446033   -5.709164   -0.326177
    158          1           0       19.447263   -6.958714    0.357555
 ---------------------------------------------------------------------

 SCF Done:  E(RwB97XD) =  -4070.59136505     A.U. after   19 cycles

 Excitation energies and oscillator strengths:

 Excited State   1:      Singlet-A      1.6234 eV  763.74 nm  f=0.4046  <S**2>=0.000
     310 -> 316        0.17813
     311 -> 313        0.68181
     310 <- 316        0.11594
 This state for optimization and/or second-order correction.
 Total Energy, E(TD-HF/TD-DFT) =  -4070.53170662
 Copying the excited state density for this state as the 1-particle RhoCI density.

 Excited State   2:      Singlet-A      1.6413 eV  755.41 nm  f=0.4139  <S**2>=0.000
     309 -> 315        0.17796
     312 -> 314        0.68312
     309 <- 315        0.11628

 Excited State   3:      Singlet-A      2.1424 eV  578.72 nm  f=0.1272  <S**2>=0.000
     310 -> 313        0.64799
     311 -> 316       -0.26644

 Excited State   4:      Singlet-A      2.2310 eV  555.73 nm  f=0.0894  <S**2>=0.000
     309 -> 314        0.62831
     312 -> 315       -0.31488

 Excited State   5:      Singlet-A      3.3489 eV  370.22 nm  f=0.0016  <S**2>=0.000
     306 -> 313       -0.11051
     308 -> 313        0.67188

 The electronic state is 1-A.
 Alpha  occ. eigenvalues --  -46.95011 -46.94749 -19.31946 -19.30505 -19.25832
 Alpha  occ. eigenvalues --  -19.25078 -19.24589 -19.24152 -19.23534 -19.23491
 Alpha  occ. eigenvalues --  -14.47196 -14.46528 -14.46348 -14.46260 -14.44318
 Alpha  occ. eigenvalues --  -14.44039 -14.43941 -14.43699 -10.44731 -10.42351
 Alpha  occ. eigenvalues --  -10.40621 -10.39788 -10.39577 -10.38863 -10.36321
 Alpha  occ. eigenvalues --  -10.35678 -10.35495 -10.35415 -10.34971 -10.34831
 Alpha  occ. eigenvalues --  -10.34746 -10.34544 -10.34368 -10.34312 -10.34125
 Alpha  occ. eigenvalues --  -10.34051 -10.33777 -10.33716 -10.33649 -10.33490
 Alpha  occ. eigenvalues --  -10.33248 -10.33196 -10.33070 -10.33062 -10.33031
 Alpha  occ. eigenvalues --  -10.32790 -10.32672 -10.32656 -10.32374 -10.32348
 Alpha  occ. eigenvalues --  -10.32305 -10.32203 -10.32189 -10.32031 -10.31895
 Alpha  occ. eigenvalues --  -10.31876 -10.31750 -10.31720 -10.31511 -10.31426
 Alpha  occ. eigenvalues --  -10.31301 -10.31278 -10.31193 -10.31020 -10.31014
 Alpha  occ. eigenvalues --  -10.31002 -10.30696 -10.30646 -10.30560 -10.30349
 Alpha  occ. eigenvalues --  -10.30297 -10.30060 -10.29997 -10.29990 -10.29962
 Alpha  occ. eigenvalues --  -10.29850 -10.29831 -10.29781 -10.29687 -10.29661
 Alpha  occ. eigenvalues --  -10.29370 -10.29349 -10.29343 -10.29250 -10.29213
 Alpha  occ. eigenvalues --  -10.28849  -3.21076  -3.20824  -1.94630  -1.94396
 Alpha  occ. eigenvalues --   -1.94207  -1.94053  -1.93934  -1.93823  -1.18766
 Alpha  occ. eigenvalues --   -1.18542  -1.13096  -1.12291  -1.11354  -1.10738
 Alpha  occ. eigenvalues --   -1.10183  -1.09599  -1.06725  -1.05936  -1.05561
 Alpha  occ. eigenvalues --   -1.05340  -1.05184  -1.04646  -1.03969  -1.03922
 Alpha  occ. eigenvalues --   -0.94648  -0.94182  -0.91005  -0.90617  -0.90548
 Alpha  occ. eigenvalues --   -0.90195  -0.90011  -0.89931  -0.89297  -0.89145
 Alpha  occ. eigenvalues --   -0.89097  -0.88993  -0.88404  -0.88088  -0.86205
 Alpha  occ. eigenvalues --   -0.86193  -0.86051  -0.85567  -0.84630  -0.84602
 Alpha  occ. eigenvalues --   -0.83839  -0.83787  -0.83269  -0.83175  -0.82700
 Alpha  occ. eigenvalues --   -0.82205  -0.80391  -0.80266  -0.79645  -0.79547
 Alpha  occ. eigenvalues --   -0.78887  -0.78842  -0.78223  -0.78155  -0.76828
 Alpha  occ. eigenvalues --   -0.76661  -0.74523  -0.74468  -0.73440  -0.72960
 Alpha  occ. eigenvalues --   -0.71024  -0.70788  -0.70345  -0.69850  -0.69793
 Alpha  occ. eigenvalues --   -0.69650  -0.68969  -0.68688  -0.67514  -0.67274
 Alpha  occ. eigenvalues --   -0.67141  -0.66952  -0.66910  -0.66670  -0.66533
 Alpha  occ. eigenvalues --   -0.66372  -0.64606  -0.64453  -0.62533  -0.62262
 Alpha  occ. eigenvalues --   -0.61762  -0.61217  -0.60900  -0.60864  -0.60513
 Alpha  occ. eigenvalues --   -0.60507  -0.60354  -0.60074  -0.59504  -0.59328
 Alpha  occ. eigenvalues --   -0.58260  -0.58129  -0.57709  -0.57419  -0.57188
 Alpha  occ. eigenvalues --   -0.57064  -0.56865  -0.56329  -0.55717  -0.55486
 Alpha  occ. eigenvalues --   -0.55456  -0.55297  -0.55126  -0.54980  -0.54892
 Alpha  occ. eigenvalues --   -0.54584  -0.54550  -0.54364  -0.54293  -0.54046
 Alpha  occ. eigenvalues --   -0.53770  -0.53557  -0.53458  -0.53253  -0.53193
 Alpha  occ. eigenvalues --   -0.53152  -0.53075  -0.52785  -0.52579  -0.52508
 Alpha  occ. eigenvalues --   -0.52192  -0.52038  -0.51967  -0.51572  -0.51350
 Alpha  occ. eigenvalues --   -0.51213  -0.51078  -0.51047  -0.50744  -0.50736
 Alpha  occ. eigenvalues --   -0.50579  -0.50530  -0.50367  -0.50271  -0.50089
 Alpha  occ. eigenvalues --   -0.50073  -0.49878  -0.49713  -0.49396  -0.49194
 Alpha  occ. eigenvalues --   -0.48937  -0.48697  -0.48694  -0.48573  -0.48437
 Alpha  occ. eigenvalues --   -0.48203  -0.48090  -0.47967  -0.47901  -0.47864
 Alpha  occ. eigenvalues --   -0.47610  -0.47332  -0.47266  -0.47077  -0.46514
 Alpha  occ. eigenvalues --   -0.46500  -0.46331  -0.46230  -0.46085  -0.45958
 Alpha  occ. eigenvalues --   -0.45794  -0.45727  -0.45581  -0.45565  -0.45304
 Alpha  occ. eigenvalues --   -0.45162  -0.45012  -0.44965  -0.44828  -0.44730
 Alpha  occ. eigenvalues --   -0.44641  -0.44610  -0.44481  -0.43811  -0.43731
 Alpha  occ. eigenvalues --   -0.43644  -0.43524  -0.43380  -0.43237  -0.43044
 Alpha  occ. eigenvalues --   -0.42950  -0.42696  -0.42474  -0.42468  -0.42225
 Alpha  occ. eigenvalues --   -0.42103  -0.41651  -0.41438  -0.41307  -0.41038
 Alpha  occ. eigenvalues --   -0.40323  -0.40216  -0.39894  -0.39756  -0.39499
 Alpha  occ. eigenvalues --   -0.39442  -0.39096  -0.38576  -0.38512  -0.38268
 Alpha  occ. eigenvalues --   -0.38164  -0.38047  -0.37096  -0.36490  -0.36445
 Alpha  occ. eigenvalues --   -0.35744  -0.35275  -0.35171  -0.33733  -0.33718
 Alpha  occ. eigenvalues --   -0.33521  -0.33441  -0.32826  -0.32617  -0.32583
 Alpha  occ. eigenvalues --   -0.32308  -0.31946  -0.31623  -0.26107  -0.25792
 Alpha  occ. eigenvalues --   -0.22805  -0.22588
 Alpha virt. eigenvalues --   -0.07120  -0.06775   0.00584   0.00760   0.01966
 Alpha virt. eigenvalues --    0.02173   0.04114   0.04278   0.04874   0.04892
 Alpha virt. eigenvalues --    0.05103   0.06986   0.07322   0.07825   0.08002

 Mulliken charges:
               1
     1  Mg   0.966378
     2  C   -0.049132
     3  C   -0.089631
     4  C   -0.059770
     5  C   -0.106203
     6  N   -0.317418
     7  C    0.011357
     8  C   -0.040459
     9  C   -0.105337
    10  C    0.050125
    11  C   -0.005196
    12  C   -0.008530
    13  C   -0.109754
    14  H    0.017198
    15  N   -0.388112
    16  C    0.163956
    17  C   -0.188043
    18  C   -0.059173
    19  C    0.115196
    20  C    0.051649
    21  C    0.080697
    22  O   -0.219401
    23  C   -0.036778
    24  N   -0.403591
    25  C    0.019183
    26  C   -0.074902
    27  C   -0.053934
    28  C    0.103453
    29  C    0.032736
    30  C   -0.056545
    31  C   -0.031320
    32  N   -0.481495
    33  C    0.161625
    34  C   -0.187095
    35  C   -0.019287
    36  C    0.159869
    37  C    0.089895
    38  C    0.119872
    39  O   -0.226534
    40  C   -0.061801
    41  C    0.258016
    42  O   -0.245631
    43  O   -0.357606
    44  C    0.146420
    45  H   -0.009395
    46  H    0.024586
    47  H    0.001026
    48  H    0.044145
    49  H    0.046769
    50  H    0.047924
    51  H    0.045228
    52  H    0.037815
    53  H    0.030131
    54  H    0.028251
    55  H    0.044280
    56  H    0.052355
    57  H    0.066466
    58  H    0.038144
    59  H    0.031253
    60  H    0.036011
    61  H    0.074683
    62  H    0.049276
    63  H    0.043699
    64  H    0.035705
    65  H    0.053061
    66  H    0.026373
    67  H    0.041805
    68  H    0.029312
    69  H    0.020468
    70  H    0.036589
    71  H    0.025329
    72  H    0.038899
    73  H    0.066567
    74  H    0.037261
    75  H    0.055650
    76  H    0.057851
    77  H    0.070445
    78  H    0.046871
    79  H    0.060219
    80  Mg   0.975957
    81  C   -0.099592
    82  C   -0.080722
    83  C   -0.088210
    84  C   -0.101415
    85  N   -0.370374
    86  C   -0.011501
    87  C   -0.072252
    88  C   -0.107075
    89  C    0.104564
    90  C    0.024219
    91  C    0.006644
    92  C   -0.109018
    93  H    0.027690
    94  N   -0.454557
    95  C    0.114146
    96  C   -0.149557
    97  C   -0.076290
    98  C    0.118036
    99  C    0.069347
   100  C    0.031542
   101  O   -0.238321
   102  C    0.011796
   103  N   -0.401037
   104  C    0.093553
   105  C   -0.058231
   106  C   -0.103705
   107  C    0.063644
   108  C    0.035218
   109  C   -0.016655
   110  C   -0.026192
   111  N   -0.388598
   112  C    0.149236
   113  C   -0.228807
   114  C    0.015668
   115  C    0.154144
   116  C    0.098496
   117  C    0.146799
   118  O   -0.221218
   119  C   -0.037439
   120  C    0.292867
   121  O   -0.256291
   122  O   -0.367193
   123  C    0.121092
   124  H   -0.014017
   125  H    0.016148
   126  H   -0.003768
   127  H    0.041650
   128  H    0.034140
   129  H    0.028916
   130  H    0.041618
   131  H    0.042989
   132  H    0.031956
   133  H    0.037943
   134  H    0.064402
   135  H    0.054584
   136  H    0.046904
   137  H    0.028311
   138  H    0.042597
   139  H    0.049411
   140  H    0.052133
   141  H    0.067801
   142  H    0.030966
   143  H    0.029200
   144  H    0.038604
   145  H    0.045348
   146  H    0.035514
   147  H    0.029321
   148  H    0.034931
   149  H    0.028914
   150  H    0.041868
   151  H    0.043787
   152  H    0.023034
   153  H    0.059035
   154  H    0.067057
   155  H    0.058145
   156  H    0.063440
   157  H    0.072085
   158  H    0.044623
 Sum of Mulliken charges =  -0.00000

 Dipole moment (field-independent basis, Debye):
    X=             -2.7547    Y=             -2.3611    Z=              5.5823  Tot=              6.6578
 Quadrupole moment (field-independent basis, Debye-Ang):
   XX=           -655.1496   YY=           -454.4357   ZZ=           -527.9799
   XY=             41.8203   XZ=            -62.5824   YZ=             -1.0957

 Normal termination of Gaussian 16 at Sun Sep 19 07:00:45 2021.
