 Gaussian 16, Revision A.03,
 Gaussian 16:  ES64L-G16RevA.03 25-Dec-2016

 --------------------------------
 #p wB97XD/Def2SVP td=(nstates=5)
 --------------------------------

 --------------------------------
 TDDFT excited states in gaussian
 --------------------------------
 Symbolic Z-matrix:
 Charge =  0 Multiplicity = 1

                         Standard orientation:
 ---------------------------------------------------------------------
 Center     Atomic      Atomic             Coordinates (Angstroms)
 Number     Number       Type             X           Y           Z
 ---------------------------------------------------------------------
      1         12           0      -11.282705   -0.427895    0.234966
      2          6           0       -8.387854    1.381878    0.573107
      3          6           0      -11.455340    0.579232   -3.038155
      4          6           0      -14.269631   -2.159226   -0.095055
      5          6           0      -11.296618   -1.048998    3.645890
      6          7           0      -10.079901    0.899495   -1.116427
      7          6           0       -8.886461    1.439334   -0.729516
      8          6           0       -8.256917    2.152957   -1.825960
      9          6           0       -9.268080    2.126547   -2.961245
     10          6           0      -10.387060    1.166693   -2.362639
     11          6           0       -9.858358    3.484095   -3.477554
     12          6           0       -6.868110    1.531985   -2.200315
     13          6           0       -5.763949    2.516394   -2.719678
     14          1           0       -6.240620    3.789380   -3.446264
     15          7           0      -12.597035   -0.822212   -1.406990
     16          6           0      -12.456525   -0.308490   -2.684787
     17          6           0      -13.574835   -0.792535   -3.519391
     18          6           0      -14.421099   -1.616541   -2.658782
     19          6           0      -13.774504   -1.586111   -1.335335
     20          6           0      -13.781355   -0.432776   -4.981663
     21          6           0      -15.622039   -2.439478   -3.062919
     22          8           0      -16.181205   -3.150678   -2.209707
     23          6           0      -16.226450   -2.444572   -4.417068
     24          7           0      -12.649613   -1.397446    1.586279
     25          6           0      -13.739687   -2.057807    1.185261
     26          6           0      -14.370944   -2.829931    2.355757
     27          6           0      -13.285080   -2.704561    3.558217
     28          6           0      -12.297651   -1.708734    2.853888
     29          6           0      -15.791354   -2.283261    2.697163
     30          6           0      -12.557757   -4.022188    3.942498
     31          6           0      -12.896167   -4.589469    5.329242
     32          7           0      -10.139828    0.103139    1.852405
     33          6           0      -10.265022   -0.208863    3.208138
     34          6           0       -9.152957    0.395535    3.974790
     35          6           0       -8.426414    1.034583    2.942523
     36          6           0       -9.065592    0.836652    1.689401
     37          6           0       -8.869024    0.286610    5.391485
     38          6           0       -7.172119    1.764603    2.665102
     39          8           0       -6.257857    2.082166    3.378558
     40          6           0       -7.132762    2.048845    1.121296
     41          6           0       -6.938875    3.493636    0.919410
     42          8           0       -7.859246    4.289748    1.165686
     43          8           0       -5.761254    3.837264    0.329245
     44          6           0       -5.566982    5.220133   -0.095120
     45          1           0      -11.480190    0.916936   -4.076330
     46          1           0      -15.229249   -2.667890   -0.210541
     47          1           0      -11.274022   -1.376932    4.687140
     48          1           0       -8.103499    3.184781   -1.508013
     49          1           0       -8.905875    1.533088   -3.801525
     50          1           0       -9.542194    4.443146   -3.065950
     51          1           0      -10.942025    3.437602   -3.372649
     52          1           0       -9.766480    3.615263   -4.556009
     53          1           0       -7.013406    0.701209   -2.890928
     54          1           0       -6.512098    0.938032   -1.358755
     55          1           0       -5.079750    1.990843   -3.386436
     56          1           0       -5.188361    2.971434   -1.914158
     57          1           0      -12.948163    0.121848   -5.411892
     58          1           0      -14.650403    0.213566   -5.107722
     59          1           0      -13.757973   -1.333592   -5.594661
     60          1           0      -17.010028   -3.201458   -4.399170
     61          1           0      -15.512198   -2.661063   -5.212547
     62          1           0      -16.573652   -1.440847   -4.662791
     63          1           0      -14.359782   -3.884264    2.079121
     64          1           0      -13.696434   -2.219712    4.443478
     65          1           0      -16.548790   -3.062874    2.779450
     66          1           0      -16.136729   -1.593130    1.926916
     67          1           0      -15.640916   -1.721021    3.619074
     68          1           0      -11.471958   -3.937965    3.916996
     69          1           0      -12.760930   -4.821027    3.228945
     70          1           0      -13.905020   -4.285645    5.608775
     71          1           0      -12.197995   -4.159238    6.046575
     72          1           0      -12.704286   -5.660589    5.281388
     73          1           0       -7.834444    0.527650    5.634705
     74          1           0       -9.085779   -0.700188    5.800096
     75          1           0       -9.386158    1.104149    5.893994
     76          1           0       -6.271668    1.448837    0.825052
     77          1           0       -5.520467    5.938353    0.723930
     78          1           0       -6.297737    5.502473   -0.852940
     79          1           0       -4.593368    5.318213   -0.575031
     80         12           0       11.357568   -0.647314   -0.455330
     81          6           0        9.476382    2.318170   -0.209391
     82          6           0       12.299249   -0.099457    2.847229
     83          6           0       12.809249   -3.644344   -0.410651
     84          6           0        9.569368   -1.411741   -3.329593
     85          7           0       10.758598    0.890214    1.156064
     86          6           0       10.085702    2.089965    1.030769
     87          6           0       10.304877    3.078287    2.156921
     88          6           0       11.231797    2.308735    3.127922
     89          6           0       11.453163    0.951243    2.383649
     90          6           0       12.588051    3.052379    3.462773
     91          6           0        9.000611    3.600311    2.909597
     92          6           0        7.800911    2.645208    3.019620
     93          1           0        7.529273    1.954892    4.389019
     94          7           0       12.391831   -1.690215    0.983542
     95          6           0       12.725052   -1.281335    2.243507
     96          6           0       13.596427   -2.279166    2.879918
     97          6           0       13.763104   -3.334689    1.931867
     98          6           0       12.945652   -2.903400    0.756570
     99          6           0       14.181532   -2.119836    4.278144
    100          6           0       14.571641   -4.619304    2.349186
    101          8           0       15.000428   -4.679567    3.493110
    102          6           0       14.733685   -5.827119    1.333327
    103          7           0       11.108613   -2.301751   -1.609125
    104          6           0       11.952174   -3.405125   -1.502295
    105          6           0       11.702452   -4.442154   -2.737058
    106          6           0       10.513756   -3.671229   -3.530090
    107          6           0       10.406384   -2.386940   -2.772721
    108          6           0       12.983622   -4.680216   -3.589399
    109          6           0        9.123521   -4.438578   -3.581706
    110          6           0        8.434059   -4.639220   -4.940157
    111          7           0        9.902750    0.296444   -1.660291
    112          6           0        9.242758   -0.108879   -2.792004
    113          6           0        8.278199    0.943676   -3.175026
    114          6           0        8.450519    1.974308   -2.212463
    115          6           0        9.422174    1.481892   -1.297010
    116          6           0        7.305390    0.926950   -4.321408
    117          6           0        7.906762    3.281799   -1.799385
    118          8           0        7.113272    4.070783   -2.332995
    119          6           0        8.727738    3.627144   -0.565879
    120          6           0        9.551436    4.774105   -0.750824
    121          8           0       10.643920    4.717558   -1.372586
    122          8           0        8.999906    5.912076   -0.129385
    123          6           0        9.799705    7.132023   -0.086693
    124          1           0       12.764804    0.102204    3.813871
    125          1           0       13.397013   -4.560170   -0.496732
    126          1           0        9.094669   -1.700478   -4.269197
    127          1           0       10.797995    3.906684    1.649714
    128          1           0       10.605954    2.046038    3.980040
    129          1           0       12.576477    3.375955    4.503537
    130          1           0       12.635858    3.905302    2.785236
    131          1           0       13.447088    2.394393    3.327441
    132          1           0        8.701641    4.424765    2.261058
    133          1           0        9.287221    4.000016    3.882591
    134          1           0        7.869396    1.855212    2.271006
    135          1           0        6.906565    3.191980    2.723742
    136          1           0       13.689471   -2.712143    5.049634
    137          1           0       14.339177   -1.068613    4.519672
    138          1           0       15.225587   -2.431900    4.297097
    139          1           0       15.044356   -5.397084    0.380840
    140          1           0       13.764120   -6.318443    1.256266
    141          1           0       15.326365   -6.655831    1.720711
    142          1           0       11.494271   -5.407226   -2.276069
    143          1           0       10.893479   -3.446753   -4.527102
    144          1           0       12.947157   -3.989335   -4.431431
    145          1           0       13.111044   -5.723056   -3.880058
    146          1           0       13.915424   -4.514491   -3.048927
    147          1           0        8.462156   -3.928097   -2.880895
    148          1           0        9.407383   -5.418207   -3.197212
    149          1           0        7.369559   -4.849145   -4.832324
    150          1           0        8.966510   -5.500677   -5.342628
    151          1           0        8.610235   -3.701606   -5.467778
    152          1           0        7.124144   -0.133114   -4.496870
    153          1           0        7.909635    1.314799   -5.141486
    154          1           0        6.429019    1.564057   -4.198786
    155          1           0        7.942826    3.810526    0.167536
    156          1           0       10.029889    7.614352   -1.036716
    157          1           0       10.744177    6.939607    0.423122
    158          1           0        9.311560    7.792476    0.630165
 ---------------------------------------------------------------------

 SCF Done:  E(RwB97XD) =  -4070.64107244     A.U. after   20 cycles

 Excitation energies and oscillator strengths:

 Excited State   1:      Singlet-A      1.6636 eV  745.27 nm  f=0.4349  <S**2>=0.000
     309 -> 315       -0.18579
     311 -> 314        0.67922
     309 <- 315       -0.11640
 This state for optimization and/or second-order correction.
 Total Energy, E(TD-HF/TD-DFT) =  -4070.57993539
 Copying the excited state density for this state as the 1-particle RhoCI density.

 Excited State   2:      Singlet-A      1.6697 eV  742.56 nm  f=0.3250  <S**2>=0.000
     310 -> 316       -0.19361
     312 -> 313        0.67662
     310 <- 316       -0.11801

 Excited State   3:      Singlet-A      2.1967 eV  564.42 nm  f=0.0833  <S**2>=0.000
     310 -> 313        0.62413
     312 -> 316        0.31805

 Excited State   4:      Singlet-A      2.2613 eV  548.28 nm  f=0.0691  <S**2>=0.000
     309 -> 314        0.61509
     311 -> 315        0.33662

 Excited State   5:      Singlet-A      3.7187 eV  333.41 nm  f=0.0000  <S**2>=0.000
     312 -> 314        0.70697

 The electronic state is 1-A.
 Alpha  occ. eigenvalues --  -46.95292 -46.95165 -19.31073 -19.31028 -19.25208
 Alpha  occ. eigenvalues --  -19.24652 -19.24271 -19.24160 -19.24010 -19.23357
 Alpha  occ. eigenvalues --  -14.47296 -14.46669 -14.46344 -14.46219 -14.44569
 Alpha  occ. eigenvalues --  -14.44060 -14.43904 -14.43766 -10.43897 -10.43318
 Alpha  occ. eigenvalues --  -10.40514 -10.39398 -10.38883 -10.38793 -10.35986
 Alpha  occ. eigenvalues --  -10.35938 -10.35849 -10.35427 -10.35018 -10.34864
 Alpha  occ. eigenvalues --  -10.34630 -10.34630 -10.34594 -10.34585 -10.34349
 Alpha  occ. eigenvalues --  -10.34114 -10.34061 -10.34007 -10.33907 -10.33890
 Alpha  occ. eigenvalues --  -10.33381 -10.33283 -10.33164 -10.32933 -10.32610
 Alpha  occ. eigenvalues --  -10.32569 -10.32512 -10.32455 -10.32367 -10.32349
 Alpha  occ. eigenvalues --  -10.32270 -10.32248 -10.32141 -10.31972 -10.31916
 Alpha  occ. eigenvalues --  -10.31891 -10.31821 -10.31810 -10.31622 -10.31598
 Alpha  occ. eigenvalues --  -10.31381 -10.31337 -10.31329 -10.31275 -10.31258
 Alpha  occ. eigenvalues --  -10.31165 -10.31032 -10.30972 -10.30765 -10.30677
 Alpha  occ. eigenvalues --  -10.30674 -10.30509 -10.30460 -10.30459 -10.30039
 Alpha  occ. eigenvalues --  -10.29925 -10.29892 -10.29887 -10.29866 -10.29846
 Alpha  occ. eigenvalues --  -10.29731 -10.29421 -10.29315 -10.29249 -10.29238
 Alpha  occ. eigenvalues --  -10.29120  -3.21358  -3.21033  -1.94903  -1.94643
 Alpha  occ. eigenvalues --   -1.94496  -1.94333  -1.94139  -1.94012  -1.18504
 Alpha  occ. eigenvalues --   -1.17148  -1.13109  -1.12650  -1.11306  -1.11083
 Alpha  occ. eigenvalues --   -1.09225  -1.09209  -1.07044  -1.06160  -1.05995
 Alpha  occ. eigenvalues --   -1.05605  -1.05334  -1.04615  -1.03907  -1.02944
 Alpha  occ. eigenvalues --   -0.95137  -0.94379  -0.91071  -0.90925  -0.90704
 Alpha  occ. eigenvalues --   -0.90111  -0.89967  -0.89537  -0.89067  -0.88733
 Alpha  occ. eigenvalues --   -0.88594  -0.88153  -0.88026  -0.87546  -0.86463
 Alpha  occ. eigenvalues --   -0.85806  -0.85797  -0.85387  -0.84691  -0.84129
 Alpha  occ. eigenvalues --   -0.83734  -0.83576  -0.83069  -0.82961  -0.82441
 Alpha  occ. eigenvalues --   -0.82050  -0.80343  -0.80107  -0.79404  -0.79173
 Alpha  occ. eigenvalues --   -0.79163  -0.78693  -0.78457  -0.78076  -0.76868
 Alpha  occ. eigenvalues --   -0.76757  -0.74532  -0.74331  -0.73734  -0.73421
 Alpha  occ. eigenvalues --   -0.71229  -0.71076  -0.70878  -0.70381  -0.70217
 Alpha  occ. eigenvalues --   -0.69940  -0.68860  -0.68829  -0.67706  -0.67695
 Alpha  occ. eigenvalues --   -0.67287  -0.67192  -0.66970  -0.66586  -0.66261
 Alpha  occ. eigenvalues --   -0.66189  -0.64621  -0.64441  -0.62248  -0.61767
 Alpha  occ. eigenvalues --   -0.61606  -0.61502  -0.61141  -0.61037  -0.60654
 Alpha  occ. eigenvalues --   -0.60632  -0.60147  -0.59723  -0.59217  -0.59207
 Alpha  occ. eigenvalues --   -0.58115  -0.57979  -0.57732  -0.57537  -0.57292
 Alpha  occ. eigenvalues --   -0.56878  -0.56570  -0.56371  -0.56159  -0.55834
 Alpha  occ. eigenvalues --   -0.55723  -0.55330  -0.55000  -0.54819  -0.54648
 Alpha  occ. eigenvalues --   -0.54517  -0.54309  -0.54284  -0.54081  -0.54063
 Alpha  occ. eigenvalues --   -0.53500  -0.53474  -0.53353  -0.53164  -0.53164
 Alpha  occ. eigenvalues --   -0.52983  -0.52894  -0.52664  -0.52246  -0.52080
 Alpha  occ. eigenvalues --   -0.51954  -0.51858  -0.51734  -0.51325  -0.51260
 Alpha  occ. eigenvalues --   -0.51217  -0.51182  -0.50910  -0.50855  -0.50489
 Alpha  occ. eigenvalues --   -0.50392  -0.50293  -0.50259  -0.50081  -0.49933
 Alpha  occ. eigenvalues --   -0.49795  -0.49340  -0.49285  -0.49197  -0.49093
 Alpha  occ. eigenvalues --   -0.48990  -0.48565  -0.48559  -0.48384  -0.48180
 Alpha  occ. eigenvalues --   -0.48132  -0.48086  -0.47747  -0.47682  -0.47554
 Alpha  occ. eigenvalues --   -0.47370  -0.47295  -0.47075  -0.46902  -0.46774
 Alpha  occ. eigenvalues --   -0.46724  -0.46581  -0.46475  -0.46398  -0.46193
 Alpha  occ. eigenvalues --   -0.46122  -0.45877  -0.45690  -0.45493  -0.45345
 Alpha  occ. eigenvalues --   -0.45149  -0.45028  -0.45022  -0.44887  -0.44886
 Alpha  occ. eigenvalues --   -0.44652  -0.44465  -0.44356  -0.44184  -0.44054
 Alpha  occ. eigenvalues --   -0.43981  -0.43688  -0.43555  -0.43327  -0.43068
 Alpha  occ. eigenvalues --   -0.42964  -0.42756  -0.42506  -0.42495  -0.42190
 Alpha  occ. eigenvalues --   -0.42154  -0.41792  -0.41782  -0.41608  -0.41362
 Alpha  occ. eigenvalues --   -0.40822  -0.40031  -0.39590  -0.39461  -0.39346
 Alpha  occ. eigenvalues --   -0.39160  -0.39115  -0.38987  -0.38704  -0.38633
 Alpha  occ. eigenvalues --   -0.38595  -0.37864  -0.36748  -0.36317  -0.35961
 Alpha  occ. eigenvalues --   -0.35824  -0.35480  -0.35296  -0.33542  -0.33242
 Alpha  occ. eigenvalues --   -0.33215  -0.33027  -0.32841  -0.32624  -0.32450
 Alpha  occ. eigenvalues --   -0.32165  -0.31775  -0.31639  -0.26075  -0.25733
 Alpha  occ. eigenvalues --   -0.22643  -0.22542
 Alpha virt. eigenvalues --   -0.06591  -0.06512   0.00108   0.00247   0.02336
 Alpha virt. eigenvalues --    0.02653   0.04099   0.04750   0.04916   0.05575
 Alpha virt. eigenvalues --    0.06184   0.06704   0.07490   0.07846   0.08057

 Mulliken charges:
               1
     1  Mg   0.952527
     2  C   -0.029811
     3  C   -0.087630
     4  C   -0.053850
     5  C   -0.079178
     6  N   -0.317115
     7  C   -0.008987
     8  C   -0.054389
     9  C   -0.041426
    10  C   -0.009045
    11  C    0.020012
    12  C    0.021274
    13  C   -0.115286
    14  H    0.015749
    15  N   -0.461407
    16  C    0.197301
    17  C   -0.169722
    18  C   -0.061236
    19  C    0.119872
    20  C    0.061388
    21  C    0.038475
    22  O   -0.262929
    23  C    0.013300
    24  N   -0.333045
    25  C    0.064186
    26  C   -0.091934
    27  C   -0.098935
    28  C    0.041278
    29  C    0.031161
    30  C   -0.015175
    31  C   -0.053806
    32  N   -0.449343
    33  C    0.129981
    34  C   -0.162315
    35  C   -0.055431
    36  C    0.144860
    37  C    0.075992
    38  C    0.096362
    39  O   -0.183652
    40  C   -0.041968
    41  C    0.280569
    42  O   -0.276233
    43  O   -0.352269
    44  C    0.140746
    45  H   -0.023832
    46  H    0.028077
    47  H   -0.002528
    48  H    0.046182
    49  H    0.034475
    50  H    0.049015
    51  H    0.030963
    52  H    0.026901
    53  H    0.018457
    54  H    0.024760
    55  H    0.055392
    56  H    0.067460
    57  H    0.025654
    58  H    0.064093
    59  H    0.051269
    60  H    0.063559
    61  H    0.041607
    62  H    0.053090
    63  H    0.040440
    64  H    0.038292
    65  H    0.048108
    66  H    0.046061
    67  H    0.029677
    68  H    0.031772
    69  H    0.025652
    70  H    0.040539
    71  H    0.032169
    72  H    0.041437
    73  H    0.049823
    74  H    0.047403
    75  H    0.057422
    76  H    0.067200
    77  H    0.067178
    78  H    0.052353
    79  H    0.050965
    80  Mg   0.987124
    81  C   -0.108902
    82  C   -0.085466
    83  C   -0.110572
    84  C   -0.096048
    85  N   -0.342008
    86  C   -0.038401
    87  C   -0.062292
    88  C   -0.058536
    89  C    0.026644
    90  C    0.027325
    91  C   -0.015098
    92  C   -0.118887
    93  H    0.037442
    94  N   -0.448625
    95  C    0.153534
    96  C   -0.157571
    97  C   -0.113649
    98  C    0.206812
    99  C    0.095287
   100  C    0.069729
   101  O   -0.226493
   102  C   -0.026223
   103  N   -0.421987
   104  C    0.079428
   105  C   -0.103149
   106  C   -0.075653
   107  C    0.085804
   108  C    0.009843
   109  C   -0.024280
   110  C   -0.038148
   111  N   -0.406522
   112  C    0.119585
   113  C   -0.211745
   114  C   -0.096389
   115  C    0.263624
   116  C    0.092482
   117  C    0.145440
   118  O   -0.218170
   119  C   -0.059173
   120  C    0.315691
   121  O   -0.277690
   122  O   -0.382167
   123  C    0.152180
   124  H   -0.008959
   125  H   -0.035110
   126  H   -0.016133
   127  H    0.049397
   128  H    0.045856
   129  H    0.043836
   130  H    0.040393
   131  H    0.046321
   132  H    0.038193
   133  H    0.048466
   134  H    0.062952
   135  H    0.056636
   136  H    0.065517
   137  H    0.023075
   138  H    0.044129
   139  H    0.073621
   140  H    0.060944
   141  H    0.052798
   142  H    0.044438
   143  H    0.036032
   144  H    0.037533
   145  H    0.038473
   146  H    0.031817
   147  H    0.048575
   148  H    0.025126
   149  H    0.051450
   150  H    0.041596
   151  H    0.037631
   152  H    0.034624
   153  H    0.054783
   154  H    0.066407
   155  H    0.060030
   156  H    0.069229
   157  H    0.033853
   158  H    0.052339
 Sum of Mulliken charges =  -0.00000

 Dipole moment (field-independent basis, Debye):
    X=              2.3783    Y=             -2.5254    Z=             -3.7837  Tot=              5.1333
 Quadrupole moment (field-independent basis, Debye-Ang):
   XX=           -505.5130   YY=           -491.0831   ZZ=           -482.6830
   XY=              0.8827   XZ=             13.3944   YZ=             20.0032

 Normal termination of Gaussian 16 at Sun Sep 19 23:55:14 2021.
