 Gaussian 16, Revision A.03,
 Gaussian 16:  ES64L-G16RevA.03 25-Dec-2016

 --------------------------------
 #p wB97XD/Def2SVP td=(nstates=5)
 --------------------------------

 --------------------------------
 TDDFT excited states in gaussian
 --------------------------------
 Symbolic Z-matrix:
 Charge =  0 Multiplicity = 1

                         Standard orientation:
 ---------------------------------------------------------------------
 Center     Atomic      Atomic             Coordinates (Angstroms)
 Number     Number       Type             X           Y           Z
 ---------------------------------------------------------------------
      1         12           0      -27.517643   -0.575069   -0.268161
      2          6           0      -25.294413    2.403222   -0.244742
      3          6           0      -28.742575    0.726470    2.600541
      4          6           0      -29.155307   -3.288869   -0.237060
      5          6           0      -25.356170   -1.869874   -2.783203
      6          7           0      -27.012901    1.306188    1.016592
      7          6           0      -26.233779    2.412587    0.723299
      8          6           0      -26.463917    3.617388    1.642817
      9          6           0      -27.220520    2.890473    2.797153
     10          6           0      -27.704784    1.541712    2.137346
     11          6           0      -26.412327    2.640803    4.031412
     12          6           0      -27.189144    4.860245    1.026164
     13          6           0      -26.847997    6.210288    1.562561
     14          1           0      -28.014300    7.189010    1.655594
     15          7           0      -28.853531   -1.213466    1.009155
     16          6           0      -29.305019   -0.509936    2.145386
     17          6           0      -30.426445   -1.225034    2.682886
     18          6           0      -30.628618   -2.320686    1.735607
     19          6           0      -29.547390   -2.281479    0.818417
     20          6           0      -31.301633   -0.751528    3.901772
     21          6           0      -31.770160   -3.290337    1.766854
     22          8           0      -31.852493   -4.248649    0.960463
     23          6           0      -32.912765   -3.172099    2.708167
     24          7           0      -27.238344   -2.400065   -1.206994
     25          6           0      -28.091429   -3.414030   -1.048665
     26          6           0      -27.775399   -4.654073   -1.945039
     27          6           0      -26.861751   -3.947409   -3.014542
     28          6           0      -26.404841   -2.657175   -2.280336
     29          6           0      -26.999032   -5.764255   -1.166226
     30          6           0      -27.658792   -3.569527   -4.333117
     31          6           0      -28.455333   -4.662053   -5.076963
     32          7           0      -25.729791    0.109622   -1.347608
     33          6           0      -25.038862   -0.524643   -2.373793
     34          6           0      -23.923689    0.295023   -2.786415
     35          6           0      -24.010126    1.457938   -2.010425
     36          6           0      -25.071143    1.279164   -1.080770
     37          6           0      -22.982744    0.025988   -3.912281
     38          6           0      -23.391921    2.756266   -1.775762
     39          8           0      -22.472694    3.367747   -2.304032
     40          6           0      -24.330410    3.423741   -0.642134
     41          6           0      -23.422899    3.881945    0.395742
     42          8           0      -22.675732    3.180200    1.095438
     43          8           0      -23.191615    5.211406    0.187036
     44          6           0      -22.275574    5.904448    1.034987
     45          1           0      -29.189060    1.274224    3.433264
     46          1           0      -29.695596   -4.237261   -0.263944
     47          1           0      -24.739012   -2.313902   -3.567535
     48          1           0      -25.485811    3.932989    2.006489
     49          1           0      -28.152905    3.405341    3.026920
     50          1           0      -26.185324    1.574873    4.051525
     51          1           0      -27.017380    2.847136    4.914152
     52          1           0      -25.470013    3.179396    4.129787
     53          1           0      -28.252949    4.733022    1.224720
     54          1           0      -27.055349    4.809054   -0.054048
     55          1           0      -26.120725    6.590932    0.845705
     56          1           0      -26.224801    6.161436    2.455607
     57          1           0      -32.288147   -0.363703    3.649565
     58          1           0      -30.760669   -0.042103    4.527438
     59          1           0      -31.384768   -1.676868    4.473156
     60          1           0      -32.577250   -3.494977    3.694034
     61          1           0      -33.678803   -3.846534    2.324544
     62          1           0      -33.261465   -2.142026    2.642173
     63          1           0      -28.740573   -5.015904   -2.301063
     64          1           0      -25.965114   -4.494103   -3.304974
     65          1           0      -27.677809   -6.613598   -1.084982
     66          1           0      -26.595445   -5.472834   -0.197081
     67          1           0      -26.197796   -5.999929   -1.868077
     68          1           0      -26.944025   -3.221608   -5.078499
     69          1           0      -28.269576   -2.704107   -4.076647
     70          1           0      -29.480758   -4.292991   -5.090066
     71          1           0      -28.387397   -5.530935   -4.421713
     72          1           0      -28.103332   -4.817280   -6.096706
     73          1           0      -23.456308   -0.782284   -4.470011
     74          1           0      -22.053757   -0.311128   -3.452545
     75          1           0      -22.747437    0.902934   -4.515328
     76          1           0      -24.882788    4.258986   -1.072267
     77          1           0      -21.872831    5.254741    1.812332
     78          1           0      -22.871783    6.676254    1.521924
     79          1           0      -21.522417    6.434998    0.454173
     80         12           0       26.436986   -0.839887    0.320785
     81          6           0       26.860746    2.217439   -1.537166
     82          6           0       25.804891    0.956545    3.064702
     83          6           0       26.941260   -3.641730    2.088871
     84          6           0       27.580830   -2.521059   -2.537456
     85          7           0       26.403218    1.301472    0.701903
     86          6           0       26.407305    2.371292   -0.209336
     87          6           0       25.976562    3.719084    0.485268
     88          6           0       25.717274    3.270676    1.955393
     89          6           0       25.932623    1.734575    1.906270
     90          6           0       26.544893    3.922233    3.034060
     91          6           0       24.727600    4.437446   -0.258562
     92          6           0       24.949459    5.907068   -0.636901
     93          1           0       23.899309    6.895345   -0.006148
     94          7           0       26.242777   -1.309261    2.302669
     95          6           0       25.985993   -0.451270    3.295191
     96          6           0       25.959005   -1.123577    4.595335
     97          6           0       26.391135   -2.461703    4.295966
     98          6           0       26.564328   -2.529798    2.841163
     99          6           0       25.602181   -0.447380    5.848995
    100          6           0       26.698562   -3.537732    5.384300
    101          8           0       27.001000   -4.682933    5.093460
    102          6           0       26.620595   -3.252014    6.850131
    103          7           0       27.133509   -2.731683   -0.161313
    104          6           0       27.130712   -3.781444    0.750924
    105          6           0       27.536186   -5.125087    0.060710
    106          6           0       27.387994   -4.787859   -1.469861
    107          6           0       27.307232   -3.262688   -1.409074
    108          6           0       28.870527   -5.803900    0.511439
    109          6           0       26.123495   -5.396198   -2.135924
    110          6           0       26.234970   -5.943210   -3.536662
    111          7           0       27.142355   -0.297624   -1.629416
    112          6           0       27.564302   -1.091306   -2.658004
    113          6           0       27.769010   -0.217323   -3.894563
    114          6           0       27.456772    1.065137   -3.513076
    115          6           0       27.150275    0.979193   -2.111669
    116          6           0       28.127477   -0.787609   -5.247974
    117          6           0       27.362167    2.459987   -3.905430
    118          8           0       27.599770    2.880436   -5.057067
    119          6           0       27.043791    3.336467   -2.552527
    120          6           0       28.163467    4.257363   -2.114551
    121          8           0       29.316469    3.819204   -1.931640
    122          8           0       27.788230    5.601363   -2.131094
    123          6           0       28.939036    6.497016   -2.127925
    124          1           0       25.485394    1.470721    3.973317
    125          1           0       27.020452   -4.520025    2.732387
    126          1           0       27.812918   -3.125879   -3.417068
    127          1           0       26.864869    4.338445    0.362728
    128          1           0       24.726817    3.663167    2.189785
    129          1           0       27.285099    4.621189    2.644400
    130          1           0       27.127332    3.058573    3.353135
    131          1           0       25.947569    4.460543    3.770562
    132          1           0       23.919159    4.314569    0.461612
    133          1           0       24.428528    3.830675   -1.112833
    134          1           0       24.982302    5.945506   -1.725727
    135          1           0       25.924152    6.227865   -0.267036
    136          1           0       26.291620   -0.458649    6.692602
    137          1           0       24.826834   -1.077916    6.282663
    138          1           0       25.090635    0.508921    5.737691
    139          1           0       25.582093   -2.969584    7.027014
    140          1           0       27.228004   -2.363560    7.025026
    141          1           0       26.969355   -4.157779    7.344590
    142          1           0       26.732953   -5.807240    0.339354
    143          1           0       28.288889   -5.008022   -2.042104
    144          1           0       29.194791   -5.209911    1.365616
    145          1           0       29.617074   -5.892693   -0.277274
    146          1           0       28.699895   -6.774252    0.979344
    147          1           0       25.502668   -4.500923   -2.107860
    148          1           0       25.612137   -6.153469   -1.541305
    149          1           0       25.672790   -6.877099   -3.530133
    150          1           0       27.258645   -6.189607   -3.820423
    151          1           0       25.649114   -5.271985   -4.165104
    152          1           0       28.236318   -1.864771   -5.122896
    153          1           0       29.115462   -0.416700   -5.519847
    154          1           0       27.388984   -0.472243   -5.984768
    155          1           0       26.106374    3.871242   -2.705415
    156          1           0       29.103127    7.048164   -3.052850
    157          1           0       29.880138    6.012670   -1.867078
    158          1           0       28.750549    7.226466   -1.340641
 ---------------------------------------------------------------------

 SCF Done:  E(RwB97XD) =  -4070.59332945     A.U. after   19 cycles

 Excitation energies and oscillator strengths:

 Excited State   1:      Singlet-A      1.6008 eV  774.51 nm  f=0.3863  <S**2>=0.000
     309 -> 316       -0.16171
     311 -> 313        0.68932
     309 <- 316       -0.11299
 This state for optimization and/or second-order correction.
 Total Energy, E(TD-HF/TD-DFT) =  -4070.53450114
 Copying the excited state density for this state as the 1-particle RhoCI density.

 Excited State   2:      Singlet-A      1.6412 eV  755.44 nm  f=0.4164  <S**2>=0.000
     310 -> 315       -0.17864
     312 -> 314        0.68586
     310 <- 315       -0.11673

 Excited State   3:      Singlet-A      2.1246 eV  583.56 nm  f=0.2109  <S**2>=0.000
     309 -> 313        0.66539
     311 -> 316        0.22066

 Excited State   4:      Singlet-A      2.2310 eV  555.74 nm  f=0.0894  <S**2>=0.000
     310 -> 314        0.62834
     312 -> 315        0.31482

 Excited State   5:      Singlet-A      3.1835 eV  389.46 nm  f=0.0051  <S**2>=0.000
     305 -> 313       -0.18250
     306 -> 313        0.66070

 The electronic state is 1-A.
 Alpha  occ. eigenvalues --  -46.95256 -46.94734 -19.31931 -19.30071 -19.25816
 Alpha  occ. eigenvalues --  -19.25062 -19.25013 -19.24420 -19.23522 -19.22461
 Alpha  occ. eigenvalues --  -14.47178 -14.46951 -14.46242 -14.46016 -14.44302
 Alpha  occ. eigenvalues --  -14.44293 -14.44214 -14.43928 -10.44716 -10.43036
 Alpha  occ. eigenvalues --  -10.40605 -10.40071 -10.38852 -10.37941 -10.35663
 Alpha  occ. eigenvalues --  -10.35479 -10.35474 -10.34954 -10.34871 -10.34810
 Alpha  occ. eigenvalues --  -10.34791 -10.34732 -10.34708 -10.34498 -10.34462
 Alpha  occ. eigenvalues --  -10.34352 -10.34109 -10.34034 -10.33859 -10.33761
 Alpha  occ. eigenvalues --  -10.33475 -10.33224 -10.33180 -10.33135 -10.33054
 Alpha  occ. eigenvalues --  -10.33009 -10.32930 -10.32639 -10.32410 -10.32333
 Alpha  occ. eigenvalues --  -10.32286 -10.32198 -10.32181 -10.32173 -10.32077
 Alpha  occ. eigenvalues --  -10.32059 -10.32015 -10.31734 -10.31721 -10.31558
 Alpha  occ. eigenvalues --  -10.31496 -10.31430 -10.31410 -10.31286 -10.31259
 Alpha  occ. eigenvalues --  -10.31009 -10.31005 -10.30989 -10.30787 -10.30544
 Alpha  occ. eigenvalues --  -10.30340 -10.30106 -10.30045 -10.29989 -10.29833
 Alpha  occ. eigenvalues --  -10.29815 -10.29800 -10.29658 -10.29636 -10.29575
 Alpha  occ. eigenvalues --  -10.29450 -10.29394 -10.29357 -10.29334 -10.29232
 Alpha  occ. eigenvalues --  -10.29198  -3.21358  -3.20808  -1.94917  -1.94480
 Alpha  occ. eigenvalues --   -1.94381  -1.94345  -1.93919  -1.93807  -1.18757
 Alpha  occ. eigenvalues --   -1.18526  -1.12532  -1.12280  -1.11338  -1.10167
 Alpha  occ. eigenvalues --   -1.09653  -1.09248  -1.06944  -1.06073  -1.05920
 Alpha  occ. eigenvalues --   -1.05681  -1.05325  -1.04629  -1.04613  -1.03906
 Alpha  occ. eigenvalues --   -0.95729  -0.94632  -0.91433  -0.90989  -0.90696
 Alpha  occ. eigenvalues --   -0.90600  -0.89973  -0.89915  -0.89409  -0.89281
 Alpha  occ. eigenvalues --   -0.89131  -0.88806  -0.88197  -0.88072  -0.86650
 Alpha  occ. eigenvalues --   -0.86188  -0.85996  -0.85551  -0.85041  -0.84613
 Alpha  occ. eigenvalues --   -0.84036  -0.83828  -0.83159  -0.83050  -0.82798
 Alpha  occ. eigenvalues --   -0.82190  -0.80526  -0.80376  -0.79532  -0.79436
 Alpha  occ. eigenvalues --   -0.79233  -0.78871  -0.78188  -0.78138  -0.77401
 Alpha  occ. eigenvalues --   -0.76646  -0.75379  -0.74453  -0.72944  -0.72916
 Alpha  occ. eigenvalues --   -0.71231  -0.71007  -0.70611  -0.70329  -0.70195
 Alpha  occ. eigenvalues --   -0.69831  -0.68931  -0.68674  -0.67672  -0.67258
 Alpha  occ. eigenvalues --   -0.67102  -0.66936  -0.66916  -0.66895  -0.66477
 Alpha  occ. eigenvalues --   -0.66356  -0.64591  -0.64070  -0.62752  -0.62247
 Alpha  occ. eigenvalues --   -0.61802  -0.61746  -0.61516  -0.60884  -0.60859
 Alpha  occ. eigenvalues --   -0.60497  -0.60407  -0.60338  -0.59716  -0.59313
 Alpha  occ. eigenvalues --   -0.58246  -0.57875  -0.57623  -0.57403  -0.57050
 Alpha  occ. eigenvalues --   -0.56879  -0.56849  -0.56632  -0.56115  -0.55700
 Alpha  occ. eigenvalues --   -0.55681  -0.55440  -0.55202  -0.55110  -0.54790
 Alpha  occ. eigenvalues --   -0.54535  -0.54485  -0.54370  -0.54353  -0.53755
 Alpha  occ. eigenvalues --   -0.53715  -0.53541  -0.53442  -0.53366  -0.53202
 Alpha  occ. eigenvalues --   -0.53177  -0.53058  -0.52952  -0.52771  -0.52236
 Alpha  occ. eigenvalues --   -0.52178  -0.51861  -0.51837  -0.51655  -0.51556
 Alpha  occ. eigenvalues --   -0.51468  -0.51335  -0.51174  -0.51063  -0.50722
 Alpha  occ. eigenvalues --   -0.50668  -0.50565  -0.50271  -0.50255  -0.50090
 Alpha  occ. eigenvalues --   -0.50074  -0.49863  -0.49802  -0.49533  -0.49186
 Alpha  occ. eigenvalues --   -0.49178  -0.48922  -0.48680  -0.48470  -0.48422
 Alpha  occ. eigenvalues --   -0.48372  -0.48161  -0.47951  -0.47912  -0.47885
 Alpha  occ. eigenvalues --   -0.47594  -0.47395  -0.47317  -0.47052  -0.46938
 Alpha  occ. eigenvalues --   -0.46758  -0.46498  -0.46314  -0.46311  -0.46068
 Alpha  occ. eigenvalues --   -0.45943  -0.45936  -0.45713  -0.45686  -0.45550
 Alpha  occ. eigenvalues --   -0.45197  -0.45146  -0.45077  -0.44950  -0.44812
 Alpha  occ. eigenvalues --   -0.44780  -0.44613  -0.44593  -0.44052  -0.43931
 Alpha  occ. eigenvalues --   -0.43720  -0.43628  -0.43620  -0.43256  -0.43028
 Alpha  occ. eigenvalues --   -0.42679  -0.42672  -0.42604  -0.42451  -0.42087
 Alpha  occ. eigenvalues --   -0.41760  -0.41420  -0.41390  -0.41249  -0.41023
 Alpha  occ. eigenvalues --   -0.40493  -0.40200  -0.40181  -0.39741  -0.39705
 Alpha  occ. eigenvalues --   -0.39482  -0.39426  -0.39248  -0.38495  -0.38422
 Alpha  occ. eigenvalues --   -0.38029  -0.37879  -0.37080  -0.36643  -0.36429
 Alpha  occ. eigenvalues --   -0.36292  -0.35414  -0.35155  -0.33799  -0.33702
 Alpha  occ. eigenvalues --   -0.33505  -0.33461  -0.32603  -0.32570  -0.32263
 Alpha  occ. eigenvalues --   -0.32091  -0.31932  -0.31785  -0.26192  -0.26091
 Alpha  occ. eigenvalues --   -0.23566  -0.22572
 Alpha virt. eigenvalues --   -0.08042  -0.06760   0.00600   0.01122   0.01982
 Alpha virt. eigenvalues --    0.02339   0.04262   0.04292   0.04890   0.04925
 Alpha virt. eigenvalues --    0.05123   0.06083   0.07006   0.07628   0.08020

 Mulliken charges:
               1
     1  Mg   0.983713
     2  C   -0.013846
     3  C   -0.065985
     4  C   -0.042965
     5  C   -0.083004
     6  N   -0.296752
     7  C   -0.036564
     8  C   -0.083955
     9  C   -0.102270
    10  C   -0.016686
    11  C    0.047875
    12  C    0.043062
    13  C   -0.116522
    14  H    0.053897
    15  N   -0.496893
    16  C    0.190406
    17  C   -0.170773
    18  C   -0.082105
    19  C    0.148050
    20  C    0.071926
    21  C    0.008742
    22  O   -0.274931
    23  C    0.009665
    24  N   -0.391785
    25  C    0.045329
    26  C   -0.110703
    27  C   -0.102215
    28  C    0.088757
    29  C    0.051796
    30  C   -0.033950
    31  C   -0.032734
    32  N   -0.400179
    33  C    0.123200
    34  C   -0.202567
    35  C   -0.040093
    36  C    0.129405
    37  C    0.087846
    38  C    0.156471
    39  O   -0.192284
    40  C   -0.059997
    41  C    0.245582
    42  O   -0.268787
    43  O   -0.350396
    44  C    0.133694
    45  H   -0.007719
    46  H    0.013694
    47  H    0.005002
    48  H    0.033299
    49  H    0.025423
    50  H    0.044482
    51  H    0.034254
    52  H    0.048394
    53  H    0.032037
    54  H    0.031292
    55  H    0.047984
    56  H    0.042909
    57  H    0.067986
    58  H    0.040284
    59  H    0.043001
    60  H    0.064028
    61  H    0.055119
    62  H    0.045556
    63  H    0.047127
    64  H    0.025408
    65  H    0.046383
    66  H    0.060244
    67  H    0.027959
    68  H    0.024661
    69  H    0.033421
    70  H    0.042567
    71  H    0.036235
    72  H    0.048608
    73  H    0.031192
    74  H    0.060003
    75  H    0.065022
    76  H    0.071933
    77  H    0.066056
    78  H    0.033741
    79  H    0.061937
    80  Mg   0.975972
    81  C   -0.099663
    82  C   -0.080784
    83  C   -0.088256
    84  C   -0.101439
    85  N   -0.370307
    86  C   -0.011438
    87  C   -0.072375
    88  C   -0.107082
    89  C    0.104516
    90  C    0.024244
    91  C    0.006692
    92  C   -0.108900
    93  H    0.027744
    94  N   -0.454669
    95  C    0.114099
    96  C   -0.149674
    97  C   -0.076251
    98  C    0.118148
    99  C    0.069571
   100  C    0.031544
   101  O   -0.238346
   102  C    0.011775
   103  N   -0.400920
   104  C    0.093387
   105  C   -0.058196
   106  C   -0.103736
   107  C    0.063887
   108  C    0.035212
   109  C   -0.016665
   110  C   -0.026199
   111  N   -0.388554
   112  C    0.149199
   113  C   -0.228808
   114  C    0.015677
   115  C    0.154290
   116  C    0.098514
   117  C    0.146794
   118  O   -0.221199
   119  C   -0.037502
   120  C    0.292924
   121  O   -0.256311
   122  O   -0.367189
   123  C    0.121100
   124  H   -0.014028
   125  H    0.016136
   126  H   -0.003787
   127  H    0.041608
   128  H    0.034194
   129  H    0.028891
   130  H    0.041571
   131  H    0.042991
   132  H    0.031995
   133  H    0.037955
   134  H    0.064352
   135  H    0.054518
   136  H    0.046763
   137  H    0.028267
   138  H    0.042594
   139  H    0.049442
   140  H    0.052053
   141  H    0.067735
   142  H    0.030986
   143  H    0.029177
   144  H    0.038574
   145  H    0.045328
   146  H    0.035501
   147  H    0.029350
   148  H    0.034956
   149  H    0.028935
   150  H    0.041843
   151  H    0.043818
   152  H    0.023009
   153  H    0.059023
   154  H    0.067101
   155  H    0.058189
   156  H    0.063446
   157  H    0.072068
   158  H    0.044624
 Sum of Mulliken charges =  -0.00000

 Dipole moment (field-independent basis, Debye):
    X=             -5.7187    Y=              2.2170    Z=              3.2011  Tot=              6.9185
 Quadrupole moment (field-independent basis, Debye-Ang):
   XX=           -532.6405   YY=           -488.1619   ZZ=           -491.2888
   XY=            -41.6151   XZ=             25.2255   YZ=             52.5420

 Normal termination of Gaussian 16 at Sat Sep 18 18:32:00 2021.
