 Gaussian 16, Revision A.03,
 Gaussian 16:  ES64L-G16RevA.03 25-Dec-2016

 --------------------------------
 #p wB97XD/Def2SVP td=(nstates=5)
 --------------------------------

 --------------------------------
 TDDFT excited states in gaussian
 --------------------------------
 Symbolic Z-matrix:
 Charge =  0 Multiplicity = 1

                         Standard orientation:
 ---------------------------------------------------------------------
 Center     Atomic      Atomic             Coordinates (Angstroms)
 Number     Number       Type             X           Y           Z
 ---------------------------------------------------------------------
      1         12           0        9.291039    0.302662   -0.381749
      2          6           0        7.267974   -2.102262    1.231765
      3          6           0       11.139983   -2.093186   -1.691621
      4          6           0       11.631162    2.685281   -1.102707
      5          6           0        7.815236    2.756011    1.958823
      6          7           0        9.206743   -1.862475   -0.168535
      7          6           0        8.191798   -2.607595    0.315167
      8          6           0        8.357421   -4.061474   -0.168960
      9          6           0        9.535610   -4.049782   -1.089328
     10          6           0       10.050406   -2.583277   -0.970987
     11          6           0       10.548859   -5.234156   -0.810289
     12          6           0        7.109583   -4.797883   -0.761380
     13          6           0        7.221975   -5.840842   -1.954532
     14          1           0        6.439660   -7.158325   -1.851377
     15          7           0       11.012060    0.303102   -1.494916
     16          6           0       11.626627   -0.834783   -1.966705
     17          6           0       12.770257   -0.426495   -2.731888
     18          6           0       12.997848    0.995090   -2.565210
     19          6           0       11.895248    1.374447   -1.654453
     20          6           0       13.577414   -1.473745   -3.385731
     21          6           0       14.050072    1.933755   -3.205656
     22          8           0       14.094085    3.079337   -2.898728
     23          6           0       14.847115    1.481502   -4.385633
     24          7           0        9.674584    2.414948    0.397893
     25          6           0       10.638604    3.139191   -0.213625
     26          6           0       10.671993    4.617056    0.291628
     27          6           0        9.436416    4.673332    1.241200
     28          6           0        8.925244    3.211311    1.239635
     29          6           0       11.941058    5.041355    0.981760
     30          6           0        8.277857    5.670988    0.889894
     31          6           0        7.311634    5.314330   -0.188664
     32          7           0        7.849811    0.443396    1.258405
     33          6           0        7.361282    1.471938    2.012010
     34          6           0        6.271249    0.991600    2.825745
     35          6           0        6.168785   -0.403545    2.583323
     36          6           0        7.187878   -0.691576    1.652889
     37          6           0        5.517361    1.735185    3.871168
     38          6           0        5.492539   -1.621047    2.929422
     39          8           0        4.549792   -1.879681    3.668750
     40          6           0        6.138226   -2.771934    2.034487
     41          6           0        6.533781   -3.998362    2.839426
     42          8           0        7.394113   -3.999810    3.681665
     43          8           0        5.786301   -5.084337    2.412343
     44          6           0        6.072162   -6.311208    3.156942
     45          1           0       11.679323   -2.801714   -2.324337
     46          1           0       12.391551    3.401287   -1.420611
     47          1           0        7.304978    3.499096    2.575043
     48          1           0        8.547291   -4.525301    0.798994
     49          1           0        9.167313   -4.263612   -2.093068
     50          1           0       10.114473   -5.916947   -0.080261
     51          1           0       11.514653   -4.790318   -0.568888
     52          1           0       10.649871   -5.881479   -1.681618
     53          1           0        6.428762   -4.020861   -1.109839
     54          1           0        6.541576   -5.318719    0.009908
     55          1           0        8.289718   -6.047722   -2.029547
     56          1           0        6.927791   -5.349736   -2.882171
     57          1           0       14.610388   -1.134951   -3.309719
     58          1           0       13.305274   -1.472766   -4.440548
     59          1           0       13.544110   -2.514586   -3.063367
     60          1           0       15.738636    1.068313   -3.915677
     61          1           0       14.972094    2.319218   -5.072398
     62          1           0       14.423379    0.640889   -4.935545
     63          1           0       10.425255    5.322943   -0.501686
     64          1           0        9.584826    4.822779    2.310199
     65          1           0       12.732368    4.301983    0.851576
     66          1           0       11.811463    5.139508    2.059893
     67          1           0       12.221953    5.986878    0.518544
     68          1           0        8.698681    6.639533    0.619624
     69          1           0        7.774700    5.930871    1.821509
     70          1           0        7.766356    4.590421   -0.865167
     71          1           0        6.949345    6.064704   -0.891717
     72          1           0        6.423430    4.963146    0.337524
     73          1           0        6.127004    2.124308    4.686146
     74          1           0        4.979423    0.971444    4.433348
     75          1           0        4.874728    2.502756    3.439052
     76          1           0        5.377832   -3.031796    1.297751
     77          1           0        6.524542   -6.749262    2.267784
     78          1           0        5.080275   -6.700601    3.385143
     79          1           0        6.729251   -6.152118    4.012214
     80         12           0       -8.658374    0.899320   -0.594477
     81          6           0      -10.874067   -1.902295   -0.896571
     82          6           0       -6.144863   -1.185932   -0.254529
     83          6           0       -6.950622    3.538136    0.456554
     84          6           0      -11.693025    2.977491   -0.623456
     85          7           0       -8.536069   -1.296197   -0.626627
     86          6           0       -9.548978   -2.270523   -0.727868
     87          6           0       -9.015257   -3.751514   -0.665086
     88          6           0       -7.407765   -3.411136   -0.517628
     89          6           0       -7.310924   -1.889378   -0.474298
     90          6           0       -6.773303   -4.051473    0.790761
     91          6           0       -9.410011   -4.672043   -1.872046
     92          6           0       -8.584237   -5.942679   -2.034017
     93          1           0       -9.363422   -7.249869   -1.800121
     94          7           0       -6.766838    1.150975   -0.076601
     95          6           0       -5.787756    0.188878    0.005149
     96          6           0       -4.499282    0.741817    0.365616
     97          6           0       -4.770039    2.154387    0.557863
     98          6           0       -6.229580    2.334158    0.231641
     99          6           0       -3.231305    0.029212    0.434941
    100          6           0       -3.830971    3.285142    0.940516
    101          8           0       -4.143826    4.442551    0.956133
    102          6           0       -2.466109    2.842518    1.396789
    103          7           0       -9.253264    2.962045   -0.083202
    104          6           0       -8.304481    3.853889    0.298278
    105          6           0       -8.910709    5.272985    0.464911
    106          6           0      -10.387531    5.065622   -0.020406
    107          6           0      -10.455765    3.579551   -0.315239
    108          6           0       -8.834010    5.949130    1.876131
    109          6           0      -10.825191    5.895557   -1.278533
    110          6           0      -11.129408    7.376066   -0.959550
    111          7           0      -10.812180    0.675216   -0.702508
    112          6           0      -11.858290    1.565488   -0.780456
    113          6           0      -13.048836    0.853095   -1.025155
    114          6           0      -12.768962   -0.461900   -1.026872
    115          6           0      -11.363389   -0.572929   -0.801403
    116          6           0      -14.359613    1.577976   -1.301465
    117          6           0      -13.251545   -1.844616   -1.100945
    118          8           0      -14.366210   -2.278536   -1.238239
    119          6           0      -11.994648   -2.832945   -0.989929
    120          6           0      -12.106283   -3.545804    0.319931
    121          8           0      -11.734919   -3.250391    1.433419
    122          8           0      -12.726833   -4.740979    0.014803
    123          6           0      -12.958117   -5.684694    1.134247
    124          1           0       -5.257361   -1.797269   -0.078956
    125          1           0       -6.372339    4.325303    0.946304
    126          1           0      -12.471683    3.737999   -0.717303
    127          1           0       -9.323462   -4.172857    0.291917
    128          1           0       -6.892529   -3.858998   -1.367685
    129          1           0       -5.813181   -4.503296    0.541998
    130          1           0       -7.358003   -4.767929    1.367135
    131          1           0       -6.483267   -3.268391    1.490632
    132          1           0       -9.323183   -3.953060   -2.687719
    133          1           0      -10.450285   -4.983641   -1.968580
    134          1           0       -7.753731   -5.918631   -1.329042
    135          1           0       -8.291146   -6.035408   -3.079404
    136          1           0       -2.707924    0.523168   -0.383674
    137          1           0       -3.375523   -1.043909    0.308651
    138          1           0       -2.623110    0.152197    1.330856
    139          1           0       -1.781419    2.855627    0.548880
    140          1           0       -2.489978    2.033374    2.127308
    141          1           0       -2.227137    3.564941    2.176728
    142          1           0       -8.494217    5.853803   -0.358602
    143          1           0      -11.058990    5.184648    0.830222
    144          1           0       -9.785197    6.225263    2.332131
    145          1           0       -8.368812    6.918912    1.700869
    146          1           0       -8.299019    5.381967    2.637839
    147          1           0      -11.737901    5.467617   -1.691660
    148          1           0      -10.015672    5.760339   -1.997164
    149          1           0      -11.355844    7.498372    0.099811
    150          1           0      -11.954807    7.656447   -1.613817
    151          1           0      -10.289515    8.050965   -1.127141
    152          1           0      -15.027220    0.967398   -1.909509
    153          1           0      -14.137761    2.533004   -1.777812
    154          1           0      -14.832571    1.876150   -0.365518
    155          1           0      -11.947547   -3.522261   -1.833310
    156          1           0      -13.945877   -6.109624    0.956171
    157          1           0      -12.928649   -5.225472    2.122238
    158          1           0      -12.144655   -6.384979    0.942042
 ---------------------------------------------------------------------

 SCF Done:  E(RwB97XD) =  -4070.60410194     A.U. after   19 cycles

 Excitation energies and oscillator strengths:

 Excited State   1:      Singlet-A      1.6278 eV  761.67 nm  f=0.6635  <S**2>=0.000
     309 -> 315        0.11892
     310 -> 316       -0.14174
     311 -> 313        0.42809
     312 -> 314        0.53335
 This state for optimization and/or second-order correction.
 Total Energy, E(TD-HF/TD-DFT) =  -4070.54428141
 Copying the excited state density for this state as the 1-particle RhoCI density.

 Excited State   2:      Singlet-A      1.6501 eV  751.38 nm  f=0.1439  <S**2>=0.000
     309 -> 315        0.15186
     310 -> 316        0.11730
     311 -> 313        0.53055
     312 -> 314       -0.42854

 Excited State   3:      Singlet-A      2.1320 eV  581.54 nm  f=0.0871  <S**2>=0.000
     309 -> 313        0.63875
     311 -> 315       -0.28430

 Excited State   4:      Singlet-A      2.1555 eV  575.20 nm  f=0.1459  <S**2>=0.000
     310 -> 314        0.64703
     312 -> 316        0.26843

 Excited State   5:      Singlet-A      3.4178 eV  362.76 nm  f=0.0000  <S**2>=0.000
     312 -> 313        0.70660

 The electronic state is 1-A.
 Alpha  occ. eigenvalues --  -46.96475 -46.94783 -19.30160 -19.28985 -19.25123
 Alpha  occ. eigenvalues --  -19.24739 -19.24719 -19.24055 -19.23860 -19.23824
 Alpha  occ. eigenvalues --  -14.46942 -14.46705 -14.46512 -14.45784 -14.44247
 Alpha  occ. eigenvalues --  -14.44091 -14.43535 -14.43334 -10.43135 -10.42710
 Alpha  occ. eigenvalues --  -10.39807 -10.39190 -10.38994 -10.38570 -10.35830
 Alpha  occ. eigenvalues --  -10.35288 -10.35168 -10.35110 -10.34881 -10.34844
 Alpha  occ. eigenvalues --  -10.34836 -10.34771 -10.34475 -10.34276 -10.34119
 Alpha  occ. eigenvalues --  -10.34023 -10.33988 -10.33779 -10.33632 -10.33268
 Alpha  occ. eigenvalues --  -10.33175 -10.32981 -10.32971 -10.32852 -10.32829
 Alpha  occ. eigenvalues --  -10.32771 -10.32691 -10.32467 -10.32387 -10.32231
 Alpha  occ. eigenvalues --  -10.32207 -10.32056 -10.31851 -10.31814 -10.31695
 Alpha  occ. eigenvalues --  -10.31600 -10.31509 -10.31427 -10.31089 -10.31046
 Alpha  occ. eigenvalues --  -10.30933 -10.30925 -10.30893 -10.30759 -10.30751
 Alpha  occ. eigenvalues --  -10.30726 -10.30720 -10.30701 -10.30667 -10.30583
 Alpha  occ. eigenvalues --  -10.30567 -10.30557 -10.30540 -10.30388 -10.30145
 Alpha  occ. eigenvalues --  -10.29889 -10.29635 -10.29479 -10.29426 -10.29384
 Alpha  occ. eigenvalues --  -10.29379 -10.29310 -10.29065 -10.29045 -10.28875
 Alpha  occ. eigenvalues --  -10.28627  -3.22269  -3.20773  -1.95821  -1.95391
 Alpha  occ. eigenvalues --   -1.95220  -1.94359  -1.93874  -1.93762  -1.18629
 Alpha  occ. eigenvalues --   -1.17753  -1.15244  -1.13439  -1.12937  -1.11626
 Alpha  occ. eigenvalues --   -1.10915  -1.09559  -1.06362  -1.05700  -1.05271
 Alpha  occ. eigenvalues --   -1.05217  -1.04656  -1.04384  -1.04011  -1.03495
 Alpha  occ. eigenvalues --   -0.94884  -0.93729  -0.91314  -0.90855  -0.90701
 Alpha  occ. eigenvalues --   -0.90320  -0.90013  -0.89859  -0.89441  -0.89245
 Alpha  occ. eigenvalues --   -0.88969  -0.88647  -0.88181  -0.87853  -0.85998
 Alpha  occ. eigenvalues --   -0.85742  -0.85700  -0.84978  -0.84569  -0.84049
 Alpha  occ. eigenvalues --   -0.83959  -0.83798  -0.82936  -0.82545  -0.82513
 Alpha  occ. eigenvalues --   -0.81921  -0.80399  -0.79914  -0.79208  -0.79137
 Alpha  occ. eigenvalues --   -0.78783  -0.78452  -0.77959  -0.77359  -0.76730
 Alpha  occ. eigenvalues --   -0.76642  -0.74641  -0.74462  -0.73571  -0.73161
 Alpha  occ. eigenvalues --   -0.71864  -0.71456  -0.71312  -0.70573  -0.70358
 Alpha  occ. eigenvalues --   -0.69611  -0.69067  -0.68830  -0.67072  -0.66896
 Alpha  occ. eigenvalues --   -0.66457  -0.66348  -0.66239  -0.66239  -0.66150
 Alpha  occ. eigenvalues --   -0.65780  -0.63850  -0.63358  -0.62174  -0.61926
 Alpha  occ. eigenvalues --   -0.61656  -0.61345  -0.60949  -0.60686  -0.60466
 Alpha  occ. eigenvalues --   -0.60156  -0.60133  -0.59714  -0.59521  -0.58775
 Alpha  occ. eigenvalues --   -0.58203  -0.57979  -0.57964  -0.57556  -0.57481
 Alpha  occ. eigenvalues --   -0.57129  -0.56846  -0.56676  -0.56275  -0.56129
 Alpha  occ. eigenvalues --   -0.56079  -0.55888  -0.55797  -0.55505  -0.55416
 Alpha  occ. eigenvalues --   -0.54853  -0.54493  -0.54421  -0.54197  -0.53826
 Alpha  occ. eigenvalues --   -0.53754  -0.53443  -0.53282  -0.53131  -0.53012
 Alpha  occ. eigenvalues --   -0.52899  -0.52823  -0.52667  -0.52366  -0.52333
 Alpha  occ. eigenvalues --   -0.52100  -0.51996  -0.51613  -0.51582  -0.51489
 Alpha  occ. eigenvalues --   -0.51281  -0.51222  -0.51080  -0.50947  -0.50799
 Alpha  occ. eigenvalues --   -0.50673  -0.50647  -0.50422  -0.50211  -0.49776
 Alpha  occ. eigenvalues --   -0.49766  -0.49614  -0.49537  -0.49318  -0.49195
 Alpha  occ. eigenvalues --   -0.48874  -0.48857  -0.48568  -0.48176  -0.48119
 Alpha  occ. eigenvalues --   -0.47906  -0.47719  -0.47595  -0.47555  -0.47498
 Alpha  occ. eigenvalues --   -0.47242  -0.47111  -0.47002  -0.46847  -0.46706
 Alpha  occ. eigenvalues --   -0.46671  -0.46643  -0.46543  -0.46377  -0.46158
 Alpha  occ. eigenvalues --   -0.45848  -0.45784  -0.45719  -0.45637  -0.45367
 Alpha  occ. eigenvalues --   -0.45332  -0.45108  -0.45052  -0.44998  -0.44659
 Alpha  occ. eigenvalues --   -0.44568  -0.44475  -0.44362  -0.44095  -0.43916
 Alpha  occ. eigenvalues --   -0.43877  -0.43672  -0.43576  -0.43454  -0.42951
 Alpha  occ. eigenvalues --   -0.42901  -0.42695  -0.42626  -0.42576  -0.42302
 Alpha  occ. eigenvalues --   -0.42135  -0.41243  -0.41126  -0.40951  -0.40586
 Alpha  occ. eigenvalues --   -0.40187  -0.39984  -0.39891  -0.39553  -0.39475
 Alpha  occ. eigenvalues --   -0.39135  -0.38881  -0.38414  -0.38344  -0.38092
 Alpha  occ. eigenvalues --   -0.37808  -0.37637  -0.36762  -0.36462  -0.35815
 Alpha  occ. eigenvalues --   -0.35697  -0.35515  -0.34751  -0.33872  -0.33354
 Alpha  occ. eigenvalues --   -0.33176  -0.32810  -0.32691  -0.32464  -0.32159
 Alpha  occ. eigenvalues --   -0.32153  -0.31802  -0.31659  -0.25880  -0.25385
 Alpha  occ. eigenvalues --   -0.22991  -0.22644
 Alpha virt. eigenvalues --   -0.07143  -0.06769   0.00156   0.00916   0.02322
 Alpha virt. eigenvalues --    0.03065   0.04093   0.04492   0.04847   0.05751
 Alpha virt. eigenvalues --    0.06847   0.07588   0.07628   0.08243   0.08351

 Mulliken charges:
               1
     1  Mg   0.948118
     2  C   -0.025862
     3  C   -0.065361
     4  C   -0.063796
     5  C   -0.102222
     6  N   -0.370950
     7  C   -0.015816
     8  C   -0.028290
     9  C   -0.134746
    10  C    0.098824
    11  C    0.020606
    12  C   -0.029862
    13  C   -0.123729
    14  H    0.053342
    15  N   -0.508420
    16  C    0.144600
    17  C   -0.141934
    18  C   -0.082211
    19  C    0.113206
    20  C    0.032828
    21  C    0.056649
    22  O   -0.198871
    23  C   -0.017973
    24  N   -0.306761
    25  C    0.065741
    26  C   -0.068848
    27  C   -0.048028
    28  C    0.007230
    29  C    0.036313
    30  C   -0.047744
    31  C   -0.031030
    32  N   -0.393156
    33  C    0.166153
    34  C   -0.185339
    35  C   -0.031891
    36  C    0.105917
    37  C    0.061726
    38  C    0.130371
    39  O   -0.211429
    40  C   -0.060503
    41  C    0.252963
    42  O   -0.228297
    43  O   -0.379836
    44  C    0.117928
    45  H   -0.017200
    46  H    0.026555
    47  H   -0.004925
    48  H    0.048918
    49  H    0.042202
    50  H    0.042731
    51  H    0.050355
    52  H    0.032266
    53  H    0.029634
    54  H    0.046081
    55  H    0.035258
    56  H    0.055743
    57  H    0.037480
    58  H    0.055566
    59  H    0.058462
    60  H    0.064735
    61  H    0.073928
    62  H    0.037374
    63  H    0.040178
    64  H    0.035448
    65  H    0.044185
    66  H    0.035075
    67  H    0.041612
    68  H    0.024109
    69  H    0.022700
    70  H    0.035481
    71  H    0.033749
    72  H    0.036950
    73  H    0.045973
    74  H    0.050886
    75  H    0.052357
    76  H    0.069867
    77  H    0.051642
    78  H    0.068384
    79  H    0.086629
    80  Mg   0.976633
    81  C   -0.038674
    82  C   -0.072141
    83  C   -0.068611
    84  C   -0.096513
    85  N   -0.383052
    86  C   -0.010060
    87  C   -0.026789
    88  C   -0.121426
    89  C    0.109502
    90  C   -0.013939
    91  C   -0.019323
    92  C   -0.122978
    93  H    0.029142
    94  N   -0.491555
    95  C    0.111850
    96  C   -0.135503
    97  C   -0.127977
    98  C    0.164447
    99  C    0.080872
   100  C    0.040920
   101  O   -0.208790
   102  C   -0.027681
   103  N   -0.338876
   104  C    0.031478
   105  C   -0.031789
   106  C   -0.109626
   107  C    0.026680
   108  C    0.019937
   109  C   -0.035637
   110  C   -0.029279
   111  N   -0.401378
   112  C    0.165047
   113  C   -0.242302
   114  C    0.013836
   115  C    0.138063
   116  C    0.096266
   117  C    0.119767
   118  O   -0.173507
   119  C   -0.117990
   120  C    0.284899
   121  O   -0.233068
   122  O   -0.386800
   123  C    0.128184
   124  H   -0.027920
   125  H    0.025108
   126  H    0.001517
   127  H    0.050886
   128  H    0.047516
   129  H    0.031530
   130  H    0.050446
   131  H    0.043495
   132  H    0.033468
   133  H    0.059592
   134  H    0.061366
   135  H    0.063574
   136  H    0.057366
   137  H    0.040534
   138  H    0.050205
   139  H    0.079482
   140  H    0.049229
   141  H    0.040049
   142  H    0.038503
   143  H    0.032482
   144  H    0.032575
   145  H    0.038848
   146  H    0.051969
   147  H    0.028346
   148  H    0.032519
   149  H    0.031912
   150  H    0.042540
   151  H    0.037246
   152  H    0.058404
   153  H    0.027382
   154  H    0.045576
   155  H    0.080717
   156  H    0.063462
   157  H    0.072862
   158  H    0.054956
 Sum of Mulliken charges =  -0.00000

 Dipole moment (field-independent basis, Debye):
    X=              5.7209    Y=             -1.4305    Z=             -5.8640  Tot=              8.3163
 Quadrupole moment (field-independent basis, Debye-Ang):
   XX=           -553.1873   YY=           -461.2450   ZZ=           -512.7596
   XY=            -40.9620   XZ=            -38.4555   YZ=             15.1952

 Normal termination of Gaussian 16 at Sun Sep 19 01:30:44 2021.
