 Gaussian 16, Revision A.03,
 Gaussian 16:  ES64L-G16RevA.03 25-Dec-2016

 --------------------------------
 #p wB97XD/Def2SVP td=(nstates=5)
 --------------------------------

 --------------------------------
 TDDFT excited states in gaussian
 --------------------------------
 Symbolic Z-matrix:
 Charge =  0 Multiplicity = 1

                         Standard orientation:
 ---------------------------------------------------------------------
 Center     Atomic      Atomic             Coordinates (Angstroms)
 Number     Number       Type             X           Y           Z
 ---------------------------------------------------------------------
      1         12           0       27.781763   -0.570325    0.289238
      2          6           0       26.037170    2.279123    1.307093
      3          6           0       28.405548    1.107330   -2.725856
      4          6           0       28.995816   -3.388522   -1.045986
      5          6           0       26.218768   -2.345187    2.789281
      6          7           0       27.367901    1.553247   -0.609972
      7          6           0       26.579800    2.452476    0.037109
      8          6           0       26.388908    3.753519   -0.839051
      9          6           0       26.960471    3.237426   -2.254707
     10          6           0       27.578477    1.877465   -1.888928
     11          6           0       25.725776    2.971143   -3.187241
     12          6           0       27.314773    4.869148   -0.228977
     13          6           0       27.409234    6.217179   -0.994289
     14          1           0       28.622840    7.041240   -1.306439
     15          7           0       28.748117   -0.983833   -1.519237
     16          6           0       28.962010   -0.173307   -2.646619
     17          6           0       29.629109   -0.944576   -3.609450
     18          6           0       29.975266   -2.179816   -3.078224
     19          6           0       29.240942   -2.225081   -1.824552
     20          6           0       30.039574   -0.332540   -4.908652
     21          6           0       30.782251   -3.370118   -3.693969
     22          8           0       31.037831   -4.419027   -3.112240
     23          6           0       31.521920   -3.246162   -5.028833
     24          7           0       27.515944   -2.574802    0.752215
     25          6           0       28.246840   -3.526935    0.130544
     26          6           0       28.202386   -4.897691    0.833697
     27          6           0       27.200101   -4.598699    1.982955
     28          6           0       27.037696   -3.089807    1.942122
     29          6           0       27.920902   -6.107822   -0.117601
     30          6           0       27.549689   -5.150093    3.392402
     31          6           0       28.604799   -4.441828    4.130975
     32          7           0       26.483353   -0.157958    1.823860
     33          6           0       25.947635   -0.936003    2.735586
     34          6           0       25.161517   -0.175763    3.712667
     35          6           0       25.202232    1.135128    3.138914
     36          6           0       25.970733    1.092232    1.992090
     37          6           0       24.821906   -0.519755    5.087224
     38          6           0       24.750711    2.497838    3.359758
     39          8           0       24.160467    2.992338    4.293323
     40          6           0       25.233202    3.255455    2.116842
     41          6           0       24.073590    3.931141    1.377475
     42          8           0       23.307086    3.357341    0.648250
     43          8           0       24.012940    5.255298    1.740757
     44          6           0       22.917534    5.981167    1.057543
     45          1           0       28.703840    1.683332   -3.603346
     46          1           0       29.555603   -4.280052   -1.337168
     47          1           0       25.973983   -3.092465    3.546097
     48          1           0       25.340592    4.030233   -0.954005
     49          1           0       27.659347    3.920525   -2.739067
     50          1           0       25.462116    1.928304   -3.360574
     51          1           0       25.953758    3.204962   -4.227461
     52          1           0       24.815402    3.480756   -2.872272
     53          1           0       28.307188    4.434757   -0.111567
     54          1           0       26.977187    5.034743    0.794472
     55          1           0       26.659606    6.842309   -0.508251
     56          1           0       27.069941    5.904547   -1.981059
     57          1           0       29.727690    0.700612   -5.064034
     58          1           0       29.774130   -1.030388   -5.703966
     59          1           0       31.127562   -0.302861   -4.843403
     60          1           0       30.861100   -3.142037   -5.889469
     61          1           0       32.272129   -4.016844   -5.206572
     62          1           0       32.147539   -2.357106   -4.947384
     63          1           0       29.240190   -4.914520    1.165362
     64          1           0       26.260614   -5.022694    1.628415
     65          1           0       28.296948   -5.911120   -1.121046
     66          1           0       26.844606   -6.269427   -0.182872
     67          1           0       28.414644   -7.023957    0.207125
     68          1           0       27.872394   -6.162184    3.150235
     69          1           0       26.638001   -5.260501    3.979861
     70          1           0       28.175136   -3.577869    4.637743
     71          1           0       29.432499   -4.175085    3.474102
     72          1           0       29.005464   -5.044771    4.946396
     73          1           0       25.585160   -1.237560    5.388653
     74          1           0       23.897496   -1.057014    5.299756
     75          1           0       24.839528    0.411995    5.651593
     76          1           0       25.952348    4.006077    2.446363
     77          1           0       22.520175    6.727633    1.745032
     78          1           0       22.010069    5.408996    0.863439
     79          1           0       23.289115    6.516803    0.184579
     80         12           0      -27.535987   -0.707804   -0.055195
     81          6           0      -25.618822    2.225649   -1.005622
     82          6           0      -29.271271    1.369456    1.954450
     83          6           0      -29.170224   -3.311761    0.811675
     84          6           0      -25.331860   -2.682352   -1.999379
     85          7           0      -27.435822    1.657635    0.390016
     86          6           0      -26.659928    2.597412   -0.177136
     87          6           0      -27.117908    4.001786    0.260541
     88          6           0      -27.964633    3.551990    1.540882
     89          6           0      -28.292671    2.145966    1.259725
     90          6           0      -27.454688    3.944316    2.917473
     91          6           0      -27.902088    4.648340   -0.894424
     92          6           0      -27.869161    6.204532   -0.851773
     93          1           0      -26.881600    7.032755    0.093575
     94          7           0      -29.089536   -0.967619    1.204037
     95          6           0      -29.641337   -0.011549    2.035052
     96          6           0      -30.656118   -0.663465    2.857278
     97          6           0      -30.692695   -2.027920    2.477628
     98          6           0      -29.610753   -2.136597    1.458370
     99          6           0      -31.455114    0.017969    3.877181
    100          6           0      -31.671106   -3.218500    2.968844
    101          8           0      -31.686498   -4.285844    2.419352
    102          6           0      -32.828667   -2.955442    3.948690
    103          7           0      -27.095116   -2.746723   -0.332380
    104          6           0      -28.043653   -3.613631    0.012931
    105          6           0      -27.807652   -5.018872   -0.471707
    106          6           0      -26.851254   -4.711975   -1.649926
    107          6           0      -26.286319   -3.325069   -1.186781
    108          6           0      -27.125873   -5.981943    0.608012
    109          6           0      -27.501425   -4.711442   -3.096835
    110          6           0      -28.730543   -5.618268   -3.395935
    111          7           0      -25.780442   -0.380630   -1.161500
    112          6           0      -25.032882   -1.207607   -1.933521
    113          6           0      -24.088718   -0.507910   -2.680573
    114          6           0      -24.264242    0.792108   -2.300819
    115          6           0      -25.304458    0.869263   -1.395912
    116          6           0      -23.148105   -1.103224   -3.724704
    117          6           0      -23.739672    2.137775   -2.577843
    118          8           0      -22.749480    2.541538   -3.169058
    119          6           0      -24.699243    3.117402   -1.771203
    120          6           0      -23.857729    3.991536   -0.972877
    121          8           0      -23.294464    3.713068    0.090468
    122          8           0      -23.586708    5.074009   -1.731576
    123          6           0      -22.466581    5.844485   -1.221904
    124          1           0      -29.701781    2.006493    2.729985
    125          1           0      -29.724602   -4.184646    1.161073
    126          1           0      -24.740165   -3.320510   -2.658728
    127          1           0      -26.282822    4.601723    0.622433
    128          1           0      -28.904551    4.098328    1.475248
    129          1           0      -28.106439    4.668497    3.405293
    130          1           0      -26.453057    4.367054    2.841496
    131          1           0      -27.313139    3.102885    3.595787
    132          1           0      -28.953253    4.397308   -0.750782
    133          1           0      -27.628556    4.275206   -1.881193
    134          1           0      -28.869267    6.626667   -0.748220
    135          1           0      -27.737015    6.449780   -1.905479
    136          1           0      -31.527824    1.088325    3.685604
    137          1           0      -30.941686   -0.181324    4.817962
    138          1           0      -32.484229   -0.335345    3.945548
    139          1           0      -33.607363   -2.307323    3.546672
    140          1           0      -32.338033   -2.637095    4.868752
    141          1           0      -33.280697   -3.901241    4.248557
    142          1           0      -28.813767   -5.361408   -0.712396
    143          1           0      -26.012070   -5.404494   -1.710704
    144          1           0      -27.739382   -6.877974    0.516832
    145          1           0      -27.174669   -5.615117    1.633874
    146          1           0      -26.093825   -6.265624    0.405409
    147          1           0      -26.718688   -4.907030   -3.828377
    148          1           0      -27.909021   -3.700878   -3.129164
    149          1           0      -29.654533   -5.104775   -3.131210
    150          1           0      -28.504546   -6.533027   -2.846879
    151          1           0      -28.773063   -5.923168   -4.440986
    152          1           0      -23.689991   -1.962680   -4.120125
    153          1           0      -22.227425   -1.499879   -3.297782
    154          1           0      -22.960690   -0.345787   -4.485587
    155          1           0      -25.255452    3.684794   -2.518453
    156          1           0      -22.221012    6.709701   -1.837033
    157          1           0      -21.584559    5.281166   -0.916811
    158          1           0      -22.736020    6.328704   -0.282637
 ---------------------------------------------------------------------

 SCF Done:  E(RwB97XD) =  -4070.60015261     A.U. after   19 cycles

 Excitation energies and oscillator strengths:

 Excited State   1:      Singlet-A      1.6939 eV  731.95 nm  f=0.3890  <S**2>=0.000
     309 -> 315       -0.19056
     312 -> 313        0.68142
     309 <- 315       -0.11529
 This state for optimization and/or second-order correction.
 Total Energy, E(TD-HF/TD-DFT) =  -4070.53790309
 Copying the excited state density for this state as the 1-particle RhoCI density.

 Excited State   2:      Singlet-A      1.7990 eV  689.19 nm  f=0.3713  <S**2>=0.000
     310 -> 316        0.19146
     311 -> 314        0.67946
     310 <- 316        0.11149

 Excited State   3:      Singlet-A      2.1925 eV  565.49 nm  f=0.1517  <S**2>=0.000
     310 -> 314        0.65250
     311 -> 316       -0.25642

 Excited State   4:      Singlet-A      2.2137 eV  560.08 nm  f=0.1134  <S**2>=0.000
     309 -> 313        0.64260
     312 -> 315        0.27811

 Excited State   5:      Singlet-A      3.4508 eV  359.29 nm  f=0.0475  <S**2>=0.000
     306 -> 313        0.54948
     308 -> 313       -0.31328
     312 -> 315       -0.23861

 The electronic state is 1-A.
 Alpha  occ. eigenvalues --  -46.95673 -46.95028 -19.30995 -19.30079 -19.25573
 Alpha  occ. eigenvalues --  -19.25318 -19.24476 -19.23837 -19.23829 -19.23674
 Alpha  occ. eigenvalues --  -14.46837 -14.46058 -14.45645 -14.45597 -14.44543
 Alpha  occ. eigenvalues --  -14.43765 -14.43670 -14.43179 -10.43612 -10.42006
 Alpha  occ. eigenvalues --  -10.41007 -10.40178 -10.38777 -10.38467 -10.35537
 Alpha  occ. eigenvalues --  -10.35402 -10.35106 -10.34837 -10.34828 -10.34679
 Alpha  occ. eigenvalues --  -10.34662 -10.34546 -10.34440 -10.34234 -10.33920
 Alpha  occ. eigenvalues --  -10.33718 -10.33635 -10.33549 -10.33547 -10.33543
 Alpha  occ. eigenvalues --  -10.33184 -10.32732 -10.32692 -10.32652 -10.32625
 Alpha  occ. eigenvalues --  -10.32552 -10.32336 -10.32028 -10.31980 -10.31963
 Alpha  occ. eigenvalues --  -10.31707 -10.31668 -10.31642 -10.31630 -10.31614
 Alpha  occ. eigenvalues --  -10.31547 -10.31516 -10.31505 -10.31430 -10.31415
 Alpha  occ. eigenvalues --  -10.31353 -10.31288 -10.31260 -10.31132 -10.31108
 Alpha  occ. eigenvalues --  -10.31031 -10.30990 -10.30887 -10.30494 -10.30234
 Alpha  occ. eigenvalues --  -10.30113 -10.30077 -10.29955 -10.29929 -10.29853
 Alpha  occ. eigenvalues --  -10.29852 -10.29687 -10.29438 -10.29405 -10.29345
 Alpha  occ. eigenvalues --  -10.29304 -10.29084 -10.29020 -10.28912 -10.28284
 Alpha  occ. eigenvalues --  -10.27662  -3.21626  -3.21034  -1.95216  -1.94767
 Alpha  occ. eigenvalues --   -1.94609  -1.94577  -1.94171  -1.93990  -1.18970
 Alpha  occ. eigenvalues --   -1.18626  -1.14868  -1.12632  -1.12487  -1.11621
 Alpha  occ. eigenvalues --   -1.10945  -1.08777  -1.07781  -1.07206  -1.06942
 Alpha  occ. eigenvalues --   -1.06707  -1.05781  -1.05398  -1.05338  -1.04484
 Alpha  occ. eigenvalues --   -0.95777  -0.94270  -0.91263  -0.91155  -0.90589
 Alpha  occ. eigenvalues --   -0.90494  -0.90073  -0.89935  -0.89483  -0.89440
 Alpha  occ. eigenvalues --   -0.89116  -0.88806  -0.88091  -0.87463  -0.86275
 Alpha  occ. eigenvalues --   -0.85960  -0.85495  -0.84979  -0.84281  -0.84240
 Alpha  occ. eigenvalues --   -0.83867  -0.83448  -0.82838  -0.82642  -0.82348
 Alpha  occ. eigenvalues --   -0.82044  -0.80607  -0.80483  -0.79499  -0.78711
 Alpha  occ. eigenvalues --   -0.78509  -0.78492  -0.78029  -0.77618  -0.77177
 Alpha  occ. eigenvalues --   -0.76786  -0.74691  -0.74431  -0.73740  -0.73611
 Alpha  occ. eigenvalues --   -0.71935  -0.71575  -0.71110  -0.70691  -0.70295
 Alpha  occ. eigenvalues --   -0.69551  -0.69007  -0.68795  -0.67374  -0.67317
 Alpha  occ. eigenvalues --   -0.67024  -0.66760  -0.66591  -0.66390  -0.65951
 Alpha  occ. eigenvalues --   -0.65640  -0.64459  -0.63754  -0.62854  -0.62082
 Alpha  occ. eigenvalues --   -0.61455  -0.61430  -0.61310  -0.61205  -0.60541
 Alpha  occ. eigenvalues --   -0.60351  -0.60222  -0.59832  -0.59451  -0.59323
 Alpha  occ. eigenvalues --   -0.58566  -0.58456  -0.57578  -0.57446  -0.57377
 Alpha  occ. eigenvalues --   -0.57207  -0.57124  -0.56536  -0.56502  -0.55963
 Alpha  occ. eigenvalues --   -0.55915  -0.55745  -0.55524  -0.55205  -0.55048
 Alpha  occ. eigenvalues --   -0.54929  -0.54834  -0.54575  -0.54488  -0.54160
 Alpha  occ. eigenvalues --   -0.54009  -0.53652  -0.53190  -0.53045  -0.53042
 Alpha  occ. eigenvalues --   -0.52896  -0.52614  -0.52482  -0.52387  -0.52251
 Alpha  occ. eigenvalues --   -0.51913  -0.51846  -0.51625  -0.51587  -0.51349
 Alpha  occ. eigenvalues --   -0.51144  -0.51041  -0.50880  -0.50862  -0.50718
 Alpha  occ. eigenvalues --   -0.50676  -0.50502  -0.50437  -0.50254  -0.49824
 Alpha  occ. eigenvalues --   -0.49775  -0.49412  -0.49399  -0.49294  -0.49029
 Alpha  occ. eigenvalues --   -0.48912  -0.48645  -0.48591  -0.48138  -0.48046
 Alpha  occ. eigenvalues --   -0.47881  -0.47656  -0.47617  -0.47330  -0.47253
 Alpha  occ. eigenvalues --   -0.46969  -0.46887  -0.46793  -0.46616  -0.46532
 Alpha  occ. eigenvalues --   -0.46419  -0.46328  -0.46202  -0.46101  -0.45969
 Alpha  occ. eigenvalues --   -0.45963  -0.45830  -0.45742  -0.45725  -0.45596
 Alpha  occ. eigenvalues --   -0.45242  -0.45235  -0.45162  -0.45155  -0.44877
 Alpha  occ. eigenvalues --   -0.44810  -0.44567  -0.44498  -0.44403  -0.44356
 Alpha  occ. eigenvalues --   -0.44289  -0.44197  -0.43965  -0.43786  -0.43600
 Alpha  occ. eigenvalues --   -0.43325  -0.43200  -0.42607  -0.42268  -0.42132
 Alpha  occ. eigenvalues --   -0.41609  -0.41484  -0.41207  -0.40707  -0.40578
 Alpha  occ. eigenvalues --   -0.40373  -0.40144  -0.39986  -0.39796  -0.39651
 Alpha  occ. eigenvalues --   -0.39392  -0.39297  -0.38794  -0.38637  -0.38249
 Alpha  occ. eigenvalues --   -0.37885  -0.37624  -0.36881  -0.36233  -0.36126
 Alpha  occ. eigenvalues --   -0.35642  -0.35385  -0.34670  -0.33942  -0.33725
 Alpha  occ. eigenvalues --   -0.33597  -0.33081  -0.32816  -0.32753  -0.32290
 Alpha  occ. eigenvalues --   -0.32237  -0.31569  -0.31308  -0.25707  -0.25286
 Alpha  occ. eigenvalues --   -0.23194  -0.22868
 Alpha virt. eigenvalues --   -0.06704  -0.06572   0.00619   0.00855   0.02508
 Alpha virt. eigenvalues --    0.02634   0.04374   0.04783   0.05412   0.05587
 Alpha virt. eigenvalues --    0.06779   0.07376   0.07931   0.08090   0.08660

 Mulliken charges:
               1
     1  Mg   0.973079
     2  C   -0.006501
     3  C   -0.074138
     4  C   -0.111290
     5  C   -0.060523
     6  N   -0.281976
     7  C   -0.051666
     8  C   -0.080830
     9  C   -0.121169
    10  C    0.038024
    11  C    0.009279
    12  C   -0.013374
    13  C   -0.096434
    14  H    0.058551
    15  N   -0.474705
    16  C    0.176435
    17  C   -0.164452
    18  C   -0.081392
    19  C    0.151171
    20  C    0.071153
    21  C    0.085528
    22  O   -0.233808
    23  C   -0.021602
    24  N   -0.406283
    25  C    0.075738
    26  C   -0.112198
    27  C   -0.035735
    28  C   -0.010003
    29  C    0.035612
    30  C   -0.020899
    31  C   -0.015370
    32  N   -0.411271
    33  C    0.152401
    34  C   -0.157225
    35  C   -0.070577
    36  C    0.151064
    37  C    0.070549
    38  C    0.116374
    39  O   -0.187642
    40  C   -0.074734
    41  C    0.263678
    42  O   -0.227564
    43  O   -0.360632
    44  C    0.124754
    45  H   -0.012651
    46  H    0.022394
    47  H   -0.019474
    48  H    0.047372
    49  H    0.048679
    50  H    0.042546
    51  H    0.025850
    52  H    0.050569
    53  H    0.035452
    54  H    0.032154
    55  H    0.051133
    56  H    0.036226
    57  H    0.044513
    58  H    0.048693
    59  H    0.050193
    60  H    0.058387
    61  H    0.054764
    62  H    0.041280
    63  H    0.041033
    64  H    0.042860
    65  H    0.049054
    66  H    0.031795
    67  H    0.040076
    68  H    0.022771
    69  H    0.034939
    70  H    0.032040
    71  H    0.032787
    72  H    0.035413
    73  H    0.029546
    74  H    0.041870
    75  H    0.063973
    76  H    0.079201
    77  H    0.049958
    78  H    0.069134
    79  H    0.056072
    80  Mg   0.963261
    81  C   -0.002520
    82  C   -0.069628
    83  C   -0.087014
    84  C   -0.078691
    85  N   -0.252457
    86  C   -0.062556
    87  C   -0.062085
    88  C   -0.088771
    89  C    0.000144
    90  C    0.039636
    91  C    0.010116
    92  C   -0.092273
    93  H    0.048531
    94  N   -0.472859
    95  C    0.161524
    96  C   -0.161818
    97  C   -0.088156
    98  C    0.122016
    99  C    0.059447
   100  C    0.076549
   101  O   -0.197393
   102  C   -0.024082
   103  N   -0.321569
   104  C    0.065086
   105  C   -0.102545
   106  C   -0.113655
   107  C    0.058314
   108  C    0.030266
   109  C   -0.010593
   110  C   -0.052893
   111  N   -0.409994
   112  C    0.090303
   113  C   -0.219082
   114  C   -0.051395
   115  C    0.154864
   116  C    0.095826
   117  C    0.138570
   118  O   -0.197776
   119  C   -0.093001
   120  C    0.252604
   121  O   -0.272141
   122  O   -0.331226
   123  C    0.153332
   124  H   -0.010547
   125  H    0.011913
   126  H    0.003389
   127  H    0.040487
   128  H    0.017717
   129  H    0.039844
   130  H    0.042838
   131  H    0.036631
   132  H    0.031785
   133  H    0.047992
   134  H    0.038510
   135  H    0.037334
   136  H    0.044166
   137  H    0.065945
   138  H    0.040902
   139  H    0.086367
   140  H    0.045211
   141  H    0.050803
   142  H    0.043772
   143  H    0.017540
   144  H    0.041937
   145  H    0.045911
   146  H    0.042529
   147  H    0.037400
   148  H    0.027788
   149  H    0.050437
   150  H    0.034805
   151  H    0.039868
   152  H    0.025438
   153  H    0.053069
   154  H    0.055799
   155  H    0.073306
   156  H    0.049831
   157  H    0.060903
   158  H    0.024163
 Sum of Mulliken charges =  -0.00000

 Dipole moment (field-independent basis, Debye):
    X=             -3.4393    Y=              0.9643    Z=             -1.1978  Tot=              3.7674
 Quadrupole moment (field-independent basis, Debye-Ang):
   XX=            -68.8592   YY=           -476.3610   ZZ=           -491.8703
   XY=            -11.8713   XZ=           -147.3298   YZ=            -14.2253

 Normal termination of Gaussian 16 at Sat Sep 18 18:20:45 2021.
