 Gaussian 16, Revision A.03,
 Gaussian 16:  ES64L-G16RevA.03 25-Dec-2016

 --------------------------------
 #p wB97XD/Def2SVP td=(nstates=5)
 --------------------------------

 --------------------------------
 TDDFT excited states in gaussian
 --------------------------------
 Symbolic Z-matrix:
 Charge =  0 Multiplicity = 1

                         Standard orientation:
 ---------------------------------------------------------------------
 Center     Atomic      Atomic             Coordinates (Angstroms)
 Number     Number       Type             X           Y           Z
 ---------------------------------------------------------------------
      1         12           0      -26.316952    0.230836    0.247509
      2          6           0      -23.288099   -1.444023   -0.137753
      3          6           0      -27.971035   -2.533492   -0.959696
      4          6           0      -29.134004    2.084712    0.419874
      5          6           0      -24.459954    3.161275    1.104124
      6          7           0      -25.660430   -1.682388   -0.552522
      7          6           0      -24.395031   -2.180757   -0.595191
      8          6           0      -24.384547   -3.644113   -1.055804
      9          6           0      -25.914164   -3.867489   -1.438835
     10          6           0      -26.563102   -2.578909   -0.922772
     11          6           0      -26.110692   -4.033325   -2.940914
     12          6           0      -24.016896   -4.706505    0.040463
     13          6           0      -23.384131   -5.991814   -0.425914
     14          1           0      -23.443332   -6.354696   -1.842086
     15          7           0      -28.251406   -0.199158   -0.116232
     16          6           0      -28.734318   -1.420182   -0.627969
     17          6           0      -30.170363   -1.340914   -0.568556
     18          6           0      -30.557003   -0.049708   -0.128580
     19          6           0      -29.288022    0.689986    0.080784
     20          6           0      -31.082637   -2.407147   -1.136269
     21          6           0      -31.883014    0.528720    0.138996
     22          8           0      -32.068292    1.712869    0.322921
     23          6           0      -33.174547   -0.361202    0.036575
     24          7           0      -26.806728    2.328205    0.870318
     25          6           0      -28.012580    2.809869    0.819071
     26          6           0      -28.040306    4.319214    1.205917
     27          6           0      -26.590971    4.662828    1.498025
     28          6           0      -25.843536    3.340408    1.096815
     29          6           0      -28.785046    5.172847    0.074595
     30          6           0      -26.359085    5.127888    2.951241
     31          6           0      -26.340057    6.679797    3.216020
     32          7           0      -24.404083    0.722241    0.696143
     33          6           0      -23.779122    1.949898    1.028207
     34          6           0      -22.386711    1.784674    1.204863
     35          6           0      -22.162891    0.449242    0.660159
     36          6           0      -23.447658   -0.115246    0.416915
     37          6           0      -21.383116    2.892505    1.467802
     38          6           0      -21.099199   -0.424533    0.326579
     39          8           0      -19.884457   -0.325356    0.445893
     40          6           0      -21.860136   -1.825476   -0.162596
     41          6           0      -21.264940   -2.146010   -1.502210
     42          8           0      -21.304267   -1.395538   -2.482870
     43          8           0      -20.520654   -3.362917   -1.496268
     44          6           0      -19.886132   -3.743546   -2.796946
     45          1           0      -28.428971   -3.444592   -1.352241
     46          1           0      -30.051795    2.656437    0.269791
     47          1           0      -23.847832    4.011549    1.410861
     48          1           0      -23.735151   -3.681146   -1.930738
     49          1           0      -26.341245   -4.758614   -0.979022
     50          1           0      -25.164235   -4.231188   -3.443346
     51          1           0      -26.651518   -3.200035   -3.390333
     52          1           0      -26.633846   -4.948603   -3.217916
     53          1           0      -24.925465   -4.925172    0.600437
     54          1           0      -23.397856   -4.190030    0.774371
     55          1           0      -23.927936   -6.803716    0.056484
     56          1           0      -22.332229   -5.993892   -0.140144
     57          1           0      -31.643429   -2.072247   -2.008818
     58          1           0      -31.744485   -2.743537   -0.337111
     59          1           0      -30.594388   -3.306196   -1.511989
     60          1           0      -33.418739   -0.406204   -1.025083
     61          1           0      -34.025797    0.162274    0.472043
     62          1           0      -32.980748   -1.371484    0.394893
     63          1           0      -28.659801    4.327593    2.102915
     64          1           0      -26.192132    5.378274    0.780533
     65          1           0      -28.135480    5.964691   -0.298175
     66          1           0      -29.646694    5.728818    0.444664
     67          1           0      -28.995447    4.450240   -0.714943
     68          1           0      -25.390568    4.721260    3.244450
     69          1           0      -27.120249    4.638012    3.558673
     70          1           0      -25.326312    7.033668    3.025115
     71          1           0      -26.708297    7.057441    4.170091
     72          1           0      -26.939179    7.027872    2.375271
     73          1           0      -21.419984    3.006263    2.550907
     74          1           0      -21.687316    3.825826    0.995494
     75          1           0      -20.406517    2.785705    0.993882
     76          1           0      -21.686254   -2.598267    0.587200
     77          1           0      -19.139912   -3.013458   -3.108288
     78          1           0      -20.531055   -3.908149   -3.660537
     79          1           0      -19.372618   -4.649285   -2.474398
     80         12           0       26.482381   -0.114652   -0.165814
     81          6           0       23.023330    0.083015    0.215563
     82          6           0       26.296205    2.223728   -2.692056
     83          6           0       29.750981   -0.381041   -0.282397
     84          6           0       26.638551   -1.687822    3.117978
     85          7           0       24.733559    0.993135   -1.171327
     86          6           0       23.409660    0.945158   -0.835745
     87          6           0       22.598088    1.792680   -1.749964
     88          6           0       23.669290    2.515779   -2.660126
     89          6           0       25.033863    1.888344   -2.174240
     90          6           0       23.366782    2.468924   -4.179053
     91          6           0       21.702284    2.808170   -0.999798
     92          6           0       20.254137    2.707987   -1.475920
     93          1           0       19.559019    4.021434   -1.945681
     94          7           0       27.839953    0.780903   -1.358884
     95          6           0       27.593723    1.691561   -2.385333
     96          6           0       28.891033    1.944074   -2.999059
     97          6           0       29.935704    1.154996   -2.326643
     98          6           0       29.184284    0.388652   -1.282919
     99          6           0       29.096946    2.970046   -3.997469
    100          6           0       31.367927    1.331922   -2.619353
    101          8           0       31.803654    2.076974   -3.471979
    102          6           0       32.460517    0.691454   -1.836466
    103          7           0       27.907622   -0.857068    1.205852
    104          6           0       29.184273   -1.099925    0.766260
    105          6           0       29.996320   -1.758018    1.861757
    106          6           0       29.116398   -1.697402    3.053933
    107          6           0       27.834280   -1.339028    2.485319
    108          6           0       30.588403   -3.180835    1.497275
    109          6           0       29.502385   -0.549298    4.048557
    110          6           0       29.204081   -0.776164    5.458290
    111          7           0       25.133161   -0.735609    1.386146
    112          6           0       25.319367   -1.405142    2.602680
    113          6           0       24.050801   -1.849428    3.088707
    114          6           0       23.120698   -1.270137    2.233686
    115          6           0       23.833967   -0.550697    1.209573
    116          6           0       23.875306   -2.691746    4.298044
    117          6           0       21.742810   -1.085991    2.005405
    118          8           0       20.787874   -1.498881    2.624800
    119          6           0       21.618480   -0.274701    0.696453
    120          6           0       20.804080   -1.035494   -0.264487
    121          8           0       21.228378   -1.904048   -1.045247
    122          8           0       19.472072   -0.756774   -0.060665
    123          6           0       18.462847   -1.307490   -0.950579
    124          1           0       26.154845    2.918257   -3.522116
    125          1           0       30.830049   -0.510409   -0.167343
    126          1           0       26.732508   -2.184306    4.086056
    127          1           0       22.156342    1.082039   -2.449066
    128          1           0       23.738486    3.588558   -2.482606
    129          1           0       22.302194    2.232378   -4.195307
    130          1           0       23.993631    1.812274   -4.782446
    131          1           0       23.496560    3.460237   -4.612600
    132          1           0       21.944965    3.850741   -1.204524
    133          1           0       21.809567    2.581192    0.060741
    134          1           0       19.777122    2.458963   -0.528119
    135          1           0       20.204075    1.883182   -2.185226
    136          1           0       28.129406    3.419349   -4.222304
    137          1           0       29.448313    2.626413   -4.970843
    138          1           0       29.741352    3.748237   -3.586983
    139          1           0       32.075884   -0.328054   -1.808251
    140          1           0       32.480724    1.134397   -0.840379
    141          1           0       33.412398    0.748700   -2.364874
    142          1           0       30.860168   -1.100498    1.952209
    143          1           0       28.910029   -2.627536    3.583526
    144          1           0       30.467001   -3.383742    0.433067
    145          1           0       30.261524   -3.994925    2.145140
    146          1           0       31.676815   -3.214693    1.536568
    147          1           0       29.034589    0.379234    3.721075
    148          1           0       30.573491   -0.351654    4.009538
    149          1           0       30.042865   -1.306780    5.910141
    150          1           0       28.262163   -1.306512    5.602216
    151          1           0       29.270407    0.166314    6.002786
    152          1           0       24.659940   -3.444702    4.371008
    153          1           0       22.893815   -3.160194    4.372808
    154          1           0       24.077504   -2.003268    5.118595
    155          1           0       21.009216    0.622093    0.809752
    156          1           0       18.227509   -2.370241   -0.892417
    157          1           0       18.703153   -1.042912   -1.980114
    158          1           0       17.539511   -0.829270   -0.625802
 ---------------------------------------------------------------------

 SCF Done:  E(RwB97XD) =  -4070.60876265     A.U. after   19 cycles

 Excitation energies and oscillator strengths:

 Excited State   1:      Singlet-A      1.6144 eV  768.00 nm  f=0.3689  <S**2>=0.000
     309 -> 315       -0.19430
     312 -> 313        0.68134
     309 <- 315       -0.12116
 This state for optimization and/or second-order correction.
 Total Energy, E(TD-HF/TD-DFT) =  -4070.54943515
 Copying the excited state density for this state as the 1-particle RhoCI density.

 Excited State   2:      Singlet-A      1.6919 eV  732.82 nm  f=0.3716  <S**2>=0.000
     310 -> 316        0.17800
     311 -> 314        0.68410
     310 <- 316        0.11255

 Excited State   3:      Singlet-A      2.1298 eV  582.14 nm  f=0.0996  <S**2>=0.000
     309 -> 313        0.63363
     312 -> 315        0.29998

 Excited State   4:      Singlet-A      2.1733 eV  570.48 nm  f=0.1431  <S**2>=0.000
     310 -> 314        0.64713
     311 -> 316       -0.26329

 Excited State   5:      Singlet-A      3.2695 eV  379.22 nm  f=0.0024  <S**2>=0.000
     304 -> 313       -0.24663
     306 -> 313        0.52424
     308 -> 313        0.35187

 The electronic state is 1-A.
 Alpha  occ. eigenvalues --  -46.95265 -46.94336 -19.30074 -19.29354 -19.24374
 Alpha  occ. eigenvalues --  -19.24359 -19.24295 -19.23378 -19.23205 -19.22388
 Alpha  occ. eigenvalues --  -14.47285 -14.46906 -14.46530 -14.46247 -14.44892
 Alpha  occ. eigenvalues --  -14.44855 -14.43907 -14.43743 -10.42920 -10.42905
 Alpha  occ. eigenvalues --  -10.39514 -10.38301 -10.38180 -10.37633 -10.35881
 Alpha  occ. eigenvalues --  -10.35706 -10.35660 -10.35632 -10.35568 -10.35381
 Alpha  occ. eigenvalues --  -10.35339 -10.35129 -10.35064 -10.34913 -10.34869
 Alpha  occ. eigenvalues --  -10.34835 -10.34670 -10.34439 -10.33971 -10.33871
 Alpha  occ. eigenvalues --  -10.33077 -10.32941 -10.32811 -10.32785 -10.32690
 Alpha  occ. eigenvalues --  -10.32684 -10.32408 -10.32395 -10.32355 -10.32253
 Alpha  occ. eigenvalues --  -10.32202 -10.32185 -10.32056 -10.32056 -10.32050
 Alpha  occ. eigenvalues --  -10.31997 -10.31868 -10.31838 -10.31836 -10.31783
 Alpha  occ. eigenvalues --  -10.31666 -10.31521 -10.31503 -10.31391 -10.31323
 Alpha  occ. eigenvalues --  -10.31304 -10.31185 -10.31104 -10.30805 -10.30782
 Alpha  occ. eigenvalues --  -10.30654 -10.30462 -10.30340 -10.30312 -10.30283
 Alpha  occ. eigenvalues --  -10.30280 -10.30073 -10.29884 -10.29739 -10.29680
 Alpha  occ. eigenvalues --  -10.29606 -10.29344 -10.29045 -10.28768 -10.28733
 Alpha  occ. eigenvalues --  -10.28495  -3.21203  -3.20445  -1.94795  -1.94334
 Alpha  occ. eigenvalues --   -1.94159  -1.94054  -1.93567  -1.93436  -1.17605
 Alpha  occ. eigenvalues --   -1.15564  -1.13419  -1.12267  -1.12042  -1.10800
 Alpha  occ. eigenvalues --   -1.08876  -1.07998  -1.07203  -1.06968  -1.05946
 Alpha  occ. eigenvalues --   -1.05797  -1.05395  -1.04988  -1.04542  -1.03610
 Alpha  occ. eigenvalues --   -0.94615  -0.94031  -0.92632  -0.91437  -0.91218
 Alpha  occ. eigenvalues --   -0.90973  -0.90840  -0.90352  -0.89789  -0.89627
 Alpha  occ. eigenvalues --   -0.89405  -0.89169  -0.88253  -0.88189  -0.87148
 Alpha  occ. eigenvalues --   -0.86433  -0.86239  -0.85355  -0.84882  -0.84481
 Alpha  occ. eigenvalues --   -0.84142  -0.83448  -0.83358  -0.82770  -0.82334
 Alpha  occ. eigenvalues --   -0.81979  -0.80799  -0.80572  -0.79895  -0.79179
 Alpha  occ. eigenvalues --   -0.79047  -0.78767  -0.78222  -0.77793  -0.77322
 Alpha  occ. eigenvalues --   -0.76998  -0.75382  -0.75114  -0.74007  -0.73607
 Alpha  occ. eigenvalues --   -0.71566  -0.71299  -0.71012  -0.70907  -0.69949
 Alpha  occ. eigenvalues --   -0.69924  -0.69454  -0.69311  -0.68390  -0.67873
 Alpha  occ. eigenvalues --   -0.67719  -0.67271  -0.67183  -0.66964  -0.66674
 Alpha  occ. eigenvalues --   -0.66614  -0.63998  -0.63380  -0.62698  -0.62429
 Alpha  occ. eigenvalues --   -0.61601  -0.61456  -0.61434  -0.61330  -0.60956
 Alpha  occ. eigenvalues --   -0.60539  -0.59912  -0.59740  -0.59361  -0.59310
 Alpha  occ. eigenvalues --   -0.58381  -0.58284  -0.57801  -0.57398  -0.57118
 Alpha  occ. eigenvalues --   -0.57001  -0.56563  -0.56347  -0.56151  -0.55953
 Alpha  occ. eigenvalues --   -0.55380  -0.55150  -0.55125  -0.54888  -0.54728
 Alpha  occ. eigenvalues --   -0.54473  -0.54438  -0.54277  -0.54225  -0.54215
 Alpha  occ. eigenvalues --   -0.54012  -0.53952  -0.53661  -0.53569  -0.53486
 Alpha  occ. eigenvalues --   -0.53196  -0.53169  -0.52899  -0.52508  -0.52340
 Alpha  occ. eigenvalues --   -0.52138  -0.51944  -0.51772  -0.51646  -0.51600
 Alpha  occ. eigenvalues --   -0.51490  -0.51331  -0.51207  -0.51039  -0.51005
 Alpha  occ. eigenvalues --   -0.50757  -0.50578  -0.50465  -0.50391  -0.50303
 Alpha  occ. eigenvalues --   -0.50056  -0.49599  -0.49496  -0.49422  -0.49201
 Alpha  occ. eigenvalues --   -0.49067  -0.49061  -0.48925  -0.48842  -0.48702
 Alpha  occ. eigenvalues --   -0.48614  -0.48550  -0.48226  -0.48151  -0.47751
 Alpha  occ. eigenvalues --   -0.47652  -0.47222  -0.47036  -0.46937  -0.46867
 Alpha  occ. eigenvalues --   -0.46655  -0.46500  -0.46499  -0.46443  -0.46227
 Alpha  occ. eigenvalues --   -0.46083  -0.45957  -0.45814  -0.45571  -0.45397
 Alpha  occ. eigenvalues --   -0.45282  -0.45146  -0.44966  -0.44948  -0.44842
 Alpha  occ. eigenvalues --   -0.44819  -0.44568  -0.44505  -0.44446  -0.43969
 Alpha  occ. eigenvalues --   -0.43925  -0.43759  -0.43632  -0.43517  -0.43459
 Alpha  occ. eigenvalues --   -0.43351  -0.43185  -0.43067  -0.42688  -0.42570
 Alpha  occ. eigenvalues --   -0.42175  -0.42150  -0.41777  -0.41327  -0.41093
 Alpha  occ. eigenvalues --   -0.40548  -0.40429  -0.39806  -0.39632  -0.39282
 Alpha  occ. eigenvalues --   -0.39247  -0.39050  -0.38966  -0.38351  -0.38279
 Alpha  occ. eigenvalues --   -0.38105  -0.37770  -0.36455  -0.36329  -0.35912
 Alpha  occ. eigenvalues --   -0.35717  -0.35549  -0.35181  -0.33851  -0.33581
 Alpha  occ. eigenvalues --   -0.33162  -0.32750  -0.32643  -0.32024  -0.31747
 Alpha  occ. eigenvalues --   -0.31673  -0.31594  -0.31522  -0.26211  -0.26143
 Alpha  occ. eigenvalues --   -0.23387  -0.23358
 Alpha virt. eigenvalues --   -0.07501  -0.07417  -0.00579   0.00253   0.02241
 Alpha virt. eigenvalues --    0.02333   0.04481   0.04489   0.05853   0.06514
 Alpha virt. eigenvalues --    0.06842   0.06898   0.07472   0.07888   0.07956

 Mulliken charges:
               1
     1  Mg   0.981163
     2  C   -0.071213
     3  C   -0.108080
     4  C   -0.077285
     5  C   -0.077034
     6  N   -0.334099
     7  C    0.003415
     8  C   -0.040046
     9  C   -0.140288
    10  C    0.072963
    11  C    0.018702
    12  C    0.018246
    13  C   -0.105808
    14  H    0.036523
    15  N   -0.531767
    16  C    0.234374
    17  C   -0.151096
    18  C   -0.045569
    19  C    0.152433
    20  C    0.051981
    21  C    0.017204
    22  O   -0.224856
    23  C   -0.005330
    24  N   -0.321135
    25  C    0.055835
    26  C   -0.094109
    27  C   -0.043687
    28  C    0.027594
    29  C    0.014749
    30  C   -0.005385
    31  C   -0.042800
    32  N   -0.449087
    33  C    0.125024
    34  C   -0.138792
    35  C   -0.084674
    36  C    0.187741
    37  C    0.059618
    38  C    0.113484
    39  O   -0.211575
    40  C   -0.083676
    41  C    0.288665
    42  O   -0.260482
    43  O   -0.404780
    44  C    0.141026
    45  H    0.004079
    46  H    0.032106
    47  H    0.000449
    48  H    0.043802
    49  H    0.038833
    50  H    0.033328
    51  H    0.049260
    52  H    0.023054
    53  H    0.024371
    54  H    0.025356
    55  H    0.048831
    56  H    0.067401
    57  H    0.063479
    58  H    0.049947
    59  H    0.030832
    60  H    0.053332
    61  H    0.056013
    62  H    0.038226
    63  H    0.048287
    64  H    0.027363
    65  H    0.030046
    66  H    0.045670
    67  H    0.051200
    68  H    0.026161
    69  H    0.026671
    70  H    0.037037
    71  H    0.054572
    72  H    0.027398
    73  H    0.054149
    74  H    0.037474
    75  H    0.064157
    76  H    0.072243
    77  H    0.058592
    78  H    0.054415
    79  H    0.053780
    80  Mg   0.953547
    81  C    0.048241
    82  C   -0.057451
    83  C   -0.121964
    84  C   -0.096213
    85  N   -0.342831
    86  C   -0.024052
    87  C   -0.029548
    88  C   -0.145902
    89  C    0.045726
    90  C    0.012177
    91  C    0.023728
    92  C   -0.137367
    93  H    0.039271
    94  N   -0.537516
    95  C    0.202057
    96  C   -0.171484
    97  C   -0.063925
    98  C    0.269847
    99  C    0.097400
   100  C   -0.011578
   101  O   -0.239015
   102  C    0.006782
   103  N   -0.368881
   104  C    0.069683
   105  C   -0.083372
   106  C   -0.081680
   107  C    0.063001
   108  C    0.032040
   109  C    0.003073
   110  C   -0.018640
   111  N   -0.407082
   112  C    0.111820
   113  C   -0.185365
   114  C   -0.015240
   115  C    0.112757
   116  C    0.089672
   117  C    0.108531
   118  O   -0.187571
   119  C   -0.127682
   120  C    0.253673
   121  O   -0.269060
   122  O   -0.361185
   123  C    0.148980
   124  H    0.001506
   125  H   -0.005782
   126  H   -0.002770
   127  H    0.049542
   128  H    0.042584
   129  H    0.038458
   130  H    0.051690
   131  H    0.032382
   132  H    0.051893
   133  H    0.051972
   134  H    0.064276
   135  H    0.053289
   136  H    0.001050
   137  H    0.057464
   138  H    0.064866
   139  H    0.039562
   140  H    0.062485
   141  H    0.058182
   142  H    0.032779
   143  H    0.027075
   144  H    0.034024
   145  H    0.045450
   146  H    0.027800
   147  H    0.039422
   148  H    0.019975
   149  H    0.027106
   150  H    0.029241
   151  H    0.034563
   152  H    0.036167
   153  H    0.067959
   154  H    0.051125
   155  H    0.050936
   156  H    0.058155
   157  H    0.047286
   158  H    0.050891
 Sum of Mulliken charges =  -0.00000

 Dipole moment (field-independent basis, Debye):
    X=             -3.6859    Y=             -2.4822    Z=              1.1213  Tot=              4.5831
 Quadrupole moment (field-independent basis, Debye-Ang):
   XX=           -208.2878   YY=           -470.4770   ZZ=           -504.7130
   XY=             68.7124   XZ=             86.7419   YZ=              9.3813

 Normal termination of Gaussian 16 at Mon Sep 20 10:31:26 2021.
