 Gaussian 16, Revision A.03,
 Gaussian 16:  ES64L-G16RevA.03 25-Dec-2016

 --------------------------------
 #p wB97XD/Def2SVP td=(nstates=5)
 --------------------------------

 --------------------------------
 TDDFT excited states in gaussian
 --------------------------------
 Symbolic Z-matrix:
 Charge =  0 Multiplicity = 1

                         Standard orientation:
 ---------------------------------------------------------------------
 Center     Atomic      Atomic             Coordinates (Angstroms)
 Number     Number       Type             X           Y           Z
 ---------------------------------------------------------------------
      1         12           0       24.779590   -0.846517    0.068805
      2          6           0       24.635066    2.465799   -1.131963
      3          6           0       25.146602    0.407760    3.247406
      4          6           0       25.005297   -3.969632    1.283602
      5          6           0       24.984966   -2.051634   -3.209716
      6          7           0       24.733392    1.189194    0.865693
      7          6           0       24.666104    2.392439    0.303143
      8          6           0       24.682452    3.602861    1.259793
      9          6           0       25.142332    2.803668    2.573572
     10          6           0       25.044431    1.347739    2.188423
     11          6           0       26.527417    3.166363    3.051404
     12          6           0       23.239752    4.334858    1.439688
     13          6           0       23.359596    5.812040    1.825717
     14          1           0       22.738350    6.789359    0.794810
     15          7           0       24.878873   -1.713920    2.041540
     16          6           0       25.077322   -0.972087    3.232293
     17          6           0       24.882260   -1.890838    4.331191
     18          6           0       24.814600   -3.173073    3.793707
     19          6           0       24.877508   -3.016936    2.306610
     20          6           0       24.993272   -1.497530    5.792159
     21          6           0       24.634491   -4.525463    4.444371
     22          8           0       24.522799   -5.502328    3.762765
     23          6           0       24.514020   -4.684616    5.927171
     24          7           0       25.166455   -2.722149   -0.801494
     25          6           0       25.141814   -3.889587   -0.095659
     26          6           0       25.249181   -5.034207   -1.141160
     27          6           0       24.686210   -4.476776   -2.436251
     28          6           0       24.966417   -2.974773   -2.194916
     29          6           0       26.719513   -5.397178   -1.344183
     30          6           0       23.260804   -4.804977   -2.686271
     31          6           0       22.260321   -4.626562   -1.571243
     32          7           0       24.776276   -0.025257   -1.820177
     33          6           0       24.874187   -0.608461   -3.069484
     34          6           0       24.803901    0.446986   -4.091837
     35          6           0       24.685434    1.644109   -3.364555
     36          6           0       24.673035    1.313280   -2.037010
     37          6           0       24.897557    0.261159   -5.544642
     38          6           0       24.429867    3.056793   -3.453477
     39          8           0       24.250188    3.804473   -4.459290
     40          6           0       24.360064    3.621600   -1.956424
     41          6           0       25.469446    4.633625   -1.832320
     42          8           0       26.587466    4.419582   -2.196897
     43          8           0       25.117990    5.853081   -1.192529
     44          6           0       26.271643    6.709779   -0.781462
     45          1           0       25.316035    0.785750    4.257212
     46          1           0       25.179817   -4.989932    1.632472
     47          1           0       24.868832   -2.365456   -4.249435
     48          1           0       25.359844    4.369072    0.880689
     49          1           0       24.401234    3.087061    3.321963
     50          1           0       26.389907    3.895140    3.850038
     51          1           0       27.183965    3.488349    2.242813
     52          1           0       26.865460    2.269782    3.570888
     53          1           0       22.668462    3.838036    2.224454
     54          1           0       22.638559    4.224873    0.536926
     55          1           0       24.437809    5.915086    1.949676
     56          1           0       22.957431    6.010976    2.818906
     57          1           0       24.861112   -0.416244    5.787665
     58          1           0       26.039263   -1.704207    6.016828
     59          1           0       24.228118   -1.968136    6.409885
     60          1           0       23.519703   -4.261104    6.069879
     61          1           0       25.231225   -4.103732    6.506446
     62          1           0       24.564425   -5.739083    6.200735
     63          1           0       24.766155   -5.968955   -0.858613
     64          1           0       25.171839   -4.828969   -3.345714
     65          1           0       27.249384   -5.036465   -2.225845
     66          1           0       26.787730   -6.484975   -1.337980
     67          1           0       27.272294   -5.056468   -0.467971
     68          1           0       23.139114   -5.813155   -3.083046
     69          1           0       22.975756   -4.126635   -3.490232
     70          1           0       21.623111   -3.797056   -1.879153
     71          1           0       22.537018   -4.410931   -0.538807
     72          1           0       21.618873   -5.507447   -1.550343
     73          1           0       25.922355   -0.022601   -5.783927
     74          1           0       24.582138    1.223256   -5.948191
     75          1           0       24.271970   -0.565981   -5.882858
     76          1           0       23.344578    4.005818   -1.858402
     77          1           0       26.674715    7.240283   -1.644075
     78          1           0       27.076823    6.147385   -0.306511
     79          1           0       26.037765    7.534376   -0.108689
     80         12           0      -25.276403   -0.372070   -0.171491
     81          6           0      -23.123124    2.251479   -0.398367
     82          6           0      -27.197389    1.320202    2.126969
     83          6           0      -27.228447   -3.126017    0.085554
     84          6           0      -23.027689   -2.242940   -2.155146
     85          7           0      -25.039639    1.496426    0.927075
     86          6           0      -24.278542    2.500082    0.414772
     87          6           0      -24.640655    3.847518    0.940899
     88          6           0      -25.818728    3.427113    1.963850
     89          6           0      -26.055703    1.981823    1.671412
     90          6           0      -25.422975    3.664600    3.491270
     91          6           0      -25.183016    4.744806   -0.267224
     92          6           0      -25.113461    6.264159   -0.098879
     93          1           0      -24.854626    6.984131    1.248023
     94          7           0      -27.034897   -0.852033    0.854050
     95          6           0      -27.657937   -0.003570    1.783791
     96          6           0      -28.802838   -0.715003    2.303180
     97          6           0      -28.840959   -1.988440    1.699634
     98          6           0      -27.692110   -1.990097    0.804446
     99          6           0      -29.777087   -0.043572    3.299088
    100          6           0      -29.865752   -3.199926    2.013833
    101          8           0      -29.909273   -4.231933    1.332266
    102          6           0      -30.890775   -3.183396    3.135790
    103          7           0      -25.151507   -2.414361   -1.016142
    104          6           0      -26.085483   -3.342664   -0.699077
    105          6           0      -25.656027   -4.740406   -1.141817
    106          6           0      -24.434880   -4.395550   -2.174462
    107          6           0      -24.212550   -2.903804   -1.879706
    108          6           0      -25.353461   -5.786740    0.026196
    109          6           0      -24.778364   -4.481147   -3.747440
    110          6           0      -23.860242   -5.249995   -4.679681
    111          7           0      -23.458757   -0.116881   -1.168428
    112          6           0      -22.669700   -0.922378   -1.900806
    113          6           0      -21.508717   -0.144322   -2.435934
    114          6           0      -21.721952    1.139503   -1.880244
    115          6           0      -22.849154    1.033692   -1.029260
    116          6           0      -20.409449   -0.539130   -3.357505
    117          6           0      -21.136462    2.427491   -1.868703
    118          8           0      -20.115631    2.855034   -2.445837
    119          6           0      -22.016436    3.214039   -0.900456
    120          6           0      -21.203085    3.669765    0.203606
    121          8           0      -20.505929    3.066723    0.958214
    122          8           0      -21.461526    5.030594    0.338520
    123          6           0      -20.839587    5.865539    1.436444
    124          1           0      -27.967685    1.865172    2.675894
    125          1           0      -27.807876   -4.037379    0.249334
    126          1           0      -22.203020   -2.801138   -2.601896
    127          1           0      -23.914110    4.472550    1.459720
    128          1           0      -26.731193    3.991157    1.770646
    129          1           0      -26.229656    3.992849    4.146314
    130          1           0      -24.540759    4.303055    3.535278
    131          1           0      -25.113029    2.693912    3.879678
    132          1           0      -26.217458    4.502761   -0.511815
    133          1           0      -24.574472    4.459516   -1.125728
    134          1           0      -26.048621    6.645446   -0.510949
    135          1           0      -24.359135    6.652855   -0.781932
    136          1           0      -29.548820    0.999944    3.515637
    137          1           0      -29.758280   -0.647671    4.205574
    138          1           0      -30.777428   -0.133177    2.874915
    139          1           0      -31.619082   -2.434922    2.825809
    140          1           0      -30.515366   -2.699723    4.037805
    141          1           0      -31.185660   -4.199405    3.397425
    142          1           0      -26.465279   -5.158543   -1.741649
    143          1           0      -23.572536   -5.035344   -1.986012
    144          1           0      -24.333722   -6.167235   -0.037170
    145          1           0      -26.067846   -6.608260   -0.013320
    146          1           0      -25.406193   -5.300424    1.000560
    147          1           0      -24.952782   -3.495379   -4.178399
    148          1           0      -25.764985   -4.938766   -3.813441
    149          1           0      -23.549516   -4.548513   -5.453155
    150          1           0      -24.329591   -6.137205   -5.103826
    151          1           0      -22.947230   -5.525399   -4.149941
    152          1           0      -20.490348   -1.547409   -3.763286
    153          1           0      -19.443890   -0.492687   -2.853210
    154          1           0      -20.395388    0.161220   -4.192377
    155          1           0      -22.481173    4.078571   -1.375381
    156          1           0      -20.237854    5.238942    2.095127
    157          1           0      -21.626023    6.296050    2.057789
    158          1           0      -20.233687    6.612040    0.922976
 ---------------------------------------------------------------------

 SCF Done:  E(RwB97XD) =  -4070.60394923     A.U. after   20 cycles

 Excitation energies and oscillator strengths:

 Excited State   1:      Singlet-A      1.6527 eV  750.21 nm  f=0.3668  <S**2>=0.000
     309 -> 316       -0.17781
     311 -> 313        0.68543
     309 <- 316       -0.11379
 This state for optimization and/or second-order correction.
 Total Energy, E(TD-HF/TD-DFT) =  -4070.54321534
 Copying the excited state density for this state as the 1-particle RhoCI density.

 Excited State   2:      Singlet-A      1.6817 eV  737.25 nm  f=0.3968  <S**2>=0.000
     310 -> 315        0.19777
     312 -> 314        0.68063
     310 <- 315        0.11935

 Excited State   3:      Singlet-A      2.1346 eV  580.83 nm  f=0.1149  <S**2>=0.000
     309 -> 313        0.64472
     311 -> 316        0.27147

 Excited State   4:      Singlet-A      2.1740 eV  570.32 nm  f=0.0991  <S**2>=0.000
     310 -> 314        0.63669
     312 -> 315       -0.29862

 Excited State   5:      Singlet-A      3.3778 eV  367.06 nm  f=0.0300  <S**2>=0.000
     299 -> 313       -0.15938
     305 -> 313        0.38386
     307 -> 313       -0.36659
     308 -> 313        0.34734
     311 -> 316        0.19118

 The electronic state is 1-A.
 Alpha  occ. eigenvalues --  -46.95735 -46.94936 -19.29696 -19.28939 -19.24918
 Alpha  occ. eigenvalues --  -19.24532 -19.24213 -19.24132 -19.23904 -19.23256
 Alpha  occ. eigenvalues --  -14.48018 -14.47048 -14.46278 -14.45913 -14.44322
 Alpha  occ. eigenvalues --  -14.44135 -14.43991 -14.43606 -10.43219 -10.42491
 Alpha  occ. eigenvalues --  -10.40223 -10.39166 -10.38736 -10.38536 -10.35928
 Alpha  occ. eigenvalues --  -10.35801 -10.35668 -10.35433 -10.35348 -10.35082
 Alpha  occ. eigenvalues --  -10.35045 -10.34735 -10.34675 -10.34666 -10.34499
 Alpha  occ. eigenvalues --  -10.34213 -10.34045 -10.33894 -10.33729 -10.33643
 Alpha  occ. eigenvalues --  -10.33326 -10.33065 -10.32993 -10.32938 -10.32803
 Alpha  occ. eigenvalues --  -10.32762 -10.32501 -10.32388 -10.32346 -10.32333
 Alpha  occ. eigenvalues --  -10.32302 -10.32302 -10.32294 -10.32292 -10.32232
 Alpha  occ. eigenvalues --  -10.32171 -10.32027 -10.32018 -10.31868 -10.31685
 Alpha  occ. eigenvalues --  -10.31602 -10.31434 -10.31407 -10.31316 -10.31158
 Alpha  occ. eigenvalues --  -10.31131 -10.31123 -10.30686 -10.30599 -10.30523
 Alpha  occ. eigenvalues --  -10.30482 -10.30474 -10.30285 -10.30121 -10.30049
 Alpha  occ. eigenvalues --  -10.30029 -10.29961 -10.29919 -10.29647 -10.29275
 Alpha  occ. eigenvalues --  -10.29167 -10.28943 -10.28901 -10.28839 -10.28372
 Alpha  occ. eigenvalues --  -10.28253  -3.21591  -3.20869  -1.95201  -1.94695
 Alpha  occ. eigenvalues --   -1.94571  -1.94483  -1.93970  -1.93856  -1.17792
 Alpha  occ. eigenvalues --   -1.17714  -1.14364  -1.11721  -1.10599  -1.09551
 Alpha  occ. eigenvalues --   -1.09423  -1.08828  -1.07627  -1.07303  -1.06475
 Alpha  occ. eigenvalues --   -1.05616  -1.05591  -1.04903  -1.04652  -1.03743
 Alpha  occ. eigenvalues --   -0.95518  -0.94900  -0.91977  -0.91304  -0.90753
 Alpha  occ. eigenvalues --   -0.90545  -0.90134  -0.89794  -0.89437  -0.88994
 Alpha  occ. eigenvalues --   -0.88832  -0.88795  -0.88163  -0.88091  -0.86596
 Alpha  occ. eigenvalues --   -0.86279  -0.85405  -0.85357  -0.84570  -0.84410
 Alpha  occ. eigenvalues --   -0.84253  -0.83523  -0.83133  -0.83028  -0.82272
 Alpha  occ. eigenvalues --   -0.81851  -0.80912  -0.80374  -0.79407  -0.79239
 Alpha  occ. eigenvalues --   -0.79063  -0.78986  -0.78194  -0.78130  -0.77109
 Alpha  occ. eigenvalues --   -0.76923  -0.74609  -0.74413  -0.73961  -0.73292
 Alpha  occ. eigenvalues --   -0.71590  -0.71282  -0.70830  -0.70567  -0.70163
 Alpha  occ. eigenvalues --   -0.69803  -0.69080  -0.67966  -0.67766  -0.67253
 Alpha  occ. eigenvalues --   -0.67168  -0.66945  -0.66517  -0.66251  -0.66188
 Alpha  occ. eigenvalues --   -0.65318  -0.63842  -0.63738  -0.62469  -0.62402
 Alpha  occ. eigenvalues --   -0.61893  -0.61892  -0.61179  -0.61135  -0.60940
 Alpha  occ. eigenvalues --   -0.60805  -0.60523  -0.60441  -0.59742  -0.59578
 Alpha  occ. eigenvalues --   -0.58405  -0.58022  -0.57741  -0.57515  -0.57240
 Alpha  occ. eigenvalues --   -0.56688  -0.56428  -0.56147  -0.55989  -0.55926
 Alpha  occ. eigenvalues --   -0.55707  -0.55660  -0.55584  -0.54971  -0.54961
 Alpha  occ. eigenvalues --   -0.54901  -0.54708  -0.54341  -0.54115  -0.54082
 Alpha  occ. eigenvalues --   -0.53795  -0.53610  -0.53597  -0.53555  -0.53433
 Alpha  occ. eigenvalues --   -0.53352  -0.52764  -0.52730  -0.52608  -0.52485
 Alpha  occ. eigenvalues --   -0.52183  -0.51896  -0.51730  -0.51611  -0.51610
 Alpha  occ. eigenvalues --   -0.51527  -0.51370  -0.51070  -0.51066  -0.51014
 Alpha  occ. eigenvalues --   -0.50821  -0.50255  -0.50246  -0.50139  -0.50095
 Alpha  occ. eigenvalues --   -0.49887  -0.49667  -0.49571  -0.49554  -0.49245
 Alpha  occ. eigenvalues --   -0.49073  -0.48875  -0.48654  -0.48504  -0.48398
 Alpha  occ. eigenvalues --   -0.48256  -0.48149  -0.48091  -0.47783  -0.47518
 Alpha  occ. eigenvalues --   -0.47444  -0.47316  -0.47136  -0.47096  -0.46901
 Alpha  occ. eigenvalues --   -0.46640  -0.46273  -0.46236  -0.46221  -0.46071
 Alpha  occ. eigenvalues --   -0.45909  -0.45831  -0.45654  -0.45631  -0.45424
 Alpha  occ. eigenvalues --   -0.45118  -0.45074  -0.45022  -0.44760  -0.44592
 Alpha  occ. eigenvalues --   -0.44449  -0.44384  -0.44323  -0.43730  -0.43681
 Alpha  occ. eigenvalues --   -0.43569  -0.43476  -0.43302  -0.43068  -0.42939
 Alpha  occ. eigenvalues --   -0.42926  -0.42880  -0.42756  -0.42270  -0.42144
 Alpha  occ. eigenvalues --   -0.42109  -0.41655  -0.41636  -0.41407  -0.41343
 Alpha  occ. eigenvalues --   -0.40324  -0.40294  -0.39750  -0.39667  -0.39531
 Alpha  occ. eigenvalues --   -0.39270  -0.39073  -0.38768  -0.38574  -0.38365
 Alpha  occ. eigenvalues --   -0.38210  -0.38123  -0.36610  -0.36489  -0.36470
 Alpha  occ. eigenvalues --   -0.36229  -0.35410  -0.35392  -0.33895  -0.33390
 Alpha  occ. eigenvalues --   -0.33361  -0.33138  -0.33022  -0.32366  -0.32321
 Alpha  occ. eigenvalues --   -0.32231  -0.32132  -0.31436  -0.26064  -0.25755
 Alpha  occ. eigenvalues --   -0.23193  -0.22940
 Alpha virt. eigenvalues --   -0.07284  -0.06866   0.00188   0.00199   0.02037
 Alpha virt. eigenvalues --    0.02493   0.04310   0.04438   0.05821   0.06276
 Alpha virt. eigenvalues --    0.07160   0.07316   0.07730   0.08008   0.08106

 Mulliken charges:
               1
     1  Mg   0.953937
     2  C   -0.042873
     3  C   -0.110388
     4  C   -0.074534
     5  C   -0.071310
     6  N   -0.321178
     7  C   -0.004073
     8  C   -0.076430
     9  C   -0.141332
    10  C    0.116729
    11  C    0.056677
    12  C    0.009121
    13  C   -0.101858
    14  H    0.060756
    15  N   -0.444631
    16  C    0.147192
    17  C   -0.177180
    18  C   -0.058223
    19  C    0.148203
    20  C    0.068322
    21  C    0.023109
    22  O   -0.209953
    23  C   -0.009740
    24  N   -0.406407
    25  C    0.080525
    26  C   -0.094180
    27  C   -0.044000
    28  C    0.108037
    29  C    0.034250
    30  C    0.007503
    31  C   -0.069534
    32  N   -0.442592
    33  C    0.083862
    34  C   -0.209082
    35  C    0.006987
    36  C    0.127269
    37  C    0.079145
    38  C    0.099147
    39  O   -0.251491
    40  C   -0.045841
    41  C    0.263443
    42  O   -0.210426
    43  O   -0.401516
    44  C    0.135734
    45  H    0.006482
    46  H    0.021253
    47  H   -0.000375
    48  H    0.038123
    49  H    0.035965
    50  H    0.032095
    51  H    0.057742
    52  H    0.022852
    53  H    0.027429
    54  H    0.042896
    55  H    0.027481
    56  H    0.044612
    57  H    0.032530
    58  H    0.076061
    59  H    0.059624
    60  H    0.059857
    61  H    0.052650
    62  H    0.061951
    63  H    0.025016
    64  H    0.018249
    65  H    0.044991
    66  H    0.032938
    67  H    0.031265
    68  H    0.032132
    69  H    0.016200
    70  H    0.030699
    71  H    0.056729
    72  H    0.029949
    73  H    0.053918
    74  H    0.066192
    75  H    0.035075
    76  H    0.077700
    77  H    0.056913
    78  H    0.049850
    79  H    0.051780
    80  Mg   0.951348
    81  C   -0.080218
    82  C   -0.065248
    83  C   -0.054624
    84  C   -0.099724
    85  N   -0.357774
    86  C    0.029294
    87  C   -0.079329
    88  C   -0.109905
    89  C    0.090137
    90  C    0.022821
    91  C   -0.013570
    92  C   -0.098885
    93  H    0.035607
    94  N   -0.438960
    95  C    0.108875
    96  C   -0.179262
    97  C   -0.083539
    98  C    0.122379
    99  C    0.062292
   100  C    0.076051
   101  O   -0.249658
   102  C    0.010316
   103  N   -0.332176
   104  C    0.030810
   105  C   -0.062503
   106  C   -0.122955
   107  C    0.110932
   108  C    0.017297
   109  C   -0.023487
   110  C   -0.037693
   111  N   -0.390917
   112  C    0.092753
   113  C   -0.157259
   114  C   -0.058483
   115  C    0.195156
   116  C    0.082423
   117  C    0.129189
   118  O   -0.229525
   119  C   -0.055462
   120  C    0.260446
   121  O   -0.202729
   122  O   -0.416593
   123  C    0.130309
   124  H   -0.007805
   125  H    0.015273
   126  H    0.000044
   127  H    0.042220
   128  H    0.032267
   129  H    0.044438
   130  H    0.032985
   131  H    0.038516
   132  H    0.033242
   133  H    0.032474
   134  H    0.043009
   135  H    0.053466
   136  H    0.042695
   137  H    0.051413
   138  H    0.048494
   139  H    0.054905
   140  H    0.026359
   141  H    0.075597
   142  H    0.037499
   143  H    0.035301
   144  H    0.033685
   145  H    0.050455
   146  H    0.045464
   147  H    0.038401
   148  H    0.020853
   149  H    0.037116
   150  H    0.048343
   151  H    0.024418
   152  H    0.023630
   153  H    0.065354
   154  H    0.063759
   155  H    0.069649
   156  H    0.065932
   157  H    0.053352
   158  H    0.069240
 Sum of Mulliken charges =  -0.00000

 Dipole moment (field-independent basis, Debye):
    X=             -3.9414    Y=             -0.3659    Z=              8.4679  Tot=              9.3474
 Quadrupole moment (field-independent basis, Debye-Ang):
   XX=           -371.0111   YY=           -493.7025   ZZ=           -485.8200
   XY=            -85.1710   XZ=            139.4658   YZ=             54.6995

 Normal termination of Gaussian 16 at Sat Sep 18 10:21:39 2021.
