 Gaussian 16, Revision A.03,
 Gaussian 16:  ES64L-G16RevA.03 25-Dec-2016

 --------------------------------
 #p wB97XD/Def2SVP td=(nstates=5)
 --------------------------------

 --------------------------------
 TDDFT excited states in gaussian
 --------------------------------
 Symbolic Z-matrix:
 Charge =  0 Multiplicity = 1

                         Standard orientation:
 ---------------------------------------------------------------------
 Center     Atomic      Atomic             Coordinates (Angstroms)
 Number     Number       Type             X           Y           Z
 ---------------------------------------------------------------------
      1         12           0        9.755189   -0.413304    0.765658
      2          6           0        9.233461    1.974393   -1.861300
      3          6           0        6.409287    0.358641    1.749992
      4          6           0        9.566974   -3.217952    2.606143
      5          6           0       12.598142   -1.443235   -0.832206
      6          7           0        8.069145    0.967016   -0.015653
      7          6           0        8.094385    1.846848   -1.058122
      8          6           0        6.738272    2.622067   -1.201388
      9          6           0        6.068869    2.331696    0.226330
     10          6           0        6.850501    1.094869    0.639745
     11          6           0        6.246784    3.434669    1.244394
     12          6           0        5.962806    2.257534   -2.456536
     13          6           0        5.329964    3.416693   -3.269483
     14          1           0        3.773135    3.758469   -3.137827
     15          7           0        8.206329   -1.299317    2.130196
     16          6           0        6.947762   -0.742173    2.438657
     17          6           0        6.298853   -1.579971    3.454589
     18          6           0        7.262376   -2.624111    3.746391
     19          6           0        8.337518   -2.477682    2.788918
     20          6           0        4.937643   -1.411905    4.016978
     21          6           0        7.129047   -3.641116    4.852012
     22          8           0        6.234264   -3.497688    5.654521
     23          6           0        8.047642   -4.826842    5.037184
     24          7           0       10.848538   -2.070536    0.744044
     25          6           0       10.649349   -3.027604    1.735069
     26          6           0       11.735302   -4.092699    1.566032
     27          6           0       12.796194   -3.409816    0.627353
     28          6           0       12.049163   -2.198923    0.179964
     29          6           0       12.329725   -4.761241    2.859673
     30          6           0       13.410351   -4.259269   -0.527422
     31          6           0       14.898466   -4.368426   -0.602043
     32          7           0       10.813034    0.177083   -0.887537
     33          6           0       12.015712   -0.283412   -1.394395
     34          6           0       12.527981    0.628091   -2.435740
     35          6           0       11.390987    1.494748   -2.670891
     36          6           0       10.420767    1.151779   -1.724266
     37          6           0       13.844812    0.629328   -3.166563
     38          6           0       10.930586    2.643076   -3.505987
     39          8           0       11.447676    3.182323   -4.442514
     40          6           0        9.490529    2.884947   -3.065404
     41          6           0        9.367274    4.328045   -2.676816
     42          8           0        9.977657    4.726942   -1.708338
     43          8           0        8.444194    5.105356   -3.438886
     44          6           0        8.157411    6.482942   -2.935597
     45          1           0        5.409240    0.601735    2.115487
     46          1           0        9.672379   -4.158850    3.148815
     47          1           0       13.602405   -1.686815   -1.184323
     48          1           0        6.883987    3.701533   -1.173166
     49          1           0        5.028639    2.023147    0.122990
     50          1           0        7.241769    3.342765    1.679283
     51          1           0        5.437249    3.335580    1.967405
     52          1           0        6.217338    4.471464    0.907684
     53          1           0        5.129086    1.639907   -2.123976
     54          1           0        6.577205    1.571118   -3.039097
     55          1           0        5.544378    3.135576   -4.300830
     56          1           0        5.816214    4.377838   -3.102113
     57          1           0        5.064748   -0.896920    4.968724
     58          1           0        4.540202   -2.390137    4.287715
     59          1           0        4.162490   -0.905212    3.440837
     60          1           0        7.750124   -5.530542    5.814362
     61          1           0        9.011462   -4.404461    5.321606
     62          1           0        8.294744   -5.450254    4.178681
     63          1           0       11.168757   -4.906575    1.112629
     64          1           0       13.565242   -2.963393    1.257021
     65          1           0       12.145441   -4.136922    3.734365
     66          1           0       13.387699   -4.983829    2.722136
     67          1           0       11.876887   -5.739716    3.018248
     68          1           0       13.049496   -3.868581   -1.478810
     69          1           0       12.941578   -5.242212   -0.482685
     70          1           0       15.258122   -3.765613   -1.435664
     71          1           0       15.179166   -5.403660   -0.795476
     72          1           0       15.472344   -4.049295    0.267699
     73          1           0       14.058676    1.612113   -3.586179
     74          1           0       13.763912   -0.128207   -3.946615
     75          1           0       14.604914    0.253185   -2.481587
     76          1           0        8.841950    2.543768   -3.872419
     77          1           0        8.974155    7.144978   -3.223743
     78          1           0        8.125539    6.500276   -1.846407
     79          1           0        7.200753    6.842031   -3.314532
     80         12           0       -9.845307   -0.506415   -0.395776
     81          6           0       -7.959447    1.952163    1.497081
     82          6           0       -6.894821   -1.343705   -1.795228
     83          6           0      -11.532616   -2.620994   -2.094107
     84          6           0      -12.819201    0.814701    0.999746
     85          7           0       -7.581066    0.264918   -0.109768
     86          6           0       -7.094279    1.170149    0.756516
     87          6           0       -5.553907    1.158015    0.730401
     88          6           0       -5.378131    0.412344   -0.673738
     89          6           0       -6.650912   -0.305025   -0.843955
     90          6           0       -4.794497    1.194814   -1.838247
     91          6           0       -5.044186    0.413894    1.976750
     92          6           0       -3.612388    0.854660    2.401387
     93          1           0       -2.882223    2.145860    1.805927
     94          7           0       -9.296538   -1.881222   -1.765243
     95          6           0       -8.035131   -2.043895   -2.305177
     96          6           0       -8.119806   -3.066935   -3.342988
     97          6           0       -9.465065   -3.508871   -3.389665
     98          6           0      -10.151638   -2.646472   -2.386579
     99          6           0       -6.988520   -3.510437   -4.159350
    100          6           0      -10.144240   -4.683290   -4.270302
    101          8           0      -11.268334   -5.051860   -4.065437
    102          6           0       -9.304590   -5.583479   -5.194368
    103          7           0      -11.920572   -0.652518   -0.712515
    104          6           0      -12.350245   -1.735018   -1.355993
    105          6           0      -13.839946   -1.941822   -1.298583
    106          6           0      -14.151209   -1.114032   -0.027772
    107          6           0      -12.915435   -0.149668   -0.022568
    108          6           0      -14.631159   -1.388159   -2.573557
    109          6           0      -14.352311   -1.938565    1.312367
    110          6           0      -14.911040   -3.390108    1.254325
    111          7           0      -10.349369    1.100364    0.860041
    112          6           0      -11.532823    1.491845    1.393833
    113          6           0      -11.363625    2.470356    2.370047
    114          6           0      -10.016291    2.692935    2.384836
    115          6           0       -9.401502    1.846163    1.483798
    116          6           0      -12.463200    3.068095    3.243549
    117          6           0       -9.005924    3.503991    3.080596
    118          8           0       -9.079988    4.471697    3.822957
    119          6           0       -7.611674    2.954352    2.546669
    120          6           0       -6.836713    4.097228    2.096282
    121          8           0       -6.969093    4.712768    1.033691
    122          8           0       -6.124562    4.530083    3.157556
    123          6           0       -5.602974    5.871745    2.967892
    124          1           0       -5.976498   -1.480960   -2.370078
    125          1           0      -12.080508   -3.327831   -2.719837
    126          1           0      -13.753838    1.122018    1.473138
    127          1           0       -5.146462    2.162335    0.613832
    128          1           0       -4.622384   -0.353429   -0.504397
    129          1           0       -3.809636    0.828290   -2.126163
    130          1           0       -4.715784    2.250798   -1.580475
    131          1           0       -5.425952    1.207358   -2.726649
    132          1           0       -4.932622   -0.635410    1.702685
    133          1           0       -5.731544    0.439848    2.822106
    134          1           0       -2.907851    0.022969    2.368973
    135          1           0       -3.708759    0.896365    3.486228
    136          1           0       -6.035631   -3.329451   -3.662464
    137          1           0       -7.066744   -2.939230   -5.084552
    138          1           0       -6.997557   -4.575761   -4.390835
    139          1           0       -8.592403   -6.216107   -4.664635
    140          1           0       -8.906198   -4.902811   -5.947067
    141          1           0       -9.962360   -6.218376   -5.788531
    142          1           0      -13.928886   -3.025822   -1.231023
    143          1           0      -15.046193   -0.500170   -0.126177
    144          1           0      -15.301798   -2.219431   -2.789909
    145          1           0      -14.003977   -1.195506   -3.444684
    146          1           0      -15.244363   -0.503988   -2.403648
    147          1           0      -14.954910   -1.344148    1.997661
    148          1           0      -13.314797   -2.070687    1.619820
    149          1           0      -14.101174   -4.102734    1.100069
    150          1           0      -15.669038   -3.334044    0.472267
    151          1           0      -15.460116   -3.656667    2.156747
    152          1           0      -13.202785    2.271971    3.332224
    153          1           0      -12.978642    3.905066    2.773393
    154          1           0      -12.026136    3.336516    4.205164
    155          1           0       -7.130809    2.464868    3.394525
    156          1           0       -5.044455    6.244157    3.826177
    157          1           0       -6.293167    6.611458    2.561898
    158          1           0       -4.827514    5.871813    2.201112
 ---------------------------------------------------------------------

 SCF Done:  E(RwB97XD) =  -4070.58426405     A.U. after   17 cycles

 Excitation energies and oscillator strengths:

 Excited State   1:      Singlet-A      1.6112 eV  769.53 nm  f=0.4043  <S**2>=0.000
     309 -> 315       -0.17517
     312 -> 313        0.68624
     309 <- 315       -0.11590
 This state for optimization and/or second-order correction.
 Total Energy, E(TD-HF/TD-DFT) =  -4070.52505498
 Copying the excited state density for this state as the 1-particle RhoCI density.

 Excited State   2:      Singlet-A      1.7993 eV  689.06 nm  f=0.3685  <S**2>=0.000
     310 -> 316       -0.19146
     311 -> 314        0.67946
     310 <- 316       -0.11150

 Excited State   3:      Singlet-A      2.1823 eV  568.14 nm  f=0.1373  <S**2>=0.000
     309 -> 313        0.63206
     312 -> 315        0.28076

 Excited State   4:      Singlet-A      2.1928 eV  565.42 nm  f=0.1442  <S**2>=0.000
     310 -> 314        0.64488
     311 -> 316        0.25368

 Excited State   5:      Singlet-A      3.1538 eV  393.12 nm  f=0.0020  <S**2>=0.000
     306 -> 313       -0.12608
     308 -> 313        0.66781
     312 -> 315       -0.10193

 The electronic state is 1-A.
 Alpha  occ. eigenvalues --  -46.95795 -46.95683 -19.30612 -19.30119 -19.25782
 Alpha  occ. eigenvalues --  -19.25579 -19.24910 -19.23855 -19.23710 -19.23102
 Alpha  occ. eigenvalues --  -14.47528 -14.46392 -14.46074 -14.45654 -14.44553
 Alpha  occ. eigenvalues --  -14.44070 -14.43874 -14.43194 -10.44219 -10.42041
 Alpha  occ. eigenvalues --  -10.41013 -10.39560 -10.38796 -10.38580 -10.36122
 Alpha  occ. eigenvalues --  -10.35543 -10.35467 -10.35415 -10.34855 -10.34839
 Alpha  occ. eigenvalues --  -10.34827 -10.34690 -10.34610 -10.34425 -10.34417
 Alpha  occ. eigenvalues --  -10.34288 -10.33644 -10.33631 -10.33565 -10.33553
 Alpha  occ. eigenvalues --  -10.33376 -10.33247 -10.33235 -10.33021 -10.32977
 Alpha  occ. eigenvalues --  -10.32918 -10.32825 -10.32701 -10.32347 -10.32209
 Alpha  occ. eigenvalues --  -10.32197 -10.32058 -10.31976 -10.31963 -10.31746
 Alpha  occ. eigenvalues --  -10.31657 -10.31630 -10.31544 -10.31459 -10.31424
 Alpha  occ. eigenvalues --  -10.31423 -10.31294 -10.31265 -10.31169 -10.31130
 Alpha  occ. eigenvalues --  -10.31033 -10.31008 -10.30732 -10.30607 -10.30505
 Alpha  occ. eigenvalues --  -10.30502 -10.30474 -10.30419 -10.30116 -10.30021
 Alpha  occ. eigenvalues --  -10.29967 -10.29869 -10.29862 -10.29753 -10.29643
 Alpha  occ. eigenvalues --  -10.29450 -10.29433 -10.29416 -10.29346 -10.29030
 Alpha  occ. eigenvalues --  -10.27676  -3.21828  -3.21636  -1.95359  -1.95227
 Alpha  occ. eigenvalues --   -1.94950  -1.94801  -1.94777  -1.94586  -1.18666
 Alpha  occ. eigenvalues --   -1.17631  -1.14873  -1.14110  -1.12532  -1.11640
 Alpha  occ. eigenvalues --   -1.10200  -1.08814  -1.07791  -1.07221  -1.06719
 Alpha  occ. eigenvalues --   -1.06706  -1.05720  -1.05411  -1.04931  -1.03664
 Alpha  occ. eigenvalues --   -0.94879  -0.94289  -0.91384  -0.91165  -0.90894
 Alpha  occ. eigenvalues --   -0.90619  -0.90471  -0.89942  -0.89662  -0.89498
 Alpha  occ. eigenvalues --   -0.88818  -0.88300  -0.87719  -0.87476  -0.86531
 Alpha  occ. eigenvalues --   -0.86296  -0.85968  -0.85003  -0.84530  -0.84254
 Alpha  occ. eigenvalues --   -0.83871  -0.83865  -0.82659  -0.82612  -0.82298
 Alpha  occ. eigenvalues --   -0.82062  -0.80615  -0.80199  -0.79560  -0.78865
 Alpha  occ. eigenvalues --   -0.78740  -0.78529  -0.78384  -0.77637  -0.77291
 Alpha  occ. eigenvalues --   -0.77193  -0.74772  -0.74705  -0.73874  -0.73629
 Alpha  occ. eigenvalues --   -0.71589  -0.71556  -0.71027  -0.70710  -0.70046
 Alpha  occ. eigenvalues --   -0.69571  -0.68817  -0.68809  -0.67974  -0.67399
 Alpha  occ. eigenvalues --   -0.67193  -0.67043  -0.66676  -0.66601  -0.66449
 Alpha  occ. eigenvalues --   -0.65655  -0.64454  -0.63782  -0.62862  -0.61929
 Alpha  occ. eigenvalues --   -0.61623  -0.61476  -0.61321  -0.61220  -0.61163
 Alpha  occ. eigenvalues --   -0.60454  -0.60364  -0.59855  -0.59756  -0.59468
 Alpha  occ. eigenvalues --   -0.58625  -0.58575  -0.57718  -0.57548  -0.57403
 Alpha  occ. eigenvalues --   -0.57143  -0.56510  -0.56344  -0.55990  -0.55942
 Alpha  occ. eigenvalues --   -0.55753  -0.55557  -0.55431  -0.55171  -0.54953
 Alpha  occ. eigenvalues --   -0.54939  -0.54853  -0.54285  -0.54184  -0.53887
 Alpha  occ. eigenvalues --   -0.53796  -0.53661  -0.53372  -0.53211  -0.53157
 Alpha  occ. eigenvalues --   -0.53051  -0.52954  -0.52626  -0.52456  -0.52405
 Alpha  occ. eigenvalues --   -0.51982  -0.51930  -0.51927  -0.51802  -0.51646
 Alpha  occ. eigenvalues --   -0.51367  -0.51130  -0.51048  -0.50871  -0.50782
 Alpha  occ. eigenvalues --   -0.50696  -0.50649  -0.50523  -0.50268  -0.50216
 Alpha  occ. eigenvalues --   -0.49793  -0.49719  -0.49421  -0.49315  -0.49129
 Alpha  occ. eigenvalues --   -0.49052  -0.48925  -0.48672  -0.48504  -0.48455
 Alpha  occ. eigenvalues --   -0.48257  -0.48147  -0.48106  -0.48030  -0.47877
 Alpha  occ. eigenvalues --   -0.47670  -0.47345  -0.47317  -0.47030  -0.46811
 Alpha  occ. eigenvalues --   -0.46726  -0.46551  -0.46427  -0.46215  -0.45993
 Alpha  occ. eigenvalues --   -0.45846  -0.45844  -0.45746  -0.45685  -0.45519
 Alpha  occ. eigenvalues --   -0.45377  -0.45249  -0.45186  -0.44939  -0.44894
 Alpha  occ. eigenvalues --   -0.44667  -0.44597  -0.44578  -0.44499  -0.44378
 Alpha  occ. eigenvalues --   -0.44219  -0.43985  -0.43956  -0.43682  -0.43358
 Alpha  occ. eigenvalues --   -0.43214  -0.43140  -0.42861  -0.42590  -0.42277
 Alpha  occ. eigenvalues --   -0.42274  -0.41622  -0.41301  -0.41228  -0.40629
 Alpha  occ. eigenvalues --   -0.40552  -0.40161  -0.40011  -0.39779  -0.39477
 Alpha  occ. eigenvalues --   -0.39401  -0.39267  -0.38731  -0.38654  -0.37927
 Alpha  occ. eigenvalues --   -0.37898  -0.37637  -0.37100  -0.36517  -0.36141
 Alpha  occ. eigenvalues --   -0.35674  -0.35583  -0.34687  -0.33948  -0.33750
 Alpha  occ. eigenvalues --   -0.33734  -0.33444  -0.32829  -0.32529  -0.32309
 Alpha  occ. eigenvalues --   -0.31985  -0.31583  -0.31043  -0.26350  -0.25299
 Alpha  occ. eigenvalues --   -0.23207  -0.23045
 Alpha virt. eigenvalues --   -0.07467  -0.06584   0.00310   0.00842   0.02597
 Alpha virt. eigenvalues --    0.02623   0.04122   0.04699   0.04768   0.05578
 Alpha virt. eigenvalues --    0.06408   0.06713   0.06767   0.07850   0.07900

 Mulliken charges:
               1
     1  Mg   0.981438
     2  C   -0.076461
     3  C   -0.054296
     4  C   -0.080007
     5  C   -0.124182
     6  N   -0.313004
     7  C   -0.015818
     8  C   -0.066132
     9  C   -0.119509
    10  C    0.048690
    11  C    0.041496
    12  C    0.037560
    13  C   -0.107584
    14  H    0.023138
    15  N   -0.419578
    16  C    0.112449
    17  C   -0.144199
    18  C   -0.073670
    19  C    0.168606
    20  C    0.081413
    21  C    0.035362
    22  O   -0.235022
    23  C   -0.012154
    24  N   -0.451675
    25  C    0.092014
    26  C   -0.128724
    27  C   -0.033676
    28  C    0.089144
    29  C    0.013846
    30  C    0.000924
    31  C   -0.047301
    32  N   -0.442287
    33  C    0.135345
    34  C   -0.189254
    35  C   -0.106221
    36  C    0.178284
    37  C    0.090780
    38  C    0.132806
    39  O   -0.173779
    40  C   -0.015165
    41  C    0.278350
    42  O   -0.234257
    43  O   -0.405062
    44  C    0.133220
    45  H   -0.006453
    46  H   -0.037424
    47  H   -0.011622
    48  H    0.025944
    49  H    0.028065
    50  H    0.043506
    51  H    0.042638
    52  H    0.037027
    53  H    0.036562
    54  H    0.040475
    55  H    0.055448
    56  H    0.048633
    57  H    0.055893
    58  H    0.053280
    59  H    0.036038
    60  H    0.051295
    61  H    0.050394
    62  H    0.057782
    63  H    0.051345
    64  H    0.033804
    65  H    0.044964
    66  H    0.038515
    67  H    0.031009
    68  H    0.038558
    69  H    0.025341
    70  H    0.036322
    71  H    0.036996
    72  H    0.036028
    73  H    0.071804
    74  H    0.053924
    75  H    0.034623
    76  H    0.072558
    77  H    0.064049
    78  H    0.051600
    79  H    0.065231
    80  Mg   0.963373
    81  C   -0.002651
    82  C   -0.069563
    83  C   -0.086980
    84  C   -0.078629
    85  N   -0.252486
    86  C   -0.062608
    87  C   -0.062072
    88  C   -0.088910
    89  C    0.000219
    90  C    0.039668
    91  C    0.009997
    92  C   -0.091981
    93  H    0.046985
    94  N   -0.472771
    95  C    0.161546
    96  C   -0.161780
    97  C   -0.088070
    98  C    0.121997
    99  C    0.059480
   100  C    0.076573
   101  O   -0.197346
   102  C   -0.024103
   103  N   -0.321570
   104  C    0.065171
   105  C   -0.102394
   106  C   -0.113781
   107  C    0.058316
   108  C    0.030235
   109  C   -0.010599
   110  C   -0.052919
   111  N   -0.410007
   112  C    0.090370
   113  C   -0.219006
   114  C   -0.051443
   115  C    0.154774
   116  C    0.095835
   117  C    0.138626
   118  O   -0.197819
   119  C   -0.093008
   120  C    0.252518
   121  O   -0.272218
   122  O   -0.331151
   123  C    0.153471
   124  H   -0.010577
   125  H    0.011942
   126  H    0.003418
   127  H    0.040209
   128  H    0.017758
   129  H    0.039646
   130  H    0.042544
   131  H    0.036755
   132  H    0.032190
   133  H    0.048334
   134  H    0.038668
   135  H    0.037798
   136  H    0.044219
   137  H    0.065917
   138  H    0.040974
   139  H    0.086462
   140  H    0.045194
   141  H    0.050827
   142  H    0.043831
   143  H    0.017537
   144  H    0.041975
   145  H    0.045895
   146  H    0.042522
   147  H    0.037413
   148  H    0.027841
   149  H    0.050492
   150  H    0.034792
   151  H    0.039927
   152  H    0.025499
   153  H    0.053021
   154  H    0.055847
   155  H    0.073405
   156  H    0.049756
   157  H    0.060967
   158  H    0.023713
 Sum of Mulliken charges =  -0.00000

 Dipole moment (field-independent basis, Debye):
    X=              3.9363    Y=             -6.5836    Z=             -1.8579  Tot=              7.8924
 Quadrupole moment (field-independent basis, Debye-Ang):
   XX=           -493.9641   YY=           -508.5888   ZZ=           -535.5602
   XY=             -4.3275   XZ=             36.0618   YZ=              8.5106

 Normal termination of Gaussian 16 at Sun Sep 19 14:53:47 2021.
