 Gaussian 16, Revision A.03,
 Gaussian 16:  ES64L-G16RevA.03 25-Dec-2016

 --------------------------------
 #p wB97XD/Def2SVP td=(nstates=5)
 --------------------------------

 --------------------------------
 TDDFT excited states in gaussian
 --------------------------------
 Symbolic Z-matrix:
 Charge =  0 Multiplicity = 1

                         Standard orientation:
 ---------------------------------------------------------------------
 Center     Atomic      Atomic             Coordinates (Angstroms)
 Number     Number       Type             X           Y           Z
 ---------------------------------------------------------------------
      1         12           0      -12.957471   -0.530897    0.414153
      2          6           0      -13.152567    2.715706   -0.889285
      3          6           0      -10.794885    0.719759    2.923151
      4          6           0      -12.469879   -3.713343    1.492937
      5          6           0      -14.446901   -1.705258   -2.470895
      6          7           0      -12.251496    1.486381    1.000759
      7          6           0      -12.637963    2.679223    0.382885
      8          6           0      -12.329894    3.881246    1.346680
      9          6           0      -11.519576    3.213153    2.463539
     10          6           0      -11.470041    1.690843    2.088616
     11          6           0      -10.098761    3.833307    2.546762
     12          6           0      -13.648482    4.523565    1.759897
     13          6           0      -13.642291    6.000424    2.119115
     14          1           0      -12.279530    6.690108    2.354937
     15          7           0      -11.820494   -1.423252    1.984003
     16          6           0      -10.977276   -0.740336    2.881042
     17          6           0      -10.328976   -1.674563    3.784551
     18          6           0      -10.828418   -2.998996    3.468222
     19          6           0      -11.729863   -2.750151    2.262614
     20          6           0       -9.450278   -1.260935    4.972003
     21          6           0      -10.563861   -4.342351    4.120636
     22          8           0      -11.112367   -5.352120    3.699672
     23          6           0       -9.808187   -4.376282    5.393258
     24          7           0      -13.476805   -2.439688   -0.381430
     25          6           0      -13.241602   -3.591967    0.305842
     26          6           0      -13.940193   -4.778801   -0.407898
     27          6           0      -14.643795   -4.134344   -1.664707
     28          6           0      -14.280843   -2.638634   -1.476112
     29          6           0      -12.914311   -5.871017   -0.759677
     30          6           0      -16.186123   -4.300267   -1.707244
     31          6           0      -16.543314   -5.416123   -2.684277
     32          7           0      -13.593970    0.242591   -1.422755
     33          6           0      -14.112631   -0.322038   -2.539968
     34          6           0      -14.160484    0.728963   -3.585374
     35          6           0      -13.907243    1.924760   -2.979659
     36          6           0      -13.521143    1.559968   -1.664572
     37          6           0      -14.638940    0.424882   -4.995108
     38          6           0      -13.857394    3.385733   -3.124634
     39          8           0      -14.065430    4.072525   -4.117549
     40          6           0      -13.457759    3.910983   -1.759286
     41          6           0      -12.334993    4.829772   -2.004944
     42          8           0      -11.141646    4.591952   -2.235379
     43          8           0      -12.845431    6.111722   -2.015391
     44          6           0      -11.915521    7.179863   -2.311141
     45          1           0      -10.198809    1.155070    3.727640
     46          1           0      -12.347892   -4.689336    1.967362
     47          1           0      -14.830046   -2.165290   -3.384227
     48          1           0      -11.720088    4.504598    0.691597
     49          1           0      -11.991642    3.520667    3.396596
     50          1           0       -9.289353    3.170491    2.240292
     51          1           0       -9.865741    3.907969    3.608565
     52          1           0      -10.010191    4.742115    1.951827
     53          1           0      -14.011857    3.887754    2.567813
     54          1           0      -14.383178    4.352884    0.973892
     55          1           0      -14.283899    6.148919    2.986619
     56          1           0      -14.156498    6.427085    1.257206
     57          1           0       -9.214322   -0.196936    4.998343
     58          1           0       -8.504621   -1.803691    4.939845
     59          1           0       -9.923262   -1.607774    5.889989
     60          1           0      -10.394461   -3.866148    6.157960
     61          1           0       -8.773243   -4.068842    5.243543
     62          1           0       -9.726895   -5.388762    5.788825
     63          1           0      -14.634866   -5.225178    0.303267
     64          1           0      -14.105258   -4.533627   -2.525150
     65          1           0      -12.840362   -6.151218   -1.810049
     66          1           0      -13.363717   -6.705679   -0.222075
     67          1           0      -11.882430   -5.620612   -0.515069
     68          1           0      -16.642179   -3.452584   -2.218970
     69          1           0      -16.633510   -4.504156   -0.734241
     70          1           0      -17.263503   -6.019012   -2.131358
     71          1           0      -15.737148   -6.125984   -2.867875
     72          1           0      -16.965321   -5.089527   -3.635131
     73          1           0      -14.717253   -0.634026   -5.242806
     74          1           0      -14.018185    0.892369   -5.758469
     75          1           0      -15.684587    0.725428   -5.070198
     76          1           0      -14.321875    4.422623   -1.336706
     77          1           0      -11.387978    6.912110   -3.226982
     78          1           0      -11.180412    7.348083   -1.523804
     79          1           0      -12.538587    7.983468   -2.702237
     80         12           0       12.310320   -0.737192   -0.320318
     81          6           0       14.475608    1.925966   -0.082152
     82          6           0        9.722594    1.410774    0.653590
     83          6           0       10.134280   -3.315056   -0.438009
     84          6           0       14.917045   -2.833626   -0.892334
     85          7           0       12.200950    1.395146    0.482880
     86          6           0       13.210150    2.335874    0.242447
     87          6           0       12.695933    3.783147    0.373566
     88          6           0       11.183427    3.523423    0.719281
     89          6           0       10.959272    2.033248    0.577437
     90          6           0       10.788215    4.039004    2.097297
     91          6           0       12.867046    4.778105   -0.828449
     92          6           0       13.880544    6.029121   -0.615224
     93          1           0       13.153806    7.366954   -0.784205
     94          7           0       10.284401   -0.962311    0.142184
     95          6           0        9.371602    0.073864    0.397294
     96          6           0        7.987441   -0.407420    0.338575
     97          6           0        8.048090   -1.882863    0.085918
     98          6           0        9.525304   -2.133351   -0.153948
     99          6           0        6.789438    0.490200    0.556819
    100          6           0        7.002285   -2.892741    0.011543
    101          8           0        7.308799   -4.087536   -0.114119
    102          6           0        5.525218   -2.567978    0.149796
    103          7           0       12.540923   -2.718066   -0.532558
    104          6           0       11.479427   -3.628373   -0.689911
    105          6           0       11.908458   -5.086868   -1.127832
    106          6           0       13.504612   -4.861583   -1.228152
    107          6           0       13.657678   -3.364367   -0.876919
    108          6           0       11.487966   -6.245475   -0.095330
    109          6           0       14.053174   -5.223739   -2.651102
    110          6           0       15.389102   -5.892731   -2.738893
    111          7           0       14.342814   -0.500501   -0.356293
    112          6           0       15.305370   -1.466084   -0.664620
    113          6           0       16.589041   -0.872509   -0.822323
    114          6           0       16.282233    0.532130   -0.688717
    115          6           0       14.931941    0.650488   -0.335916
    116          6           0       17.893177   -1.456244   -1.172318
    117          6           0       16.881580    1.827567   -0.611788
    118          8           0       18.018928    2.277156   -0.790425
    119          6           0       15.723420    2.776715   -0.059737
    120          6           0       16.126217    3.295997    1.274062
    121          8           0       15.801377    2.920019    2.331051
    122          8           0       16.901688    4.443938    1.128750
    123          6           0       16.871106    5.351313    2.256967
    124          1           0        8.908044    2.104915    0.870828
    125          1           0        9.529372   -4.213808   -0.574595
    126          1           0       15.735001   -3.476730   -1.223609
    127          1           0       13.163897    4.239050    1.245406
    128          1           0       10.517244    4.083376    0.062375
    129          1           0       10.532466    3.188311    2.728409
    130          1           0        9.897521    4.628495    1.883269
    131          1           0       11.502614    4.707289    2.577591
    132          1           0       11.881565    5.173646   -1.075638
    133          1           0       13.266692    4.271667   -1.707140
    134          1           0       14.561942    5.914291   -1.458387
    135          1           0       14.357005    5.970327    0.363107
    136          1           0        6.758341    0.712072    1.624264
    137          1           0        5.898028   -0.064081    0.267169
    138          1           0        6.885625    1.466668    0.081609
    139          1           0        5.040098   -3.517057    0.378770
    140          1           0        5.092703   -2.098043   -0.734107
    141          1           0        5.218340   -1.997587    1.026260
    142          1           0       11.564269   -5.283236   -2.142732
    143          1           0       14.100131   -5.490926   -0.566408
    144          1           0       12.301751   -6.968977   -0.042079
    145          1           0       10.657381   -6.886089   -0.389207
    146          1           0       11.262123   -5.866851    0.901733
    147          1           0       14.062847   -4.385646   -3.347766
    148          1           0       13.440177   -5.969797   -3.156439
    149          1           0       16.033565   -5.152836   -3.213307
    150          1           0       15.548203   -6.722692   -3.427343
    151          1           0       15.749412   -6.129025   -1.737138
    152          1           0       17.718320   -2.357771   -1.760137
    153          1           0       18.321666   -1.737600   -0.210450
    154          1           0       18.527592   -0.670079   -1.582101
    155          1           0       15.579559    3.620693   -0.733888
    156          1           0       17.520137    4.874841    2.990911
    157          1           0       15.838585    5.348676    2.605877
    158          1           0       17.269258    6.331892    1.994551
 ---------------------------------------------------------------------

 SCF Done:  E(RwB97XD) =  -4070.59055847     A.U. after   19 cycles

 Excitation energies and oscillator strengths:

 Excited State   1:      Singlet-A      1.6208 eV  764.97 nm  f=0.5088  <S**2>=0.000
     309 -> 315        0.14202
     311 -> 313        0.60146
     312 -> 314        0.32977
 This state for optimization and/or second-order correction.
 Total Energy, E(TD-HF/TD-DFT) =  -4070.53099588
 Copying the excited state density for this state as the 1-particle RhoCI density.

 Excited State   2:      Singlet-A      1.6270 eV  762.02 nm  f=0.2970  <S**2>=0.000
     310 -> 316       -0.15708
     311 -> 313       -0.33020
     312 -> 314        0.60003

 Excited State   3:      Singlet-A      2.1351 eV  580.70 nm  f=0.1031  <S**2>=0.000
     309 -> 313        0.64076
     311 -> 315       -0.25909

 Excited State   4:      Singlet-A      2.1420 eV  578.81 nm  f=0.1353  <S**2>=0.000
     310 -> 314        0.64106
     312 -> 316        0.27577

 Excited State   5:      Singlet-A      3.5474 eV  349.51 nm  f=0.0000  <S**2>=0.000
     312 -> 313        0.70693

 The electronic state is 1-A.
 Alpha  occ. eigenvalues --  -46.95543 -46.94303 -19.29772 -19.27376 -19.24830
 Alpha  occ. eigenvalues --  -19.24442 -19.24404 -19.24368 -19.23941 -19.22959
 Alpha  occ. eigenvalues --  -14.47186 -14.46882 -14.46610 -14.46419 -14.44946
 Alpha  occ. eigenvalues --  -14.44848 -14.43842 -14.43133 -10.43303 -10.41892
 Alpha  occ. eigenvalues --  -10.39569 -10.39474 -10.39339 -10.38182 -10.36173
 Alpha  occ. eigenvalues --  -10.35923 -10.35403 -10.35359 -10.35354 -10.35201
 Alpha  occ. eigenvalues --  -10.35167 -10.35156 -10.34784 -10.34754 -10.34744
 Alpha  occ. eigenvalues --  -10.34734 -10.34338 -10.34218 -10.34129 -10.33870
 Alpha  occ. eigenvalues --  -10.33514 -10.33384 -10.33318 -10.33241 -10.33094
 Alpha  occ. eigenvalues --  -10.32744 -10.32629 -10.32511 -10.32382 -10.32335
 Alpha  occ. eigenvalues --  -10.32308 -10.32303 -10.31918 -10.31908 -10.31852
 Alpha  occ. eigenvalues --  -10.31847 -10.31802 -10.31721 -10.31706 -10.31677
 Alpha  occ. eigenvalues --  -10.31649 -10.31609 -10.31536 -10.31422 -10.31370
 Alpha  occ. eigenvalues --  -10.31170 -10.30805 -10.30612 -10.30586 -10.30496
 Alpha  occ. eigenvalues --  -10.30481 -10.30421 -10.30362 -10.30355 -10.30279
 Alpha  occ. eigenvalues --  -10.30098 -10.29872 -10.29799 -10.29746 -10.29510
 Alpha  occ. eigenvalues --  -10.29409 -10.29203 -10.29134 -10.28873 -10.28844
 Alpha  occ. eigenvalues --  -10.28476  -3.21393  -3.20471  -1.94994  -1.94472
 Alpha  occ. eigenvalues --   -1.94391  -1.94035  -1.93608  -1.93466  -1.18879
 Alpha  occ. eigenvalues --   -1.18046  -1.12804  -1.12300  -1.11816  -1.10296
 Alpha  occ. eigenvalues --   -1.09900  -1.09143  -1.06618  -1.06390  -1.05444
 Alpha  occ. eigenvalues --   -1.04882  -1.04733  -1.04063  -1.03789  -1.02703
 Alpha  occ. eigenvalues --   -0.95416  -0.94533  -0.91211  -0.91105  -0.90709
 Alpha  occ. eigenvalues --   -0.90493  -0.90385  -0.89995  -0.89273  -0.89128
 Alpha  occ. eigenvalues --   -0.89127  -0.88892  -0.88654  -0.87606  -0.86344
 Alpha  occ. eigenvalues --   -0.86144  -0.85836  -0.85351  -0.84711  -0.84423
 Alpha  occ. eigenvalues --   -0.84335  -0.83831  -0.82927  -0.82789  -0.82182
 Alpha  occ. eigenvalues --   -0.82081  -0.80765  -0.80191  -0.79320  -0.79276
 Alpha  occ. eigenvalues --   -0.78801  -0.78597  -0.77943  -0.77208  -0.77151
 Alpha  occ. eigenvalues --   -0.76574  -0.75054  -0.74601  -0.73673  -0.73078
 Alpha  occ. eigenvalues --   -0.71345  -0.71131  -0.70593  -0.70480  -0.69957
 Alpha  occ. eigenvalues --   -0.69885  -0.69542  -0.69171  -0.67590  -0.67406
 Alpha  occ. eigenvalues --   -0.67239  -0.67001  -0.66925  -0.66738  -0.65977
 Alpha  occ. eigenvalues --   -0.65892  -0.64201  -0.62836  -0.62243  -0.62213
 Alpha  occ. eigenvalues --   -0.61692  -0.61340  -0.61149  -0.60997  -0.60842
 Alpha  occ. eigenvalues --   -0.60426  -0.60426  -0.60245  -0.59734  -0.59648
 Alpha  occ. eigenvalues --   -0.58507  -0.57941  -0.57806  -0.57490  -0.57243
 Alpha  occ. eigenvalues --   -0.57111  -0.56812  -0.55847  -0.55649  -0.55572
 Alpha  occ. eigenvalues --   -0.55569  -0.55401  -0.55329  -0.55242  -0.54948
 Alpha  occ. eigenvalues --   -0.54923  -0.54846  -0.54589  -0.54241  -0.54077
 Alpha  occ. eigenvalues --   -0.53906  -0.53751  -0.53505  -0.53406  -0.53263
 Alpha  occ. eigenvalues --   -0.53085  -0.52785  -0.52664  -0.52494  -0.52410
 Alpha  occ. eigenvalues --   -0.52124  -0.51951  -0.51925  -0.51680  -0.51646
 Alpha  occ. eigenvalues --   -0.51568  -0.51309  -0.51280  -0.51049  -0.50924
 Alpha  occ. eigenvalues --   -0.50657  -0.50558  -0.50457  -0.50156  -0.49997
 Alpha  occ. eigenvalues --   -0.49931  -0.49881  -0.49437  -0.49219  -0.49196
 Alpha  occ. eigenvalues --   -0.48946  -0.48759  -0.48731  -0.48395  -0.48395
 Alpha  occ. eigenvalues --   -0.48053  -0.48047  -0.47914  -0.47907  -0.47324
 Alpha  occ. eigenvalues --   -0.47255  -0.47204  -0.46996  -0.46882  -0.46789
 Alpha  occ. eigenvalues --   -0.46615  -0.46471  -0.46396  -0.46218  -0.46075
 Alpha  occ. eigenvalues --   -0.45611  -0.45610  -0.45466  -0.45445  -0.45277
 Alpha  occ. eigenvalues --   -0.45229  -0.45065  -0.44992  -0.44891  -0.44852
 Alpha  occ. eigenvalues --   -0.44708  -0.44535  -0.44341  -0.43970  -0.43827
 Alpha  occ. eigenvalues --   -0.43614  -0.43516  -0.43306  -0.43281  -0.43096
 Alpha  occ. eigenvalues --   -0.43062  -0.42905  -0.42583  -0.42398  -0.42043
 Alpha  occ. eigenvalues --   -0.41959  -0.41821  -0.41006  -0.40914  -0.40616
 Alpha  occ. eigenvalues --   -0.40426  -0.39992  -0.39976  -0.39785  -0.39765
 Alpha  occ. eigenvalues --   -0.39604  -0.39237  -0.38702  -0.38405  -0.38020
 Alpha  occ. eigenvalues --   -0.37852  -0.36869  -0.36431  -0.36399  -0.36145
 Alpha  occ. eigenvalues --   -0.36051  -0.35390  -0.34965  -0.33664  -0.33641
 Alpha  occ. eigenvalues --   -0.33600  -0.33501  -0.33479  -0.32548  -0.32263
 Alpha  occ. eigenvalues --   -0.32196  -0.31831  -0.31369  -0.26304  -0.25818
 Alpha  occ. eigenvalues --   -0.23267  -0.22829
 Alpha virt. eigenvalues --   -0.07635  -0.07108  -0.00227   0.00371   0.01796
 Alpha virt. eigenvalues --    0.02141   0.03900   0.04314   0.05259   0.05447
 Alpha virt. eigenvalues --    0.07288   0.07553   0.07692   0.07913   0.08122

 Mulliken charges:
               1
     1  Mg   0.955720
     2  C   -0.016390
     3  C   -0.072104
     4  C   -0.061323
     5  C   -0.075349
     6  N   -0.370253
     7  C   -0.076248
     8  C   -0.019416
     9  C   -0.128106
    10  C    0.112420
    11  C    0.004296
    12  C    0.005654
    13  C   -0.087397
    14  H    0.043936
    15  N   -0.442687
    16  C    0.155545
    17  C   -0.170791
    18  C   -0.084737
    19  C    0.094652
    20  C    0.080072
    21  C    0.058917
    22  O   -0.231228
    23  C   -0.015621
    24  N   -0.372811
    25  C    0.091475
    26  C   -0.107406
    27  C   -0.062958
    28  C    0.055501
    29  C    0.009002
    30  C    0.009660
    31  C   -0.064318
    32  N   -0.405657
    33  C    0.114682
    34  C   -0.207883
    35  C   -0.016054
    36  C    0.137428
    37  C    0.069649
    38  C    0.119905
    39  O   -0.196904
    40  C   -0.033015
    41  C    0.261305
    42  O   -0.261017
    43  O   -0.368807
    44  C    0.150917
    45  H   -0.002767
    46  H    0.022837
    47  H   -0.004905
    48  H    0.035049
    49  H    0.041380
    50  H    0.032870
    51  H    0.028411
    52  H    0.050074
    53  H    0.018942
    54  H    0.026542
    55  H    0.050889
    56  H    0.056936
    57  H    0.044746
    58  H    0.041487
    59  H    0.050778
    60  H    0.068983
    61  H    0.058485
    62  H    0.045019
    63  H    0.042290
    64  H    0.041190
    65  H    0.028448
    66  H    0.042525
    67  H    0.055037
    68  H    0.035768
    69  H    0.040981
    70  H    0.024802
    71  H    0.026483
    72  H    0.047269
    73  H    0.017902
    74  H    0.060190
    75  H    0.049815
    76  H    0.082253
    77  H    0.044719
    78  H    0.058981
    79  H    0.053335
    80  Mg   0.967356
    81  C    0.011701
    82  C   -0.103190
    83  C   -0.069914
    84  C   -0.098380
    85  N   -0.364262
    86  C   -0.034121
    87  C   -0.002565
    88  C   -0.138213
    89  C    0.092921
    90  C    0.019378
    91  C   -0.009320
    92  C   -0.148494
    93  H    0.036425
    94  N   -0.481863
    95  C    0.200856
    96  C   -0.180028
    97  C   -0.027871
    98  C    0.193929
    99  C    0.079769
   100  C    0.021685
   101  O   -0.252861
   102  C   -0.034171
   103  N   -0.411033
   104  C    0.038725
   105  C   -0.045279
   106  C   -0.088390
   107  C    0.134237
   108  C   -0.000925
   109  C   -0.040908
   110  C   -0.058065
   111  N   -0.418729
   112  C    0.119491
   113  C   -0.179177
   114  C   -0.042504
   115  C    0.138809
   116  C    0.103181
   117  C    0.092950
   118  O   -0.217709
   119  C   -0.114353
   120  C    0.257073
   121  O   -0.187521
   122  O   -0.389622
   123  C    0.148385
   124  H   -0.010833
   125  H    0.026011
   126  H   -0.021915
   127  H    0.032240
   128  H    0.032585
   129  H    0.050015
   130  H    0.027210
   131  H    0.046144
   132  H    0.042940
   133  H    0.040742
   134  H    0.074270
   135  H    0.060355
   136  H    0.058290
   137  H    0.036964
   138  H    0.054235
   139  H    0.050740
   140  H    0.073576
   141  H    0.053312
   142  H    0.052109
   143  H    0.039554
   144  H    0.033955
   145  H    0.046098
   146  H    0.057265
   147  H    0.033746
   148  H    0.029741
   149  H    0.026213
   150  H    0.038845
   151  H    0.035057
   152  H    0.041515
   153  H    0.054326
   154  H    0.067142
   155  H    0.052253
   156  H    0.050776
   157  H    0.036967
   158  H    0.060154
 Sum of Mulliken charges =  -0.00000

 Dipole moment (field-independent basis, Debye):
    X=             -6.4209    Y=             -0.4661    Z=              3.2111  Tot=              7.1942
 Quadrupole moment (field-independent basis, Debye-Ang):
   XX=           -624.1781   YY=           -486.2959   ZZ=           -501.6942
   XY=            -16.5340   XZ=            -74.0263   YZ=             37.2907

 Normal termination of Gaussian 16 at Mon Sep 20 00:54:49 2021.
