 Gaussian 16, Revision A.03,
 Gaussian 16:  ES64L-G16RevA.03 25-Dec-2016

 --------------------------------
 #p wB97XD/Def2SVP td=(nstates=5)
 --------------------------------

 --------------------------------
 TDDFT excited states in gaussian
 --------------------------------
 Symbolic Z-matrix:
 Charge =  0 Multiplicity = 1

                         Standard orientation:
 ---------------------------------------------------------------------
 Center     Atomic      Atomic             Coordinates (Angstroms)
 Number     Number       Type             X           Y           Z
 ---------------------------------------------------------------------
      1         12           0       31.977034    0.488239   -0.540952
      2          6           0       29.312531   -1.815300    0.488491
      3          6           0       29.529693    2.929440   -0.365611
      4          6           0       34.356108    2.605538   -0.376882
      5          6           0       34.183621   -2.319827   -0.144079
      6          7           0       29.621911    0.509263    0.171600
      7          6           0       28.774846   -0.519170    0.522408
      8          6           0       27.379946    0.074805    0.939805
      9          6           0       27.395723    1.514483    0.397324
     10          6           0       28.924562    1.669280    0.047234
     11          6           0       26.522488    1.852286   -0.881831
     12          6           0       27.077675   -0.043685    2.472932
     13          6           0       25.654005   -0.389219    2.853167
     14          1           0       24.755838    0.785995    3.351895
     15          7           0       31.968798    2.467307   -0.517958
     16          6           0       30.897558    3.317854   -0.557206
     17          6           0       31.373268    4.728289   -0.570088
     18          6           0       32.788383    4.622398   -0.547715
     19          6           0       33.087124    3.196895   -0.435306
     20          6           0       30.510108    5.999824   -0.526871
     21          6           0       33.825581    5.738429   -0.393364
     22          8           0       33.410306    6.894130   -0.390258
     23          6           0       35.217039    5.538709   -0.287788
     24          7           0       34.006334    0.157703   -0.019800
     25          6           0       34.795675    1.255065   -0.301307
     26          6           0       36.303953    0.793299   -0.266944
     27          6           0       36.215732   -0.726696    0.119400
     28          6           0       34.711936   -0.995419   -0.128169
     29          6           0       37.118052    1.054217   -1.563936
     30          6           0       36.707093   -1.180981    1.552758
     31          6           0       38.219128   -1.355737    1.777414
     32          7           0       31.874833   -1.659346   -0.004897
     33          6           0       32.833402   -2.652712   -0.023520
     34          6           0       32.254253   -3.962613    0.151283
     35          6           0       30.850273   -3.678844    0.342841
     36          6           0       30.618143   -2.259591    0.304485
     37          6           0       33.046012   -5.232775    0.204034
     38          6           0       29.627446   -4.279154    0.640553
     39          8           0       29.354090   -5.423488    0.976612
     40          6           0       28.606106   -3.129437    0.878730
     41          6           0       27.476074   -3.422127   -0.080507
     42          8           0       26.288025   -3.429764    0.251261
     43          8           0       27.856610   -3.535589   -1.478125
     44          6           0       26.706817   -3.455039   -2.377576
     45          1           0       28.764881    3.707868   -0.389715
     46          1           0       35.266008    3.196897   -0.498630
     47          1           0       34.966588   -3.080895   -0.139622
     48          1           0       26.609263   -0.392200    0.324912
     49          1           0       27.207134    2.245846    1.183219
     50          1           0       25.681797    2.427666   -0.494750
     51          1           0       26.109395    0.947557   -1.326894
     52          1           0       27.048985    2.356765   -1.691951
     53          1           0       27.190784    0.885503    3.032014
     54          1           0       27.691601   -0.825580    2.920479
     55          1           0       25.707735   -1.216348    3.561055
     56          1           0       25.160664   -0.772730    1.959495
     57          1           0       30.932225    6.754769   -1.190711
     58          1           0       30.507455    6.275986    0.527498
     59          1           0       29.507234    5.804737   -0.904280
     60          1           0       35.572678    5.139414   -1.238158
     61          1           0       35.531006    4.941860    0.568596
     62          1           0       35.548111    6.547890   -0.040361
     63          1           0       36.891543    1.273406    0.514857
     64          1           0       36.717922   -1.353073   -0.617466
     65          1           0       37.489406    0.075335   -1.867544
     66          1           0       37.952072    1.710303   -1.316770
     67          1           0       36.386137    1.504406   -2.235673
     68          1           0       36.212010   -2.142362    1.693486
     69          1           0       36.437958   -0.443370    2.309085
     70          1           0       38.593083   -1.173878    0.769441
     71          1           0       38.469884   -2.396741    1.986156
     72          1           0       38.695435   -0.688465    2.495323
     73          1           0       33.763335   -5.089327    1.011034
     74          1           0       33.669833   -5.393317   -0.675086
     75          1           0       32.457274   -6.086614    0.539579
     76          1           0       28.231798   -3.246743    1.895520
     77          1           0       27.270392   -3.090316   -3.237167
     78          1           0       25.890966   -2.870771   -1.952051
     79          1           0       26.425815   -4.483390   -2.605139
     80         12           0      -31.983755    0.142805    0.356016
     81          6           0      -29.540926   -1.756817   -1.277589
     82          6           0      -32.733082    1.701377   -2.591859
     83          6           0      -34.026151    2.133935    2.030893
     84          6           0      -30.966553   -1.429066    3.400839
     85          7           0      -31.163070   -0.001694   -1.697609
     86          6           0      -30.221385   -0.877386   -2.190648
     87          6           0      -30.212842   -0.850127   -3.707928
     88          6           0      -31.034384    0.456787   -4.043969
     89          6           0      -31.759127    0.664763   -2.670564
     90          6           0      -30.161644    1.646059   -4.424336
     91          6           0      -30.689960   -2.237666   -4.272703
     92          6           0      -30.916655   -2.233880   -5.810011
     93          1           0      -30.057771   -1.286491   -6.621624
     94          7           0      -33.180348    1.637835   -0.189462
     95          6           0      -33.294450    2.231446   -1.440235
     96          6           0      -34.222165    3.376021   -1.418347
     97          6           0      -34.622072    3.459204   -0.049099
     98          6           0      -33.925280    2.386516    0.655867
     99          6           0      -34.603164    4.136858   -2.632716
    100          6           0      -35.567435    4.474527    0.539436
    101          8           0      -35.903455    4.448125    1.755865
    102          6           0      -36.220210    5.523915   -0.318903
    103          7           0      -32.472056    0.281623    2.440698
    104          6           0      -33.355002    1.204529    2.823036
    105          6           0      -33.464964    1.241335    4.410700
    106          6           0      -32.415900    0.083689    4.873589
    107          6           0      -31.906942   -0.376434    3.506851
    108          6           0      -33.099482    2.700397    4.906138
    109          6           0      -33.081857   -1.140530    5.635783
    110          6           0      -33.260790   -0.966124    7.171300
    111          7           0      -30.550050   -1.217153    1.000637
    112          6           0      -30.307171   -1.867506    2.239300
    113          6           0      -29.215811   -2.921556    2.057163
    114          6           0      -28.832152   -2.867430    0.720981
    115          6           0      -29.737920   -1.864362    0.105102
    116          6           0      -28.680288   -3.873572    3.080290
    117          6           0      -27.995120   -3.434813   -0.310104
    118          8           0      -27.128930   -4.314815   -0.283541
    119          6           0      -28.547391   -2.862905   -1.708696
    120          6           0      -27.444300   -2.360586   -2.611852
    121          8           0      -26.994854   -1.247257   -2.569741
    122          8           0      -27.181548   -3.278041   -3.654177
    123          6           0      -26.486265   -2.764716   -4.844052
    124          1           0      -32.820670    2.134617   -3.590765
    125          1           0      -34.690307    2.804559    2.580372
    126          1           0      -30.536077   -1.870938    4.301999
    127          1           0      -29.177527   -0.734466   -4.026096
    128          1           0      -31.813842    0.342206   -4.797933
    129          1           0      -30.507226    1.959615   -5.409287
    130          1           0      -29.117115    1.343837   -4.352265
    131          1           0      -30.389539    2.539690   -3.843802
    132          1           0      -31.476745   -2.495430   -3.564424
    133          1           0      -29.884670   -2.933053   -4.038361
    134          1           0      -31.974378   -1.986411   -5.900357
    135          1           0      -30.729877   -3.242063   -6.179575
    136          1           0      -34.199526    5.127140   -2.422423
    137          1           0      -35.675113    4.127256   -2.828220
    138          1           0      -34.166954    3.865403   -3.594888
    139          1           0      -36.866777    5.033503   -1.045309
    140          1           0      -35.316165    5.990160   -0.712566
    141          1           0      -36.768738    6.306668    0.204306
    142          1           0      -34.504774    0.935485    4.532639
    143          1           0      -31.470350    0.406477    5.311369
    144          1           0      -32.821829    3.392022    4.110921
    145          1           0      -32.253747    2.656519    5.592890
    146          1           0      -34.019747    3.100306    5.330891
    147          1           0      -32.647758   -2.096131    5.343086
    148          1           0      -34.095794   -1.211378    5.243405
    149          1           0      -34.317316   -1.127924    7.382066
    150          1           0      -32.876246    0.013740    7.454606
    151          1           0      -32.700207   -1.711524    7.735918
    152          1           0      -29.080238   -4.853596    2.819201
    153          1           0      -28.984104   -3.562945    4.080675
    154          1           0      -27.601521   -4.022728    3.121303
    155          1           0      -29.097895   -3.682235   -2.170114
    156          1           0      -25.438583   -2.708794   -4.549727
    157          1           0      -26.956061   -1.848125   -5.201351
    158          1           0      -26.653920   -3.498949   -5.631566
 ---------------------------------------------------------------------

 SCF Done:  E(RwB97XD) =  -4070.57194903     A.U. after   18 cycles

 Excitation energies and oscillator strengths:

 Excited State   1:      Singlet-A      1.6549 eV  749.20 nm  f=0.3758  <S**2>=0.000
     310 -> 316        0.20542
     312 -> 314        0.67801
     310 <- 316        0.12141
 This state for optimization and/or second-order correction.
 Total Energy, E(TD-HF/TD-DFT) =  -4070.51113307
 Copying the excited state density for this state as the 1-particle RhoCI density.

 Excited State   2:      Singlet-A      1.6685 eV  743.08 nm  f=0.3568  <S**2>=0.000
     309 -> 315       -0.20210
     311 -> 313        0.67711
     309 <- 315       -0.11956

 Excited State   3:      Singlet-A      2.1895 eV  566.28 nm  f=0.0673  <S**2>=0.000
     309 -> 313        0.61434
     311 -> 315        0.33149

 Excited State   4:      Singlet-A      2.2347 eV  554.82 nm  f=0.0335  <S**2>=0.000
     310 -> 314        0.58750
     312 -> 316       -0.38607

 Excited State   5:      Singlet-A      3.2141 eV  385.75 nm  f=0.0156  <S**2>=0.000
     308 -> 313        0.61821
     308 -> 318        0.12007
     311 -> 315       -0.24304

 The electronic state is 1-A.
 Alpha  occ. eigenvalues --  -46.97090 -46.94412 -19.29208 -19.28927 -19.25216
 Alpha  occ. eigenvalues --  -19.25020 -19.24258 -19.23824 -19.23447 -19.22889
 Alpha  occ. eigenvalues --  -14.47337 -14.46732 -14.46558 -14.46117 -14.45408
 Alpha  occ. eigenvalues --  -14.44571 -14.44495 -14.43731 -10.43271 -10.43261
 Alpha  occ. eigenvalues --  -10.39573 -10.39229 -10.38886 -10.37476 -10.36403
 Alpha  occ. eigenvalues --  -10.35955 -10.35637 -10.35595 -10.35480 -10.35448
 Alpha  occ. eigenvalues --  -10.34995 -10.34933 -10.34753 -10.34654 -10.34481
 Alpha  occ. eigenvalues --  -10.34382 -10.34363 -10.34359 -10.34165 -10.33864
 Alpha  occ. eigenvalues --  -10.33586 -10.33485 -10.33401 -10.33356 -10.33233
 Alpha  occ. eigenvalues --  -10.33224 -10.33055 -10.32970 -10.32891 -10.32670
 Alpha  occ. eigenvalues --  -10.32608 -10.32437 -10.32362 -10.32341 -10.32290
 Alpha  occ. eigenvalues --  -10.32286 -10.32262 -10.32237 -10.32104 -10.31797
 Alpha  occ. eigenvalues --  -10.31745 -10.31691 -10.31583 -10.31562 -10.31389
 Alpha  occ. eigenvalues --  -10.31107 -10.30979 -10.30861 -10.30839 -10.30766
 Alpha  occ. eigenvalues --  -10.30720 -10.30630 -10.30607 -10.30504 -10.30370
 Alpha  occ. eigenvalues --  -10.30300 -10.30111 -10.30076 -10.30046 -10.30026
 Alpha  occ. eigenvalues --  -10.29643 -10.29611 -10.29420 -10.29245 -10.29189
 Alpha  occ. eigenvalues --  -10.29189  -3.22993  -3.20510  -1.96517  -1.96159
 Alpha  occ. eigenvalues --   -1.95912  -1.94110  -1.93623  -1.93513  -1.17613
 Alpha  occ. eigenvalues --   -1.16071  -1.12678  -1.11369  -1.11184  -1.10017
 Alpha  occ. eigenvalues --   -1.09975  -1.08541  -1.07100  -1.06319  -1.05471
 Alpha  occ. eigenvalues --   -1.05354  -1.05344  -1.04818  -1.03397  -1.03080
 Alpha  occ. eigenvalues --   -0.94865  -0.93573  -0.90888  -0.90845  -0.90814
 Alpha  occ. eigenvalues --   -0.90426  -0.90398  -0.89741  -0.89480  -0.88976
 Alpha  occ. eigenvalues --   -0.88876  -0.88637  -0.88232  -0.87847  -0.86917
 Alpha  occ. eigenvalues --   -0.86145  -0.85761  -0.85592  -0.84839  -0.84474
 Alpha  occ. eigenvalues --   -0.84110  -0.83807  -0.83106  -0.82682  -0.81952
 Alpha  occ. eigenvalues --   -0.81839  -0.80933  -0.80233  -0.79338  -0.79271
 Alpha  occ. eigenvalues --   -0.78951  -0.78887  -0.77758  -0.77691  -0.77222
 Alpha  occ. eigenvalues --   -0.76473  -0.74820  -0.74061  -0.73913  -0.73429
 Alpha  occ. eigenvalues --   -0.71337  -0.71094  -0.70545  -0.70505  -0.70281
 Alpha  occ. eigenvalues --   -0.69705  -0.69077  -0.68994  -0.67504  -0.67401
 Alpha  occ. eigenvalues --   -0.67321  -0.67106  -0.66994  -0.66025  -0.65906
 Alpha  occ. eigenvalues --   -0.65756  -0.63879  -0.63265  -0.62652  -0.62409
 Alpha  occ. eigenvalues --   -0.61805  -0.61460  -0.61256  -0.60902  -0.60694
 Alpha  occ. eigenvalues --   -0.59728  -0.59515  -0.59180  -0.58993  -0.58754
 Alpha  occ. eigenvalues --   -0.58661  -0.58123  -0.57811  -0.57584  -0.56743
 Alpha  occ. eigenvalues --   -0.56520  -0.56292  -0.56124  -0.55875  -0.55830
 Alpha  occ. eigenvalues --   -0.55676  -0.55593  -0.55470  -0.55221  -0.55191
 Alpha  occ. eigenvalues --   -0.54844  -0.54437  -0.54434  -0.54138  -0.53900
 Alpha  occ. eigenvalues --   -0.53824  -0.53672  -0.53639  -0.53413  -0.53345
 Alpha  occ. eigenvalues --   -0.53086  -0.52964  -0.52782  -0.52517  -0.52385
 Alpha  occ. eigenvalues --   -0.52029  -0.51809  -0.51791  -0.51504  -0.51451
 Alpha  occ. eigenvalues --   -0.51368  -0.51226  -0.51096  -0.50911  -0.50893
 Alpha  occ. eigenvalues --   -0.50770  -0.50558  -0.50422  -0.50329  -0.50081
 Alpha  occ. eigenvalues --   -0.50047  -0.50012  -0.49892  -0.49657  -0.49349
 Alpha  occ. eigenvalues --   -0.49234  -0.48774  -0.48651  -0.48462  -0.48095
 Alpha  occ. eigenvalues --   -0.48037  -0.48004  -0.47846  -0.47664  -0.47503
 Alpha  occ. eigenvalues --   -0.47310  -0.47129  -0.47086  -0.46899  -0.46761
 Alpha  occ. eigenvalues --   -0.46615  -0.46602  -0.46433  -0.46312  -0.46096
 Alpha  occ. eigenvalues --   -0.46019  -0.45905  -0.45718  -0.45558  -0.45409
 Alpha  occ. eigenvalues --   -0.45149  -0.45059  -0.44991  -0.44828  -0.44553
 Alpha  occ. eigenvalues --   -0.44468  -0.44379  -0.44254  -0.44217  -0.44092
 Alpha  occ. eigenvalues --   -0.44037  -0.43901  -0.43482  -0.43418  -0.43288
 Alpha  occ. eigenvalues --   -0.43251  -0.42817  -0.42246  -0.42164  -0.42114
 Alpha  occ. eigenvalues --   -0.42076  -0.41826  -0.41210  -0.41109  -0.40949
 Alpha  occ. eigenvalues --   -0.40772  -0.40458  -0.40095  -0.39889  -0.39806
 Alpha  occ. eigenvalues --   -0.39610  -0.39157  -0.38819  -0.38280  -0.38244
 Alpha  occ. eigenvalues --   -0.37798  -0.37336  -0.36540  -0.36476  -0.36132
 Alpha  occ. eigenvalues --   -0.35931  -0.35403  -0.35261  -0.33835  -0.33522
 Alpha  occ. eigenvalues --   -0.33470  -0.33201  -0.33059  -0.32588  -0.32443
 Alpha  occ. eigenvalues --   -0.32225  -0.32112  -0.30861  -0.26395  -0.25905
 Alpha  occ. eigenvalues --   -0.23263  -0.22213
 Alpha virt. eigenvalues --   -0.07131  -0.06230  -0.00798  -0.00233   0.01843
 Alpha virt. eigenvalues --    0.01883   0.03646   0.04264   0.04323   0.06321
 Alpha virt. eigenvalues --    0.06712   0.06822   0.06988   0.07706   0.08157

 Mulliken charges:
               1
     1  Mg   0.966295
     2  C   -0.023732
     3  C   -0.063264
     4  C   -0.092095
     5  C   -0.100989
     6  N   -0.282563
     7  C   -0.034184
     8  C    0.018354
     9  C   -0.119694
    10  C   -0.008145
    11  C    0.015365
    12  C    0.017526
    13  C   -0.125798
    14  H    0.022225
    15  N   -0.499575
    16  C    0.163281
    17  C   -0.190233
    18  C   -0.055650
    19  C    0.215252
    20  C    0.097116
    21  C    0.017736
    22  O   -0.245769
    23  C    0.020201
    24  N   -0.384895
    25  C    0.048379
    26  C   -0.125758
    27  C   -0.090028
    28  C    0.045131
    29  C    0.037754
    30  C   -0.003800
    31  C   -0.042742
    32  N   -0.423389
    33  C    0.155270
    34  C   -0.159598
    35  C   -0.021117
    36  C    0.159098
    37  C    0.093606
    38  C    0.074529
    39  O   -0.216349
    40  C   -0.098793
    41  C    0.286720
    42  O   -0.256822
    43  O   -0.417819
    44  C    0.139097
    45  H   -0.001247
    46  H   -0.023741
    47  H   -0.001919
    48  H    0.034645
    49  H    0.044276
    50  H    0.048584
    51  H    0.036650
    52  H    0.049362
    53  H    0.048459
    54  H    0.043927
    55  H    0.057367
    56  H    0.052611
    57  H    0.068202
    58  H    0.069328
    59  H    0.030870
    60  H    0.075412
    61  H    0.063998
    62  H    0.054813
    63  H    0.035887
    64  H    0.019936
    65  H    0.037842
    66  H    0.042221
    67  H    0.042230
    68  H    0.028944
    69  H    0.036392
    70  H    0.015401
    71  H    0.040184
    72  H    0.050247
    73  H    0.034109
    74  H    0.047816
    75  H    0.062825
    76  H    0.072092
    77  H    0.050726
    78  H    0.068831
    79  H    0.052582
    80  Mg   0.984794
    81  C   -0.029976
    82  C   -0.097783
    83  C   -0.087979
    84  C   -0.091615
    85  N   -0.320840
    86  C   -0.001424
    87  C   -0.052545
    88  C   -0.133749
    89  C    0.011231
    90  C    0.044509
    91  C   -0.023310
    92  C   -0.099802
    93  H    0.046663
    94  N   -0.499586
    95  C    0.214825
    96  C   -0.158529
    97  C   -0.076655
    98  C    0.175139
    99  C    0.073470
   100  C    0.037671
   101  O   -0.272516
   102  C    0.020716
   103  N   -0.348870
   104  C    0.045769
   105  C   -0.087828
   106  C   -0.049394
   107  C    0.040501
   108  C    0.013481
   109  C   -0.039894
   110  C   -0.032204
   111  N   -0.451856
   112  C    0.125021
   113  C   -0.194053
   114  C   -0.009025
   115  C    0.139205
   116  C    0.070659
   117  C    0.151146
   118  O   -0.214996
   119  C   -0.144178
   120  C    0.289233
   121  O   -0.219307
   122  O   -0.405886
   123  C    0.143386
   124  H   -0.011155
   125  H    0.021184
   126  H    0.001228
   127  H    0.028723
   128  H    0.029433
   129  H    0.028577
   130  H    0.059101
   131  H    0.036166
   132  H    0.041283
   133  H    0.036934
   134  H    0.058419
   135  H    0.059626
   136  H    0.054145
   137  H    0.057895
   138  H    0.036155
   139  H    0.065619
   140  H    0.039211
   141  H    0.055185
   142  H    0.050624
   143  H    0.044473
   144  H    0.052664
   145  H    0.038281
   146  H    0.049587
   147  H    0.034815
   148  H    0.019196
   149  H    0.041749
   150  H    0.039435
   151  H    0.036831
   152  H    0.060595
   153  H    0.027132
   154  H    0.060475
   155  H    0.091787
   156  H    0.068552
   157  H    0.050138
   158  H    0.052319
 Sum of Mulliken charges =  -0.00000

 Dipole moment (field-independent basis, Debye):
    X=              0.7972    Y=              4.4037    Z=             -5.3979  Tot=              7.0119
 Quadrupole moment (field-independent basis, Debye-Ang):
   XX=            -52.9003   YY=           -562.8335   ZZ=           -466.8348
   XY=             39.4326   XZ=             38.4152   YZ=             -5.4347

 Normal termination of Gaussian 16 at Mon Sep 20 06:30:06 2021.
