 Gaussian 16, Revision A.03,
 Gaussian 16:  ES64L-G16RevA.03 25-Dec-2016

 --------------------------------
 #p wB97XD/Def2SVP td=(nstates=5)
 --------------------------------

 --------------------------------
 TDDFT excited states in gaussian
 --------------------------------
 Symbolic Z-matrix:
 Charge =  0 Multiplicity = 1

                         Standard orientation:
 ---------------------------------------------------------------------
 Center     Atomic      Atomic             Coordinates (Angstroms)
 Number     Number       Type             X           Y           Z
 ---------------------------------------------------------------------
      1         12           0        5.280216   -0.560971   -0.333861
      2          6           0        3.021657    1.887501   -1.099255
      3          6           0        7.764372    1.656482   -0.214784
      4          6           0        7.307468   -3.064169    0.162920
      5          6           0        2.681608   -2.883550   -1.079123
      6          7           0        5.423222    1.554275   -0.797925
      7          6           0        4.330572    2.357843   -0.818152
      8          6           0        4.686263    3.795233   -0.553447
      9          6           0        6.265650    3.715872   -0.559071
     10          6           0        6.531044    2.226819   -0.608685
     11          6           0        6.949799    4.535501   -1.679388
     12          6           0        3.974547    4.435748    0.788414
     13          6           0        3.308364    5.815716    0.678261
     14          1           0        3.818618    6.758019   -0.456907
     15          7           0        7.150464   -0.666915    0.092856
     16          6           0        8.075403    0.328099    0.104487
     17          6           0        9.420808   -0.147705    0.315970
     18          6           0        9.277478   -1.466110    0.627111
     19          6           0        7.890354   -1.799793    0.177244
     20          6           0       10.547611    0.851017    0.125082
     21          6           0       10.347268   -2.468619    1.103705
     22          8           0       10.136426   -3.643127    1.298122
     23          6           0       11.710261   -1.866103    1.276351
     24          7           0        5.028435   -2.684284   -0.623023
     25          6           0        6.033653   -3.475166   -0.206364
     26          6           0        5.617703   -4.949242   -0.235231
     27          6           0        4.055744   -4.869540   -0.322994
     28          6           0        3.888812   -3.390822   -0.728920
     29          6           0        6.258114   -5.893535   -1.339728
     30          6           0        3.265084   -5.139137    1.012409
     31          6           0        3.468533   -4.321141    2.260500
     32          7           0        3.223327   -0.602091   -0.880488
     33          6           0        2.305769   -1.594198   -1.240983
     34          6           0        1.006909   -1.019822   -1.614385
     35          6           0        1.239979    0.362682   -1.563400
     36          6           0        2.588073    0.521631   -1.112203
     37          6           0       -0.282318   -1.739643   -1.916507
     38          6           0        0.687584    1.623455   -1.764760
     39          8           0       -0.399757    2.003346   -2.170308
     40          6           0        1.720037    2.661477   -1.253773
     41          6           0        1.733093    3.662519   -2.345029
     42          8           0        2.341667    3.549860   -3.411880
     43          8           0        0.884739    4.697038   -2.075265
     44          6           0        0.525627    5.632966   -3.145399
     45          1           0        8.508264    2.424958    0.006517
     46          1           0        7.912602   -3.947935    0.372082
     47          1           0        1.975176   -3.702352   -1.235578
     48          1           0        4.437503    4.417121   -1.413442
     49          1           0        6.636918    4.042172    0.412174
     50          1           0        7.276816    3.854060   -2.464658
     51          1           0        7.830992    5.022272   -1.261445
     52          1           0        6.201004    5.234536   -2.052082
     53          1           0        4.774705    4.482694    1.527192
     54          1           0        3.172466    3.787832    1.140511
     55          1           0        3.514661    6.405213    1.571193
     56          1           0        2.224703    5.701091    0.655974
     57          1           0       10.627280    1.274298   -0.876333
     58          1           0       11.586812    0.523880    0.153136
     59          1           0       10.335843    1.553909    0.930835
     60          1           0       11.673209   -1.021013    1.963366
     61          1           0       11.994648   -1.663078    0.244083
     62          1           0       12.493527   -2.462755    1.742534
     63          1           0        5.997327   -5.301313    0.724614
     64          1           0        3.722696   -5.476968   -1.164840
     65          1           0        6.954791   -5.317922   -1.948688
     66          1           0        5.505332   -6.209078   -2.061147
     67          1           0        6.740869   -6.803952   -0.981240
     68          1           0        3.537628   -6.182617    1.172487
     69          1           0        2.186345   -5.081937    0.870516
     70          1           0        4.328951   -3.663745    2.128894
     71          1           0        3.697492   -4.967474    3.107673
     72          1           0        2.663546   -3.637839    2.530308
     73          1           0       -0.535835   -1.711416   -2.975312
     74          1           0       -1.092734   -1.304522   -1.331455
     75          1           0       -0.041689   -2.777165   -1.683326
     76          1           0        1.452644    3.051766   -0.271625
     77          1           0       -0.441494    6.106130   -2.971358
     78          1           0        0.664273    5.196044   -4.133144
     79          1           0        1.232712    6.457533   -3.234209
     80         12           0       -4.989373   -0.701563    0.048065
     81          6           0       -2.934846    1.962345    0.986951
     82          6           0       -7.594607    1.631340   -0.206383
     83          6           0       -7.200164   -3.186831   -0.319120
     84          6           0       -2.651894   -2.876546    1.332177
     85          7           0       -5.240732    1.618776    0.253653
     86          6           0       -4.225901    2.401245    0.707842
     87          6           0       -4.701376    3.902013    0.843589
     88          6           0       -6.295185    3.717041    0.692998
     89          6           0       -6.421209    2.244448    0.267785
     90          6           0       -6.919015    3.860349    2.126630
     91          6           0       -4.106754    4.694149   -0.378291
     92          6           0       -4.539740    6.175799   -0.548733
     93          1           0       -4.951652    6.900341   -1.795617
     94          7           0       -7.028885   -0.731384   -0.415523
     95          6           0       -7.955965    0.318454   -0.525307
     96          6           0       -9.207290   -0.242826   -0.818685
     97          6           0       -9.080168   -1.607441   -1.041196
     98          6           0       -7.726308   -1.896352   -0.597839
     99          6           0      -10.391353    0.639294   -1.044190
    100          6           0      -10.137293   -2.678865   -1.467487
    101          8           0       -9.896876   -3.867839   -1.647707
    102          6           0      -11.550693   -2.293703   -1.912780
    103          7           0       -4.947878   -2.709544    0.566934
    104          6           0       -5.936477   -3.542463    0.171767
    105          6           0       -5.579814   -5.035306    0.311702
    106          6           0       -4.176841   -4.934819    0.972259
    107          6           0       -3.826971   -3.461544    0.863399
    108          6           0       -6.680364   -5.904662    1.005696
    109          6           0       -3.068249   -5.880205    0.433688
    110          6           0       -2.479402   -5.527470   -0.866013
    111          7           0       -3.123090   -0.559666    0.889394
    112          6           0       -2.309429   -1.482040    1.348496
    113          6           0       -1.017032   -0.920722    1.755024
    114          6           0       -1.264944    0.480820    1.601707
    115          6           0       -2.547374    0.652806    1.118559
    116          6           0        0.281477   -1.575207    1.847751
    117          6           0       -0.629435    1.779464    1.740532
    118          8           0        0.511232    2.074626    2.016613
    119          6           0       -1.745428    2.777069    1.407417
    120          6           0       -1.990224    3.760467    2.556730
    121          8           0       -2.612649    3.498934    3.553089
    122          8           0       -1.329012    4.937025    2.296820
    123          6           0       -1.525814    5.945672    3.363348
    124          1           0       -8.362280    2.380085   -0.408380
    125          1           0       -7.820889   -4.029271   -0.632121
    126          1           0       -2.050568   -3.763341    1.539815
    127          1           0       -4.479553    4.323939    1.824162
    128          1           0       -6.770603    4.414931    0.002648
    129          1           0       -7.254730    2.941307    2.605934
    130          1           0       -7.900409    4.333808    2.089114
    131          1           0       -6.274750    4.373631    2.840180
    132          1           0       -4.348337    4.127557   -1.277168
    133          1           0       -3.021434    4.620316   -0.304384
    134          1           0       -3.749009    6.734485   -0.047159
    135          1           0       -5.452543    6.181051    0.045689
    136          1           0      -10.220549    1.706294   -0.898747
    137          1           0      -11.231623    0.216226   -0.491979
    138          1           0      -10.599487    0.518795   -2.107683
    139          1           0      -12.167512   -1.884746   -1.112462
    140          1           0      -12.085401   -3.073859   -2.454814
    141          1           0      -11.428576   -1.540938   -2.691808
    142          1           0       -5.535605   -5.265266   -0.752481
    143          1           0       -4.368879   -5.132141    2.026911
    144          1           0       -7.673341   -5.494394    0.824912
    145          1           0       -6.505558   -5.911713    2.081885
    146          1           0       -6.711339   -6.926915    0.628113
    147          1           0       -3.610451   -6.822345    0.359515
    148          1           0       -2.310233   -6.032285    1.202296
    149          1           0       -1.695517   -4.784616   -0.719237
    150          1           0       -3.245354   -5.197244   -1.567433
    151          1           0       -1.953716   -6.369885   -1.316540
    152          1           0        0.205791   -2.434178    1.180593
    153          1           0        0.592322   -2.033894    2.786544
    154          1           0        1.021493   -0.836946    1.540619
    155          1           0       -1.445834    3.320002    0.510392
    156          1           0       -0.607367    6.524078    3.461564
    157          1           0       -1.609332    5.560008    4.379634
    158          1           0       -2.317128    6.645758    3.097364
 ---------------------------------------------------------------------

 SCF Done:  E(RwB97XD) =  -4070.64428941     A.U. after   20 cycles

 Excitation energies and oscillator strengths:

 Excited State   1:      Singlet-A      1.6486 eV  752.08 nm  f=0.8942  <S**2>=0.000
     309 -> 316       -0.14239
     310 -> 315        0.10473
     311 -> 313        0.55290
     312 -> 314       -0.39950
 This state for optimization and/or second-order correction.
 Total Energy, E(TD-HF/TD-DFT) =  -4070.58370593
 Copying the excited state density for this state as the 1-particle RhoCI density.

 Excited State   2:      Singlet-A      1.7355 eV  714.39 nm  f=0.0256  <S**2>=0.000
     309 -> 316       -0.10345
     310 -> 315       -0.14801
     311 -> 313        0.39034
     312 -> 314        0.54680

 Excited State   3:      Singlet-A      2.1965 eV  564.47 nm  f=0.0122  <S**2>=0.000
     309 -> 313        0.48807
     309 -> 314       -0.11357
     310 -> 313        0.15342
     310 -> 314        0.36687
     311 -> 316        0.20193
     312 -> 315        0.18655

 Excited State   4:      Singlet-A      2.2173 eV  559.16 nm  f=0.1308  <S**2>=0.000
     309 -> 313       -0.38316
     309 -> 314       -0.11711
     310 -> 314        0.47085
     311 -> 316       -0.17187
     312 -> 315        0.26416

 Excited State   5:      Singlet-A      2.6495 eV  467.96 nm  f=0.0001  <S**2>=0.000
     312 -> 313        0.69284

 The electronic state is 1-A.
 Alpha  occ. eigenvalues --  -46.94736 -46.93868 -19.30958 -19.28826 -19.25204
 Alpha  occ. eigenvalues --  -19.24676 -19.24284 -19.24128 -19.22871 -19.22522
 Alpha  occ. eigenvalues --  -14.46530 -14.45825 -14.45357 -14.45253 -14.44240
 Alpha  occ. eigenvalues --  -14.43510 -14.43462 -14.42910 -10.43472 -10.41650
 Alpha  occ. eigenvalues --  -10.39987 -10.39648 -10.38601 -10.37236 -10.35573
 Alpha  occ. eigenvalues --  -10.34834 -10.34562 -10.34459 -10.34221 -10.34207
 Alpha  occ. eigenvalues --  -10.34191 -10.34158 -10.33940 -10.33917 -10.33825
 Alpha  occ. eigenvalues --  -10.33711 -10.33485 -10.33320 -10.32757 -10.32572
 Alpha  occ. eigenvalues --  -10.32418 -10.32345 -10.32263 -10.32262 -10.32238
 Alpha  occ. eigenvalues --  -10.32208 -10.31628 -10.31585 -10.31569 -10.31525
 Alpha  occ. eigenvalues --  -10.31516 -10.31427 -10.31405 -10.31395 -10.31380
 Alpha  occ. eigenvalues --  -10.31378 -10.31347 -10.31332 -10.31245 -10.31115
 Alpha  occ. eigenvalues --  -10.30995 -10.30938 -10.30862 -10.30788 -10.30700
 Alpha  occ. eigenvalues --  -10.30571 -10.30257 -10.30173 -10.30141 -10.30059
 Alpha  occ. eigenvalues --  -10.30058 -10.30024 -10.29753 -10.29724 -10.29695
 Alpha  occ. eigenvalues --  -10.29470 -10.29467 -10.29452 -10.29235 -10.29066
 Alpha  occ. eigenvalues --  -10.28901 -10.28866 -10.28822 -10.28668 -10.28114
 Alpha  occ. eigenvalues --  -10.27659  -3.20747  -3.20127  -1.94320  -1.93883
 Alpha  occ. eigenvalues --   -1.93705  -1.93688  -1.93272  -1.93138  -1.18892
 Alpha  occ. eigenvalues --   -1.16654  -1.13472  -1.12737  -1.12441  -1.11005
 Alpha  occ. eigenvalues --   -1.10860  -1.07722  -1.07215  -1.06705  -1.06300
 Alpha  occ. eigenvalues --   -1.05733  -1.05490  -1.05110  -1.04610  -1.04249
 Alpha  occ. eigenvalues --   -0.95490  -0.93781  -0.91243  -0.91129  -0.90293
 Alpha  occ. eigenvalues --   -0.90034  -0.89673  -0.89557  -0.89257  -0.89202
 Alpha  occ. eigenvalues --   -0.88993  -0.88902  -0.88157  -0.87813  -0.85762
 Alpha  occ. eigenvalues --   -0.85691  -0.85330  -0.85160  -0.84344  -0.84075
 Alpha  occ. eigenvalues --   -0.83950  -0.83201  -0.82648  -0.82561  -0.82139
 Alpha  occ. eigenvalues --   -0.82103  -0.80641  -0.80266  -0.79357  -0.79062
 Alpha  occ. eigenvalues --   -0.78467  -0.78302  -0.77777  -0.77174  -0.76816
 Alpha  occ. eigenvalues --   -0.76543  -0.74225  -0.74196  -0.73529  -0.73274
 Alpha  occ. eigenvalues --   -0.71786  -0.71287  -0.70905  -0.70618  -0.70008
 Alpha  occ. eigenvalues --   -0.69639  -0.68766  -0.68751  -0.67055  -0.66742
 Alpha  occ. eigenvalues --   -0.66604  -0.66423  -0.66302  -0.66221  -0.65740
 Alpha  occ. eigenvalues --   -0.65368  -0.64332  -0.63352  -0.62814  -0.61878
 Alpha  occ. eigenvalues --   -0.61218  -0.61093  -0.60862  -0.60792  -0.60330
 Alpha  occ. eigenvalues --   -0.60011  -0.59397  -0.59330  -0.59204  -0.59003
 Alpha  occ. eigenvalues --   -0.58270  -0.57983  -0.57459  -0.57239  -0.57034
 Alpha  occ. eigenvalues --   -0.56840  -0.56727  -0.56443  -0.56333  -0.56037
 Alpha  occ. eigenvalues --   -0.55574  -0.55100  -0.55029  -0.54909  -0.54746
 Alpha  occ. eigenvalues --   -0.54480  -0.54286  -0.54247  -0.54219  -0.53984
 Alpha  occ. eigenvalues --   -0.53799  -0.53581  -0.53310  -0.53030  -0.52795
 Alpha  occ. eigenvalues --   -0.52545  -0.52388  -0.52201  -0.52078  -0.52036
 Alpha  occ. eigenvalues --   -0.51880  -0.51746  -0.51409  -0.51289  -0.51132
 Alpha  occ. eigenvalues --   -0.51032  -0.50895  -0.50758  -0.50666  -0.50401
 Alpha  occ. eigenvalues --   -0.50294  -0.50235  -0.50189  -0.49682  -0.49639
 Alpha  occ. eigenvalues --   -0.49584  -0.49298  -0.49188  -0.48829  -0.48719
 Alpha  occ. eigenvalues --   -0.48419  -0.48411  -0.48142  -0.47985  -0.47859
 Alpha  occ. eigenvalues --   -0.47637  -0.47491  -0.47257  -0.47116  -0.46956
 Alpha  occ. eigenvalues --   -0.46849  -0.46791  -0.46712  -0.46414  -0.46321
 Alpha  occ. eigenvalues --   -0.46069  -0.46012  -0.45839  -0.45738  -0.45659
 Alpha  occ. eigenvalues --   -0.45614  -0.45433  -0.45373  -0.45354  -0.45173
 Alpha  occ. eigenvalues --   -0.45001  -0.44913  -0.44757  -0.44546  -0.44440
 Alpha  occ. eigenvalues --   -0.44413  -0.44334  -0.44214  -0.44099  -0.44028
 Alpha  occ. eigenvalues --   -0.43665  -0.43579  -0.43444  -0.43302  -0.43088
 Alpha  occ. eigenvalues --   -0.42783  -0.42587  -0.42393  -0.42214  -0.41969
 Alpha  occ. eigenvalues --   -0.41814  -0.41344  -0.41048  -0.40670  -0.40596
 Alpha  occ. eigenvalues --   -0.40126  -0.40004  -0.39718  -0.39519  -0.39390
 Alpha  occ. eigenvalues --   -0.39064  -0.38510  -0.38413  -0.37988  -0.37894
 Alpha  occ. eigenvalues --   -0.37811  -0.36837  -0.36732  -0.35995  -0.35945
 Alpha  occ. eigenvalues --   -0.35148  -0.35017  -0.34542  -0.34274  -0.33373
 Alpha  occ. eigenvalues --   -0.33081  -0.32960  -0.32816  -0.32489  -0.32002
 Alpha  occ. eigenvalues --   -0.31781  -0.31493  -0.31097  -0.25452  -0.25289
 Alpha  occ. eigenvalues --   -0.22634  -0.22015
 Alpha virt. eigenvalues --   -0.06486  -0.05789   0.00564   0.00890   0.02447
 Alpha virt. eigenvalues --    0.02784   0.04439   0.05064   0.05937   0.06510
 Alpha virt. eigenvalues --    0.07511   0.08155   0.08376   0.08923   0.09120

 Mulliken charges:
               1
     1  Mg   0.994744
     2  C    0.024595
     3  C   -0.117257
     4  C   -0.081909
     5  C   -0.117734
     6  N   -0.331406
     7  C   -0.016120
     8  C   -0.039989
     9  C   -0.153358
    10  C    0.076447
    11  C    0.047419
    12  C   -0.000812
    13  C   -0.124855
    14  H    0.017072
    15  N   -0.509461
    16  C    0.180188
    17  C   -0.131850
    18  C   -0.119910
    19  C    0.182726
    20  C    0.046581
    21  C    0.071336
    22  O   -0.202637
    23  C   -0.024942
    24  N   -0.321150
    25  C    0.021194
    26  C   -0.085658
    27  C   -0.049903
    28  C   -0.008226
    29  C    0.024501
    30  C   -0.006798
    31  C   -0.048333
    32  N   -0.397933
    33  C    0.155631
    34  C   -0.194823
    35  C    0.050206
    36  C    0.092439
    37  C    0.101786
    38  C    0.041352
    39  O   -0.224086
    40  C   -0.080508
    41  C    0.263515
    42  O   -0.269653
    43  O   -0.354736
    44  C    0.152063
    45  H   -0.008978
    46  H    0.015241
    47  H   -0.015635
    48  H    0.041004
    49  H    0.031857
    50  H    0.044237
    51  H    0.037326
    52  H    0.045531
    53  H    0.030128
    54  H    0.066006
    55  H    0.045226
    56  H    0.067763
    57  H    0.059860
    58  H    0.028711
    59  H    0.066728
    60  H    0.061515
    61  H    0.068955
    62  H    0.047154
    63  H    0.034723
    64  H    0.027551
    65  H    0.038363
    66  H    0.024844
    67  H    0.049435
    68  H    0.030893
    69  H    0.026169
    70  H    0.031352
    71  H    0.040688
    72  H    0.042308
    73  H    0.053952
    74  H    0.077048
    75  H    0.020594
    76  H    0.086611
    77  H    0.058863
    78  H    0.056084
    79  H    0.029627
    80  Mg   0.974491
    81  C    0.015366
    82  C   -0.073523
    83  C   -0.112526
    84  C   -0.058837
    85  N   -0.281724
    86  C   -0.051860
    87  C   -0.084461
    88  C   -0.121160
    89  C    0.039304
    90  C    0.009632
    91  C   -0.015307
    92  C   -0.095669
    93  H    0.056183
    94  N   -0.474368
    95  C    0.177324
    96  C   -0.164672
    97  C   -0.081339
    98  C    0.152037
    99  C    0.071171
   100  C    0.085447
   101  O   -0.234143
   102  C   -0.021634
   103  N   -0.406854
   104  C    0.076869
   105  C   -0.112359
   106  C   -0.034393
   107  C   -0.011032
   108  C    0.035809
   109  C   -0.021063
   110  C   -0.014634
   111  N   -0.410472
   112  C    0.140509
   113  C   -0.167906
   114  C   -0.056126
   115  C    0.150206
   116  C    0.075866
   117  C    0.117572
   118  O   -0.203489
   119  C   -0.076070
   120  C    0.261127
   121  O   -0.227854
   122  O   -0.360353
   123  C    0.125702
   124  H   -0.012591
   125  H    0.021803
   126  H   -0.021537
   127  H    0.044921
   128  H    0.048773
   129  H    0.041650
   130  H    0.025023
   131  H    0.049593
   132  H    0.041792
   133  H    0.042888
   134  H    0.048596
   135  H    0.034193
   136  H    0.044478
   137  H    0.048110
   138  H    0.050482
   139  H    0.057938
   140  H    0.054372
   141  H    0.041566
   142  H    0.041022
   143  H    0.042137
   144  H    0.049144
   145  H    0.031221
   146  H    0.039507
   147  H    0.022664
   148  H    0.033049
   149  H    0.029380
   150  H    0.034744
   151  H    0.033555
   152  H    0.019609
   153  H    0.042141
   154  H    0.073845
   155  H    0.091934
   156  H    0.046302
   157  H    0.068093
   158  H    0.057335
 Sum of Mulliken charges =  -0.00000

 Dipole moment (field-independent basis, Debye):
    X=              0.3011    Y=              2.3935    Z=              1.6113  Tot=              2.9010
 Quadrupole moment (field-independent basis, Debye-Ang):
   XX=           -438.3346   YY=           -468.0292   ZZ=           -526.9499
   XY=             -2.6992   XZ=              9.5098   YZ=              9.5342

 Normal termination of Gaussian 16 at Fri Sep 17 13:32:36 2021.
