 Gaussian 16, Revision A.03,
 Gaussian 16:  ES64L-G16RevA.03 25-Dec-2016

 --------------------------------
 #p wB97XD/Def2SVP td=(nstates=5)
 --------------------------------

 --------------------------------
 TDDFT excited states in gaussian
 --------------------------------
 Symbolic Z-matrix:
 Charge =  0 Multiplicity = 1

                         Standard orientation:
 ---------------------------------------------------------------------
 Center     Atomic      Atomic             Coordinates (Angstroms)
 Number     Number       Type             X           Y           Z
 ---------------------------------------------------------------------
      1         12           0       24.034781   -0.857809    0.144895
      2          6           0       25.451563    2.198049   -0.435106
      3          6           0       22.644956    0.233569    2.969711
      4          6           0       22.963806   -3.897413    0.631059
      5          6           0       26.046287   -2.054233   -2.543035
      6          7           0       24.183129    0.992266    1.269746
      7          6           0       24.591490    2.149859    0.692481
      8          6           0       24.060515    3.356142    1.417478
      9          6           0       23.395648    2.674545    2.680082
     10          6           0       23.472042    1.199647    2.349905
     11          6           0       24.027874    3.070452    4.035999
     12          6           0       23.098294    4.331396    0.500744
     13          6           0       23.348009    5.846976    0.530830
     14          1           0       24.056180    6.421347    1.797909
     15          7           0       22.859492   -1.639592    1.448217
     16          6           0       22.354804   -1.080306    2.578787
     17          6           0       21.634179   -2.017956    3.405068
     18          6           0       21.545308   -3.148377    2.650221
     19          6           0       22.577108   -2.958623    1.583815
     20          6           0       21.224362   -1.549977    4.789487
     21          6           0       20.756430   -4.441743    2.935693
     22          8           0       20.787259   -5.423702    2.231047
     23          6           0       19.957608   -4.398374    4.204781
     24          7           0       24.610255   -2.736565   -0.746492
     25          6           0       23.882193   -3.815591   -0.407094
     26          6           0       24.230843   -5.012613   -1.297225
     27          6           0       24.972055   -4.345243   -2.505112
     28          6           0       25.263476   -2.955955   -1.901619
     29          6           0       25.040246   -6.219698   -0.657272
     30          6           0       24.138569   -4.176586   -3.831001
     31          6           0       22.850501   -3.398488   -3.891714
     32          7           0       25.412219   -0.149369   -1.315264
     33          6           0       26.226718   -0.738076   -2.287972
     34          6           0       27.063122    0.258669   -2.968636
     35          6           0       26.782043    1.443807   -2.272447
     36          6           0       25.782895    1.108601   -1.305212
     37          6           0       27.958035    0.068227   -4.166296
     38          6           0       27.076497    2.798374   -2.155487
     39          8           0       27.870039    3.532227   -2.723684
     40          6           0       26.073070    3.397655   -1.136392
     41          6           0       26.949400    4.221153   -0.272106
     42          8           0       27.657276    3.793812    0.643053
     43          8           0       26.969940    5.521247   -0.686882
     44          6           0       27.993364    6.429988   -0.160667
     45          1           0       22.051846    0.671948    3.775285
     46          1           0       22.602823   -4.925140    0.697745
     47          1           0       26.570020   -2.547854   -3.365229
     48          1           0       24.878628    3.951384    1.823185
     49          1           0       22.332284    2.912904    2.688388
     50          1           0       24.659375    2.252393    4.382315
     51          1           0       23.226843    3.213543    4.761258
     52          1           0       24.615420    3.970009    3.852061
     53          1           0       22.086983    4.128362    0.853272
     54          1           0       23.189690    4.074304   -0.554079
     55          1           0       22.399994    6.384191    0.538655
     56          1           0       23.844216    6.157053   -0.388729
     57          1           0       22.047976   -1.275597    5.448822
     58          1           0       20.785285   -2.248460    5.501580
     59          1           0       20.522918   -0.754865    4.536677
     60          1           0       19.273901   -3.549808    4.200311
     61          1           0       20.742639   -4.407844    4.960630
     62          1           0       19.261303   -5.209269    4.415579
     63          1           0       23.240514   -5.401895   -1.536140
     64          1           0       25.930337   -4.845846   -2.645418
     65          1           0       25.231801   -6.010006    0.394802
     66          1           0       26.041927   -6.280311   -1.081129
     67          1           0       24.600294   -7.212273   -0.765266
     68          1           0       23.979999   -5.227143   -4.075830
     69          1           0       24.723250   -3.720513   -4.629269
     70          1           0       22.535157   -3.136661   -2.880867
     71          1           0       22.054791   -4.009646   -4.317392
     72          1           0       22.886764   -2.437882   -4.405156
     73          1           0       29.014805    0.103016   -3.905218
     74          1           0       27.737840    0.829260   -4.915116
     75          1           0       27.746933   -0.958436   -4.466510
     76          1           0       25.267690    3.941673   -1.630199
     77          1           0       28.205753    7.251867   -0.845432
     78          1           0       28.863576    5.892219    0.212560
     79          1           0       27.689023    6.908091    0.770225
     80         12           0      -24.729504   -0.503426   -0.199033
     81          6           0      -23.610430    2.787957   -0.779277
     82          6           0      -25.043358    0.374201    3.129013
     83          6           0      -25.713825   -3.689061    0.534066
     84          6           0      -24.055182   -1.312902   -3.386400
     85          7           0      -24.395547    1.404550    1.040708
     86          6           0      -24.067064    2.674810    0.582735
     87          6           0      -24.274499    3.702048    1.677504
     88          6           0      -24.377848    2.833173    2.983460
     89          6           0      -24.632861    1.484367    2.349088
     90          6           0      -23.137428    2.909379    3.957526
     91          6           0      -25.557719    4.526958    1.498544
     92          6           0      -25.456835    5.998736    1.913345
     93          1           0      -25.312336    6.334864    3.423712
     94          7           0      -25.382745   -1.497076    1.548988
     95          6           0      -25.377953   -0.928481    2.776657
     96          6           0      -25.736412   -1.919970    3.738091
     97          6           0      -26.096804   -3.126540    3.044304
     98          6           0      -25.687750   -2.819729    1.685032
     99          6           0      -25.762308   -1.631385    5.213434
    100          6           0      -26.608953   -4.477256    3.544793
    101          8           0      -27.026018   -5.355232    2.757542
    102          6           0      -26.573296   -4.874754    5.016115
    103          7           0      -24.947476   -2.203554   -1.283039
    104          6           0      -25.303811   -3.450726   -0.778868
    105          6           0      -25.216747   -4.461707   -1.875755
    106          6           0      -24.752505   -3.755655   -3.200229
    107          6           0      -24.606313   -2.328474   -2.647987
    108          6           0      -24.440674   -5.760931   -1.503952
    109          6           0      -25.748870   -3.826178   -4.377699
    110          6           0      -25.447265   -4.964921   -5.371054
    111          7           0      -23.962017    0.444410   -1.755798
    112          6           0      -23.777007    0.039226   -3.076902
    113          6           0      -23.282814    1.156540   -3.964126
    114          6           0      -23.192271    2.210126   -3.040062
    115          6           0      -23.653156    1.765387   -1.759346
    116          6           0      -22.983866    1.076047   -5.450041
    117          6           0      -22.816810    3.613482   -2.956443
    118          8           0      -22.363157    4.380615   -3.806593
    119          6           0      -23.205407    4.051833   -1.480893
    120          6           0      -21.941954    4.728824   -0.914186
    121          8           0      -20.794977    4.366056   -1.075506
    122          8           0      -22.313439    5.932749   -0.318708
    123          6           0      -21.179800    6.662731    0.249127
    124          1           0      -25.206997    0.706593    4.156053
    125          1           0      -26.019426   -4.730440    0.652977
    126          1           0      -23.748794   -1.687106   -4.365103
    127          1           0      -23.446708    4.398322    1.809649
    128          1           0      -25.206618    3.096391    3.640751
    129          1           0      -22.372715    3.638777    3.688972
    130          1           0      -22.552246    1.997544    4.074352
    131          1           0      -23.448472    3.226378    4.952961
    132          1           0      -26.389788    4.090512    2.050584
    133          1           0      -25.843126    4.572456    0.447367
    134          1           0      -26.275479    6.592786    1.507344
    135          1           0      -24.607744    6.486487    1.435000
    136          1           0      -24.792122   -1.157209    5.362497
    137          1           0      -25.793794   -2.480308    5.896245
    138          1           0      -26.534894   -0.930686    5.529204
    139          1           0      -25.586221   -4.695999    5.442851
    140          1           0      -26.830528   -5.932804    4.968679
    141          1           0      -27.282827   -4.287540    5.599068
    142          1           0      -26.207447   -4.908727   -1.963567
    143          1           0      -23.767041   -4.051380   -3.562407
    144          1           0      -24.047885   -5.634112   -0.494890
    145          1           0      -23.601330   -5.876363   -2.189198
    146          1           0      -25.200032   -6.542211   -1.550822
    147          1           0      -25.806205   -2.828458   -4.812301
    148          1           0      -26.742898   -4.106037   -4.028178
    149          1           0      -24.877147   -5.748504   -4.871606
    150          1           0      -24.811561   -4.716246   -6.221047
    151          1           0      -26.397900   -5.402734   -5.676985
    152          1           0      -23.941422    1.011574   -5.967090
    153          1           0      -22.405457    0.208941   -5.768283
    154          1           0      -22.471012    2.005597   -5.696552
    155          1           0      -24.043080    4.744201   -1.399189
    156          1           0      -20.953073    6.420043    1.287735
    157          1           0      -21.461175    7.708852    0.129273
    158          1           0      -20.194249    6.549515   -0.202475
 ---------------------------------------------------------------------

 SCF Done:  E(RwB97XD) =  -4070.63191728     A.U. after   19 cycles

 Excitation energies and oscillator strengths:

 Excited State   1:      Singlet-A      1.6477 eV  752.46 nm  f=0.3719  <S**2>=0.000
     309 -> 315       -0.19178
     311 -> 313        0.68144
     309 <- 315       -0.11858
 This state for optimization and/or second-order correction.
 Total Energy, E(TD-HF/TD-DFT) =  -4070.57136514
 Copying the excited state density for this state as the 1-particle RhoCI density.

 Excited State   2:      Singlet-A      1.7218 eV  720.10 nm  f=0.3752  <S**2>=0.000
     310 -> 316        0.19594
     312 -> 314        0.67980
     310 <- 316        0.11420

 Excited State   3:      Singlet-A      2.1798 eV  568.78 nm  f=0.0970  <S**2>=0.000
     309 -> 313        0.63418
     311 -> 315        0.30018

 Excited State   4:      Singlet-A      2.2243 eV  557.41 nm  f=0.0566  <S**2>=0.000
     310 -> 314        0.61468
     312 -> 316       -0.33872

 Excited State   5:      Singlet-A      3.4329 eV  361.16 nm  f=0.1147  <S**2>=0.000
     305 -> 313        0.16748
     306 -> 313        0.56594
     309 -> 313        0.11119
     311 -> 315       -0.34303

 The electronic state is 1-A.
 Alpha  occ. eigenvalues --  -46.94297 -46.94010 -19.31003 -19.29114 -19.25358
 Alpha  occ. eigenvalues --  -19.24982 -19.24287 -19.24154 -19.23269 -19.22675
 Alpha  occ. eigenvalues --  -14.47306 -14.46272 -14.45898 -14.45628 -14.44641
 Alpha  occ. eigenvalues --  -14.44511 -14.44122 -14.43321 -10.43558 -10.42087
 Alpha  occ. eigenvalues --  -10.39952 -10.39879 -10.39116 -10.37512 -10.35473
 Alpha  occ. eigenvalues --  -10.35246 -10.34934 -10.34924 -10.34853 -10.34815
 Alpha  occ. eigenvalues --  -10.34613 -10.34445 -10.34378 -10.34335 -10.34302
 Alpha  occ. eigenvalues --  -10.34287 -10.34230 -10.33676 -10.33214 -10.33111
 Alpha  occ. eigenvalues --  -10.33101 -10.32986 -10.32940 -10.32907 -10.32898
 Alpha  occ. eigenvalues --  -10.32857 -10.32718 -10.32660 -10.32608 -10.32456
 Alpha  occ. eigenvalues --  -10.32008 -10.31988 -10.31917 -10.31901 -10.31884
 Alpha  occ. eigenvalues --  -10.31741 -10.31715 -10.31708 -10.31639 -10.31596
 Alpha  occ. eigenvalues --  -10.31527 -10.31380 -10.31348 -10.31323 -10.31245
 Alpha  occ. eigenvalues --  -10.31185 -10.31042 -10.30569 -10.30500 -10.30411
 Alpha  occ. eigenvalues --  -10.30336 -10.30276 -10.30268 -10.30179 -10.30055
 Alpha  occ. eigenvalues --  -10.29995 -10.29900 -10.29898 -10.29739 -10.29731
 Alpha  occ. eigenvalues --  -10.29612 -10.29546 -10.29390 -10.29003 -10.29000
 Alpha  occ. eigenvalues --  -10.28048  -3.20556  -3.20204  -1.94118  -1.93798
 Alpha  occ. eigenvalues --   -1.93701  -1.93566  -1.93309  -1.93221  -1.18482
 Alpha  occ. eigenvalues --   -1.16993  -1.13774  -1.11468  -1.11203  -1.11184
 Alpha  occ. eigenvalues --   -1.10398  -1.08087  -1.07636  -1.06748  -1.06745
 Alpha  occ. eigenvalues --   -1.06103  -1.05765  -1.05096  -1.05006  -1.03467
 Alpha  occ. eigenvalues --   -0.94561  -0.94303  -0.91601  -0.91315  -0.90937
 Alpha  occ. eigenvalues --   -0.90346  -0.90232  -0.89885  -0.89845  -0.89420
 Alpha  occ. eigenvalues --   -0.89386  -0.89010  -0.88478  -0.88105  -0.86345
 Alpha  occ. eigenvalues --   -0.86282  -0.85467  -0.85456  -0.84631  -0.84490
 Alpha  occ. eigenvalues --   -0.84236  -0.83688  -0.82984  -0.82938  -0.82477
 Alpha  occ. eigenvalues --   -0.82066  -0.81004  -0.80453  -0.79405  -0.79370
 Alpha  occ. eigenvalues --   -0.79218  -0.78886  -0.78109  -0.77622  -0.77131
 Alpha  occ. eigenvalues --   -0.77023  -0.74695  -0.74608  -0.73659  -0.73654
 Alpha  occ. eigenvalues --   -0.71552  -0.71371  -0.71004  -0.70756  -0.70182
 Alpha  occ. eigenvalues --   -0.70116  -0.69347  -0.69309  -0.67742  -0.67465
 Alpha  occ. eigenvalues --   -0.67337  -0.66899  -0.66742  -0.66509  -0.66184
 Alpha  occ. eigenvalues --   -0.65740  -0.64575  -0.63688  -0.63154  -0.62384
 Alpha  occ. eigenvalues --   -0.62171  -0.61283  -0.61259  -0.60961  -0.60497
 Alpha  occ. eigenvalues --   -0.59869  -0.59785  -0.59724  -0.59523  -0.59518
 Alpha  occ. eigenvalues --   -0.58321  -0.58056  -0.57480  -0.57226  -0.57105
 Alpha  occ. eigenvalues --   -0.57084  -0.56579  -0.56560  -0.56393  -0.55776
 Alpha  occ. eigenvalues --   -0.55587  -0.55449  -0.55111  -0.55107  -0.54842
 Alpha  occ. eigenvalues --   -0.54586  -0.54555  -0.54531  -0.54329  -0.54169
 Alpha  occ. eigenvalues --   -0.54138  -0.53799  -0.53718  -0.53595  -0.53187
 Alpha  occ. eigenvalues --   -0.53187  -0.52526  -0.52414  -0.52412  -0.52216
 Alpha  occ. eigenvalues --   -0.52127  -0.52019  -0.51746  -0.51486  -0.51289
 Alpha  occ. eigenvalues --   -0.51249  -0.51033  -0.51002  -0.50869  -0.50711
 Alpha  occ. eigenvalues --   -0.50479  -0.50423  -0.50211  -0.50028  -0.50008
 Alpha  occ. eigenvalues --   -0.49933  -0.49708  -0.49602  -0.49348  -0.49088
 Alpha  occ. eigenvalues --   -0.48796  -0.48738  -0.48614  -0.48570  -0.48475
 Alpha  occ. eigenvalues --   -0.48424  -0.48235  -0.47854  -0.47612  -0.47474
 Alpha  occ. eigenvalues --   -0.47392  -0.47137  -0.46858  -0.46760  -0.46608
 Alpha  occ. eigenvalues --   -0.46482  -0.46445  -0.46316  -0.46282  -0.46067
 Alpha  occ. eigenvalues --   -0.45797  -0.45758  -0.45541  -0.45501  -0.45392
 Alpha  occ. eigenvalues --   -0.45162  -0.45063  -0.44981  -0.44834  -0.44791
 Alpha  occ. eigenvalues --   -0.44657  -0.44367  -0.44323  -0.44059  -0.43878
 Alpha  occ. eigenvalues --   -0.43774  -0.43753  -0.43545  -0.43502  -0.43147
 Alpha  occ. eigenvalues --   -0.43134  -0.42996  -0.42975  -0.42684  -0.42442
 Alpha  occ. eigenvalues --   -0.42420  -0.42184  -0.41621  -0.41485  -0.41105
 Alpha  occ. eigenvalues --   -0.40623  -0.40372  -0.40261  -0.40089  -0.39882
 Alpha  occ. eigenvalues --   -0.39318  -0.39020  -0.38872  -0.38740  -0.38412
 Alpha  occ. eigenvalues --   -0.38298  -0.37173  -0.37133  -0.36979  -0.36333
 Alpha  occ. eigenvalues --   -0.35431  -0.35118  -0.34941  -0.34632  -0.33526
 Alpha  occ. eigenvalues --   -0.33402  -0.33178  -0.32962  -0.32923  -0.32704
 Alpha  occ. eigenvalues --   -0.32228  -0.32055  -0.31854  -0.25895  -0.25755
 Alpha  occ. eigenvalues --   -0.22910  -0.22423
 Alpha virt. eigenvalues --   -0.06939  -0.06159   0.00115   0.00161   0.02022
 Alpha virt. eigenvalues --    0.02305   0.03827   0.04589   0.05881   0.06757
 Alpha virt. eigenvalues --    0.07089   0.07398   0.07577   0.08306   0.08496

 Mulliken charges:
               1
     1  Mg   0.992939
     2  C    0.010870
     3  C   -0.117766
     4  C   -0.080762
     5  C   -0.116932
     6  N   -0.330481
     7  C   -0.017046
     8  C   -0.037047
     9  C   -0.154026
    10  C    0.076348
    11  C    0.047347
    12  C    0.007259
    13  C   -0.126127
    14  H    0.026410
    15  N   -0.509785
    16  C    0.180044
    17  C   -0.131358
    18  C   -0.119646
    19  C    0.182627
    20  C    0.046250
    21  C    0.071782
    22  O   -0.201870
    23  C   -0.025429
    24  N   -0.321205
    25  C    0.020784
    26  C   -0.085981
    27  C   -0.050162
    28  C   -0.008257
    29  C    0.024217
    30  C   -0.010765
    31  C   -0.046784
    32  N   -0.398817
    33  C    0.159728
    34  C   -0.186961
    35  C    0.034808
    36  C    0.091614
    37  C    0.104739
    38  C    0.050759
    39  O   -0.214266
    40  C   -0.074724
    41  C    0.264612
    42  O   -0.268237
    43  O   -0.355821
    44  C    0.151803
    45  H   -0.008485
    46  H    0.016474
    47  H   -0.010540
    48  H    0.043158
    49  H    0.031875
    50  H    0.045721
    51  H    0.038565
    52  H    0.045925
    53  H    0.033223
    54  H    0.041185
    55  H    0.049132
    56  H    0.062552
    57  H    0.060507
    58  H    0.029655
    59  H    0.066566
    60  H    0.061553
    61  H    0.069442
    62  H    0.048054
    63  H    0.035057
    64  H    0.029198
    65  H    0.038289
    66  H    0.025922
    67  H    0.050232
    68  H    0.032279
    69  H    0.032302
    70  H    0.028538
    71  H    0.041177
    72  H    0.043840
    73  H    0.059453
    74  H    0.063965
    75  H    0.019688
    76  H    0.072664
    77  H    0.061569
    78  H    0.057167
    79  H    0.029417
    80  Mg   1.001588
    81  C   -0.064888
    82  C   -0.110812
    83  C   -0.083527
    84  C   -0.100756
    85  N   -0.307615
    86  C    0.022454
    87  C   -0.031695
    88  C   -0.097772
    89  C    0.018944
    90  C    0.007950
    91  C    0.023209
    92  C   -0.123415
    93  H    0.016990
    94  N   -0.428062
    95  C    0.224178
    96  C   -0.180458
    97  C   -0.042834
    98  C    0.127654
    99  C    0.061894
   100  C    0.049185
   101  O   -0.257552
   102  C   -0.023810
   103  N   -0.456766
   104  C    0.108892
   105  C   -0.100352
   106  C   -0.055418
   107  C    0.059426
   108  C    0.015932
   109  C    0.000251
   110  C   -0.055615
   111  N   -0.483370
   112  C    0.140289
   113  C   -0.167159
   114  C   -0.071809
   115  C    0.182663
   116  C    0.080924
   117  C    0.161295
   118  O   -0.208546
   119  C   -0.105836
   120  C    0.266251
   121  O   -0.223808
   122  O   -0.369628
   123  C    0.126390
   124  H   -0.009020
   125  H    0.016390
   126  H   -0.010456
   127  H    0.030600
   128  H    0.039929
   129  H    0.034285
   130  H    0.041849
   131  H    0.034279
   132  H    0.040683
   133  H    0.036918
   134  H    0.048555
   135  H    0.050358
   136  H    0.046117
   137  H    0.026843
   138  H    0.058718
   139  H    0.061384
   140  H    0.063758
   141  H    0.063660
   142  H    0.042782
   143  H    0.042922
   144  H    0.043665
   145  H    0.034107
   146  H    0.043597
   147  H    0.037035
   148  H    0.028037
   149  H    0.024561
   150  H    0.041175
   151  H    0.040928
   152  H    0.050561
   153  H    0.047750
   154  H    0.066156
   155  H    0.072902
   156  H    0.043193
   157  H    0.055702
   158  H    0.065216
 Sum of Mulliken charges =  -0.00000

 Dipole moment (field-independent basis, Debye):
    X=             -6.5425    Y=             -1.2908    Z=              6.2894  Tot=              9.1667
 Quadrupole moment (field-independent basis, Debye-Ang):
   XX=           -695.0589   YY=           -508.1376   ZZ=           -466.3713
   XY=            -41.1265   XZ=            -34.5124   YZ=             43.9298

 Normal termination of Gaussian 16 at Sat Sep 18 13:51:29 2021.
