 Gaussian 16, Revision A.03,
 Gaussian 16:  ES64L-G16RevA.03 25-Dec-2016

 --------------------------------
 #p wB97XD/Def2SVP td=(nstates=5)
 --------------------------------

 --------------------------------
 TDDFT excited states in gaussian
 --------------------------------
 Symbolic Z-matrix:
 Charge =  0 Multiplicity = 1

                         Standard orientation:
 ---------------------------------------------------------------------
 Center     Atomic      Atomic             Coordinates (Angstroms)
 Number     Number       Type             X           Y           Z
 ---------------------------------------------------------------------
      1         12           0       -9.155811    0.220917    0.701112
      2          6           0       -8.539910   -2.214087   -1.592188
      3          6           0       -6.544495   -1.100988    2.686580
      4          6           0       -9.046469    3.134574    2.329865
      5          6           0      -11.415622    1.808864   -1.625754
      6          7           0       -7.777960   -1.453995    0.534475
      7          6           0       -7.650291   -2.310575   -0.424009
      8          6           0       -6.723487   -3.522884   -0.054585
      9          6           0       -6.326845   -3.276216    1.450739
     10          6           0       -6.938660   -1.845636    1.641488
     11          6           0       -6.680896   -4.388829    2.438452
     12          6           0       -5.470615   -3.687901   -1.103390
     13          6           0       -5.024396   -2.475029   -1.903758
     14          1           0       -3.635564   -2.432136   -2.541076
     15          7           0       -7.946104    0.910973    2.285014
     16          6           0       -6.998084    0.223245    3.003816
     17          6           0       -6.438398    1.064561    3.970423
     18          6           0       -7.112000    2.343661    3.883177
     19          6           0       -8.075254    2.194395    2.760630
     20          6           0       -5.453576    0.528579    4.993291
     21          6           0       -6.805430    3.546314    4.793923
     22          8           0       -5.915103    3.407369    5.662491
     23          6           0       -7.451113    4.825862    4.736498
     24          7           0      -10.009046    2.311550    0.295337
     25          6           0       -9.921133    3.187113    1.256020
     26          6           0      -10.834306    4.426500    1.035091
     27          6           0      -11.639918    3.986924   -0.206979
     28          6           0      -11.034660    2.576959   -0.592863
     29          6           0      -11.727237    4.747732    2.178854
     30          6           0      -11.584359    5.058623   -1.395186
     31          6           0      -12.936997    5.819407   -1.712495
     32          7           0       -9.968330   -0.122007   -1.162209
     33          6           0      -10.883001    0.549354   -1.983212
     34          6           0      -11.112064   -0.271711   -3.212749
     35          6           0      -10.180794   -1.312186   -3.086058
     36          6           0       -9.481764   -1.173718   -1.850309
     37          6           0      -12.017737   -0.032482   -4.320289
     38          6           0       -9.691939   -2.404168   -3.795181
     39          8           0       -9.982219   -2.919718   -4.884669
     40          6           0       -8.681235   -3.094556   -2.835842
     41          6           0       -9.139858   -4.557209   -2.625622
     42          8           0       -8.485309   -5.572017   -2.793775
     43          8           0      -10.446546   -4.636032   -2.194745
     44          6           0      -11.016998   -5.973429   -1.994245
     45          1           0       -5.695572   -1.554048    3.202531
     46          1           0       -9.172795    4.046410    2.916927
     47          1           0      -12.224975    2.211341   -2.238285
     48          1           0       -7.373279   -4.397305   -0.010183
     49          1           0       -5.257622   -3.098550    1.570164
     50          1           0       -7.429667   -4.028079    3.143380
     51          1           0       -5.820020   -4.706278    3.027995
     52          1           0       -7.021586   -5.324488    1.994995
     53          1           0       -5.818090   -4.520681   -1.715271
     54          1           0       -4.516500   -3.956548   -0.649456
     55          1           0       -5.116841   -1.662304   -1.183790
     56          1           0       -5.806661   -2.322988   -2.647646
     57          1           0       -5.666671    0.631021    6.057656
     58          1           0       -4.464965    0.927382    4.764698
     59          1           0       -5.336293   -0.544123    4.840700
     60          1           0       -8.524331    4.863494    4.922433
     61          1           0       -7.425998    5.217249    3.719996
     62          1           0       -6.946662    5.597245    5.317555
     63          1           0      -10.366921    5.393873    0.851597
     64          1           0      -12.676690    3.737053    0.018662
     65          1           0      -11.423985    5.609488    2.773221
     66          1           0      -11.665627    3.972816    2.943767
     67          1           0      -12.748186    4.897794    1.828169
     68          1           0      -11.366356    4.522513   -2.319850
     69          1           0      -10.899947    5.888024   -1.222140
     70          1           0      -12.739750    6.885235   -1.820337
     71          1           0      -13.572320    5.752076   -0.829265
     72          1           0      -13.257348    5.426356   -2.677549
     73          1           0      -12.859997    0.493047   -3.869661
     74          1           0      -12.363223   -0.975544   -4.745329
     75          1           0      -11.436353    0.487297   -5.081240
     76          1           0       -7.733952   -3.340904   -3.314943
     77          1           0      -12.100796   -5.900184   -2.086318
     78          1           0      -10.875983   -6.453450   -1.025983
     79          1           0      -10.608502   -6.731248   -2.663428
     80         12           0        9.076998    0.849304   -0.021895
     81          6           0        8.205683   -2.534181    0.532398
     82          6           0        5.880541    1.455381   -0.456080
     83          6           0       10.061738    3.627858   -1.519210
     84          6           0       12.435777   -0.300115   -0.182548
     85          7           0        7.254854   -0.472758    0.229934
     86          6           0        7.106134   -1.713432    0.521316
     87          6           0        5.629071   -2.032655    0.830949
     88          6           0        4.835359   -0.869643    0.044212
     89          6           0        6.070933    0.102831   -0.157849
     90          6           0        4.142581   -1.281200   -1.314783
     91          6           0        5.335773   -1.907988    2.416294
     92          6           0        4.273026   -2.827411    3.100663
     93          1           0        3.082519   -3.308831    2.191938
     94          7           0        8.105168    2.438985   -0.686268
     95          6           0        6.720390    2.505145   -0.720351
     96          6           0        6.326255    3.854321   -1.259454
     97          6           0        7.597592    4.509299   -1.539761
     98          6           0        8.706655    3.586510   -1.283081
     99          6           0        4.868891    4.231374   -1.447439
    100          6           0        7.802515    5.927094   -2.026187
    101          8           0        8.904004    6.427869   -2.292173
    102          6           0        6.625241    6.804550   -2.166115
    103          7           0       11.065468    1.629973   -0.676640
    104          6           0       11.131827    2.789755   -1.305042
    105          6           0       12.645523    3.279943   -1.388067
    106          6           0       13.407797    1.914251   -0.951133
    107          6           0       12.231105    1.032971   -0.540756
    108          6           0       13.046441    3.866061   -2.782097
    109          6           0       14.483379    2.003151    0.180798
    110          6           0       15.918768    1.778376   -0.219912
    111          7           0       10.199121   -0.988272    0.346476
    112          6           0       11.550602   -1.244674    0.227539
    113          6           0       11.798425   -2.613929    0.408908
    114          6           0       10.504035   -3.161390    0.490347
    115          6           0        9.545470   -2.178471    0.418712
    116          6           0       13.069455   -3.302163    0.413285
    117          6           0        9.862368   -4.397789    0.717844
    118          8           0       10.231940   -5.573644    0.984230
    119          6           0        8.318841   -4.075455    0.479831
    120          6           0        7.484304   -4.779870    1.485660
    121          8           0        7.478978   -4.624184    2.705028
    122          8           0        6.576145   -5.617962    0.764943
    123          6           0        5.644371   -6.431445    1.556413
    124          1           0        4.803377    1.637094   -0.453683
    125          1           0       10.374391    4.576870   -1.958286
    126          1           0       13.477544   -0.628456   -0.156077
    127          1           0        5.372141   -2.927494    0.264667
    128          1           0        3.993837   -0.556130    0.661038
    129          1           0        4.477573   -2.257875   -1.663384
    130          1           0        4.403632   -0.597113   -2.122044
    131          1           0        3.072884   -1.299635   -1.106489
    132          1           0        5.107405   -0.877542    2.689013
    133          1           0        6.279004   -2.053672    2.943158
    134          1           0        3.797026   -2.375196    3.971329
    135          1           0        4.763686   -3.784086    3.284162
    136          1           0        4.654991    5.238229   -1.087045
    137          1           0        4.180541    3.540154   -0.961086
    138          1           0        4.584291    4.059017   -2.485123
    139          1           0        5.896455    6.378120   -2.855989
    140          1           0        6.936784    7.786220   -2.523122
    141          1           0        6.091528    7.028525   -1.242486
    142          1           0       12.891772    4.014904   -0.621800
    143          1           0       13.785552    1.361440   -1.812511
    144          1           0       12.231169    3.741183   -3.494952
    145          1           0       13.981561    3.335057   -2.961245
    146          1           0       13.346714    4.899184   -2.612043
    147          1           0       14.240405    1.237144    0.917538
    148          1           0       14.398184    2.965319    0.686245
    149          1           0       15.872995    1.760582   -1.307999
    150          1           0       16.206176    0.783578    0.122458
    151          1           0       16.584664    2.586222    0.080983
    152          1           0       13.708562   -2.773765    1.120199
    153          1           0       13.682061   -3.180479   -0.480074
    154          1           0       12.927600   -4.331391    0.743456
    155          1           0        8.055063   -4.408827   -0.524363
    156          1           0        5.065141   -7.092442    0.911154
    157          1           0        4.875467   -5.775339    1.964773
    158          1           0        6.211818   -7.057434    2.244257
 ---------------------------------------------------------------------

 SCF Done:  E(RwB97XD) =  -4070.54386466     A.U. after   19 cycles

 Excitation energies and oscillator strengths:

 Excited State   1:      Singlet-A      1.6554 eV  748.96 nm  f=0.4299  <S**2>=0.000
     309 -> 316       -0.16620
     311 -> 313        0.68641
     309 <- 316       -0.11143
 This state for optimization and/or second-order correction.
 Total Energy, E(TD-HF/TD-DFT) =  -4070.48302949
 Copying the excited state density for this state as the 1-particle RhoCI density.

 Excited State   2:      Singlet-A      1.7436 eV  711.07 nm  f=0.3586  <S**2>=0.000
     310 -> 315        0.21759
     312 -> 314        0.67284
     310 <- 315        0.11917

 Excited State   3:      Singlet-A      2.1694 eV  571.51 nm  f=0.0784  <S**2>=0.000
     310 -> 314        0.62687
     312 -> 315       -0.30908

 Excited State   4:      Singlet-A      2.1983 eV  564.00 nm  f=0.1168  <S**2>=0.000
     309 -> 313        0.63960
     311 -> 316        0.27496

 Excited State   5:      Singlet-A      3.3916 eV  365.56 nm  f=0.0000  <S**2>=0.000
     312 -> 313        0.70677

 The electronic state is 1-A.
 Alpha  occ. eigenvalues --  -46.96852 -46.95641 -19.30316 -19.29114 -19.25251
 Alpha  occ. eigenvalues --  -19.25080 -19.24292 -19.23943 -19.23452 -19.22577
 Alpha  occ. eigenvalues --  -14.47997 -14.46673 -14.46629 -14.46210 -14.45361
 Alpha  occ. eigenvalues --  -14.44561 -14.44523 -14.43097 -10.43788 -10.43090
 Alpha  occ. eigenvalues --  -10.39000 -10.38974 -10.38447 -10.38347 -10.37264
 Alpha  occ. eigenvalues --  -10.36098 -10.35510 -10.35493 -10.35408 -10.34942
 Alpha  occ. eigenvalues --  -10.34932 -10.34870 -10.34795 -10.34776 -10.34716
 Alpha  occ. eigenvalues --  -10.34664 -10.34612 -10.34554 -10.34351 -10.34199
 Alpha  occ. eigenvalues --  -10.34044 -10.33705 -10.33562 -10.33249 -10.33126
 Alpha  occ. eigenvalues --  -10.33096 -10.32717 -10.32669 -10.32650 -10.32628
 Alpha  occ. eigenvalues --  -10.32531 -10.32472 -10.32423 -10.32297 -10.32288
 Alpha  occ. eigenvalues --  -10.31899 -10.31854 -10.31804 -10.31771 -10.31581
 Alpha  occ. eigenvalues --  -10.31573 -10.31491 -10.31381 -10.31306 -10.31301
 Alpha  occ. eigenvalues --  -10.31255 -10.31246 -10.31015 -10.31002 -10.30923
 Alpha  occ. eigenvalues --  -10.30916 -10.30422 -10.30321 -10.30142 -10.30142
 Alpha  occ. eigenvalues --  -10.30097 -10.30009 -10.29982 -10.29912 -10.29720
 Alpha  occ. eigenvalues --  -10.29646 -10.29598 -10.29596 -10.29154 -10.28966
 Alpha  occ. eigenvalues --  -10.28587  -3.22725  -3.21554  -1.96285  -1.95875
 Alpha  occ. eigenvalues --   -1.95657  -1.95145  -1.94685  -1.94501  -1.18503
 Alpha  occ. eigenvalues --   -1.16042  -1.11546  -1.11537  -1.09948  -1.09756
 Alpha  occ. eigenvalues --   -1.09431  -1.08864  -1.07706  -1.07240  -1.07134
 Alpha  occ. eigenvalues --   -1.06697  -1.05905  -1.05468  -1.04415  -1.03425
 Alpha  occ. eigenvalues --   -0.95232  -0.94871  -0.91793  -0.91451  -0.91343
 Alpha  occ. eigenvalues --   -0.91093  -0.90505  -0.90437  -0.89882  -0.89718
 Alpha  occ. eigenvalues --   -0.89403  -0.89182  -0.88764  -0.87382  -0.86745
 Alpha  occ. eigenvalues --   -0.86232  -0.86134  -0.85796  -0.85021  -0.84587
 Alpha  occ. eigenvalues --   -0.84565  -0.83866  -0.83616  -0.83367  -0.82555
 Alpha  occ. eigenvalues --   -0.82437  -0.80851  -0.80621  -0.79571  -0.79506
 Alpha  occ. eigenvalues --   -0.79062  -0.78810  -0.78462  -0.77747  -0.77399
 Alpha  occ. eigenvalues --   -0.77097  -0.75589  -0.75140  -0.74165  -0.74121
 Alpha  occ. eigenvalues --   -0.71795  -0.71003  -0.70858  -0.70547  -0.70436
 Alpha  occ. eigenvalues --   -0.69810  -0.69124  -0.69008  -0.68113  -0.67823
 Alpha  occ. eigenvalues --   -0.67807  -0.67503  -0.67467  -0.67018  -0.66723
 Alpha  occ. eigenvalues --   -0.66517  -0.65509  -0.63186  -0.63065  -0.62458
 Alpha  occ. eigenvalues --   -0.62168  -0.62042  -0.61215  -0.61099  -0.60705
 Alpha  occ. eigenvalues --   -0.60268  -0.60198  -0.59643  -0.59398  -0.59218
 Alpha  occ. eigenvalues --   -0.58885  -0.58473  -0.57791  -0.57762  -0.57671
 Alpha  occ. eigenvalues --   -0.57334  -0.56930  -0.56649  -0.56239  -0.56006
 Alpha  occ. eigenvalues --   -0.55658  -0.55592  -0.55387  -0.55364  -0.55046
 Alpha  occ. eigenvalues --   -0.54965  -0.54815  -0.54771  -0.54467  -0.54357
 Alpha  occ. eigenvalues --   -0.54321  -0.54096  -0.53592  -0.53418  -0.53376
 Alpha  occ. eigenvalues --   -0.53018  -0.53005  -0.52773  -0.52769  -0.52425
 Alpha  occ. eigenvalues --   -0.52412  -0.52189  -0.52072  -0.51749  -0.51660
 Alpha  occ. eigenvalues --   -0.51412  -0.51324  -0.51090  -0.51035  -0.50925
 Alpha  occ. eigenvalues --   -0.50660  -0.50658  -0.50534  -0.50428  -0.50233
 Alpha  occ. eigenvalues --   -0.49869  -0.49735  -0.49653  -0.49503  -0.49483
 Alpha  occ. eigenvalues --   -0.49293  -0.49164  -0.48974  -0.48915  -0.48903
 Alpha  occ. eigenvalues --   -0.48638  -0.48290  -0.48162  -0.48024  -0.47973
 Alpha  occ. eigenvalues --   -0.47832  -0.47446  -0.47366  -0.47213  -0.47155
 Alpha  occ. eigenvalues --   -0.46990  -0.46791  -0.46715  -0.46561  -0.46111
 Alpha  occ. eigenvalues --   -0.45938  -0.45819  -0.45779  -0.45759  -0.45416
 Alpha  occ. eigenvalues --   -0.45159  -0.44871  -0.44833  -0.44738  -0.44467
 Alpha  occ. eigenvalues --   -0.44359  -0.44213  -0.44068  -0.43805  -0.43594
 Alpha  occ. eigenvalues --   -0.43531  -0.43490  -0.43058  -0.43044  -0.42922
 Alpha  occ. eigenvalues --   -0.42875  -0.42786  -0.42588  -0.42454  -0.42163
 Alpha  occ. eigenvalues --   -0.42159  -0.41924  -0.41901  -0.41148  -0.40873
 Alpha  occ. eigenvalues --   -0.40871  -0.40345  -0.40288  -0.39979  -0.39827
 Alpha  occ. eigenvalues --   -0.39323  -0.39023  -0.38667  -0.38577  -0.38315
 Alpha  occ. eigenvalues --   -0.38030  -0.37541  -0.36971  -0.36502  -0.36494
 Alpha  occ. eigenvalues --   -0.36416  -0.35820  -0.35556  -0.33968  -0.33931
 Alpha  occ. eigenvalues --   -0.33364  -0.33310  -0.33141  -0.32532  -0.32230
 Alpha  occ. eigenvalues --   -0.32203  -0.31385  -0.31316  -0.27046  -0.26007
 Alpha  occ. eigenvalues --   -0.23655  -0.23408
 Alpha virt. eigenvalues --   -0.08057  -0.06880  -0.00650  -0.00146   0.01822
 Alpha virt. eigenvalues --    0.01903   0.03651   0.04180   0.04440   0.05521
 Alpha virt. eigenvalues --    0.06814   0.07034   0.07425   0.07776   0.07944

 Mulliken charges:
               1
     1  Mg   0.956859
     2  C    0.004187
     3  C   -0.072064
     4  C   -0.044103
     5  C   -0.099188
     6  N   -0.349379
     7  C    0.010796
     8  C   -0.050903
     9  C   -0.100425
    10  C    0.039370
    11  C    0.023850
    12  C   -0.030506
    13  C   -0.101196
    14  H    0.060714
    15  N   -0.458777
    16  C    0.154456
    17  C   -0.151332
    18  C   -0.094633
    19  C    0.205220
    20  C    0.092029
    21  C    0.062882
    22  O   -0.267981
    23  C    0.000062
    24  N   -0.297944
    25  C    0.010934
    26  C   -0.080763
    27  C   -0.045963
    28  C    0.048402
    29  C    0.002473
    30  C   -0.042937
    31  C   -0.064972
    32  N   -0.464596
    33  C    0.133797
    34  C   -0.171145
    35  C   -0.013109
    36  C    0.155242
    37  C    0.081394
    38  C    0.117952
    39  O   -0.219891
    40  C   -0.108160
    41  C    0.242865
    42  O   -0.243980
    43  O   -0.368892
    44  C    0.139624
    45  H    0.011431
    46  H   -0.042621
    47  H    0.000997
    48  H    0.052924
    49  H    0.037987
    50  H    0.039788
    51  H    0.034869
    52  H    0.041677
    53  H    0.057827
    54  H    0.040768
    55  H    0.051862
    56  H    0.036989
    57  H    0.061016
    58  H    0.045844
    59  H    0.000358
    60  H    0.063870
    61  H    0.040583
    62  H    0.054644
    63  H    0.045194
    64  H    0.032774
    65  H    0.028581
    66  H    0.031524
    67  H    0.039746
    68  H    0.036045
    69  H    0.040879
    70  H    0.033399
    71  H    0.036385
    72  H    0.047935
    73  H    0.043963
    74  H    0.067154
    75  H    0.074630
    76  H    0.058393
    77  H    0.052937
    78  H    0.037628
    79  H    0.061750
    80  Mg   0.950976
    81  C   -0.001555
    82  C   -0.092411
    83  C   -0.057196
    84  C   -0.097714
    85  N   -0.289386
    86  C   -0.079862
    87  C   -0.022084
    88  C   -0.152271
    89  C    0.044762
    90  C    0.020247
    91  C    0.019109
    92  C   -0.121556
    93  H   -0.004149
    94  N   -0.573606
    95  C    0.230627
    96  C   -0.157125
    97  C   -0.064138
    98  C    0.176540
    99  C    0.067421
   100  C    0.057061
   101  O   -0.243429
   102  C   -0.029330
   103  N   -0.281887
   104  C    0.040591
   105  C   -0.118728
   106  C   -0.082449
   107  C    0.022869
   108  C    0.039339
   109  C   -0.018033
   110  C   -0.034992
   111  N   -0.421052
   112  C    0.154659
   113  C   -0.152245
   114  C   -0.029626
   115  C    0.146325
   116  C    0.092571
   117  C    0.133251
   118  O   -0.250864
   119  C   -0.095308
   120  C    0.288746
   121  O   -0.246527
   122  O   -0.409209
   123  C    0.146689
   124  H   -0.006040
   125  H    0.019157
   126  H   -0.015597
   127  H    0.024880
   128  H    0.044444
   129  H    0.036902
   130  H    0.039795
   131  H    0.044071
   132  H    0.028777
   133  H    0.057706
   134  H    0.066060
   135  H    0.078676
   136  H    0.056046
   137  H    0.032102
   138  H    0.060744
   139  H    0.053900
   140  H    0.050666
   141  H    0.060226
   142  H    0.047676
   143  H    0.033867
   144  H    0.061777
   145  H    0.028897
   146  H    0.039174
   147  H    0.034213
   148  H    0.025019
   149  H    0.022644
   150  H    0.040386
   151  H    0.046452
   152  H    0.029769
   153  H    0.045439
   154  H    0.071845
   155  H    0.082499
   156  H    0.044078
   157  H    0.042101
   158  H    0.066599
 Sum of Mulliken charges =  -0.00000

 Dipole moment (field-independent basis, Debye):
    X=             -7.6332    Y=              5.5041    Z=              0.2863  Tot=              9.4151
 Quadrupole moment (field-independent basis, Debye-Ang):
   XX=           -425.4862   YY=           -525.5698   ZZ=           -558.7973
   XY=              1.5968   XZ=            -30.2046   YZ=            -17.9524

 Normal termination of Gaussian 16 at Sat Sep 18 21:13:42 2021.
