 Gaussian 16, Revision A.03,
 Gaussian 16:  ES64L-G16RevA.03 25-Dec-2016

 --------------------------------
 #p wB97XD/Def2SVP td=(nstates=5)
 --------------------------------

 --------------------------------
 TDDFT excited states in gaussian
 --------------------------------
 Symbolic Z-matrix:
 Charge =  0 Multiplicity = 1

                         Standard orientation:
 ---------------------------------------------------------------------
 Center     Atomic      Atomic             Coordinates (Angstroms)
 Number     Number       Type             X           Y           Z
 ---------------------------------------------------------------------
      1         12           0        5.055789    0.644779    0.285651
      2          6           0        3.080846   -2.170295    0.780478
      3          6           0        7.614446   -1.545906   -0.541299
      4          6           0        7.140183    3.332066    0.291085
      5          6           0        2.420829    2.636012    1.309307
      6          7           0        5.323836   -1.606606    0.192725
      7          6           0        4.362295   -2.583549    0.401614
      8          6           0        4.917018   -4.058025    0.291716
      9          6           0        6.461795   -3.755785    0.182202
     10          6           0        6.500732   -2.198008   -0.033808
     11          6           0        7.422008   -4.126405    1.316281
     12          6           0        4.279209   -4.797590   -0.898609
     13          6           0        3.269761   -5.868827   -0.579821
     14          1           0        3.273794   -7.116017   -1.481523
     15          7           0        7.036476    0.936279   -0.253363
     16          6           0        7.846445   -0.090998   -0.625286
     17          6           0        9.160352    0.523782   -0.897476
     18          6           0        9.095411    1.888853   -0.577240
     19          6           0        7.763902    2.133499   -0.178402
     20          6           0       10.244645   -0.251939   -1.528310
     21          6           0       10.168657    2.937628   -0.589651
     22          8           0        9.946648    4.162829   -0.381788
     23          6           0       11.553869    2.658645   -0.803711
     24          7           0        4.807614    2.650637    0.645919
     25          6           0        5.800778    3.577404    0.560632
     26          6           0        5.360924    4.949054    0.891927
     27          6           0        3.825367    4.761305    1.165131
     28          6           0        3.700607    3.285722    1.095084
     29          6           0        6.024986    5.813403    2.003887
     30          6           0        2.846003    5.616386    0.218496
     31          6           0        2.395891    5.137043   -1.193513
     32          7           0        3.155001    0.371521    0.958423
     33          6           0        2.184542    1.268229    1.301734
     34          6           0        0.961094    0.613620    1.468682
     35          6           0        1.322638   -0.783578    1.350778
     36          6           0        2.659248   -0.859565    1.013303
     37          6           0       -0.413662    1.235407    1.707136
     38          6           0        0.732406   -2.090734    1.312599
     39          8           0       -0.403640   -2.515540    1.369919
     40          6           0        1.941465   -3.079332    1.162683
     41          6           0        2.175837   -3.782812    2.439337
     42          8           0        3.171294   -3.656398    3.185889
     43          8           0        1.179635   -4.616394    2.810534
     44          6           0        1.392499   -5.566046    3.955588
     45          1           0        8.431755   -2.241994   -0.737893
     46          1           0        7.764463    4.226504    0.346614
     47          1           0        1.501990    3.204030    1.472232
     48          1           0        4.911394   -4.571584    1.253705
     49          1           0        6.786850   -4.240590   -0.738292
     50          1           0        7.789423   -3.225037    1.807409
     51          1           0        8.319564   -4.513081    0.835860
     52          1           0        7.025629   -4.816366    2.062023
     53          1           0        5.108565   -5.307928   -1.389727
     54          1           0        3.900116   -4.051618   -1.597116
     55          1           0        2.280689   -5.415813   -0.652682
     56          1           0        3.296028   -6.251816    0.440437
     57          1           0       10.426220    0.248032   -2.478834
     58          1           0       10.108756   -1.318219   -1.713650
     59          1           0       11.147720   -0.174075   -0.922976
     60          1           0       11.765450    1.781198   -0.193194
     61          1           0       12.153318    3.560590   -0.687124
     62          1           0       11.727666    2.283161   -1.812161
     63          1           0        5.536743    5.422484   -0.073579
     64          1           0        3.609529    5.026269    2.199501
     65          1           0        6.532076    6.687388    1.595000
     66          1           0        6.793679    5.250295    2.534235
     67          1           0        5.330283    6.123692    2.784323
     68          1           0        3.432097    6.519611    0.047517
     69          1           0        2.026295    5.812266    0.909899
     70          1           0        2.657853    4.109353   -1.443836
     71          1           0        2.609944    5.814829   -2.020372
     72          1           0        1.310078    5.210750   -1.149289
     73          1           0       -0.878282    0.859179    2.619156
     74          1           0       -1.061862    0.917773    0.890569
     75          1           0       -0.428838    2.325360    1.683369
     76          1           0        1.621053   -3.883194    0.499706
     77          1           0        0.538752   -6.211314    3.748119
     78          1           0        1.358571   -5.111845    4.945321
     79          1           0        2.354004   -6.067866    3.842689
     80         12           0       -5.149892    0.551260   -0.249028
     81          6           0       -3.116830   -2.059934   -1.481321
     82          6           0       -7.646016   -1.698072    0.373892
     83          6           0       -7.177430    3.105935    0.233478
     84          6           0       -2.685247    2.834562   -1.388286
     85          7           0       -5.282246   -1.659285   -0.430391
     86          6           0       -4.356909   -2.456527   -0.926705
     87          6           0       -4.710385   -3.885129   -0.554481
     88          6           0       -6.277719   -3.835397   -0.384878
     89          6           0       -6.450872   -2.291118   -0.133087
     90          6           0       -7.011287   -4.456640   -1.633752
     91          6           0       -4.066990   -4.326730    0.785107
     92          6           0       -3.945522   -5.898234    1.007651
     93          1           0       -4.465826   -6.904838   -0.022004
     94          7           0       -7.037771    0.682241    0.422863
     95          6           0       -7.946492   -0.367028    0.715090
     96          6           0       -9.186065    0.232911    1.261573
     97          6           0       -9.070007    1.664005    1.137769
     98          6           0       -7.724834    1.923958    0.580519
     99          6           0      -10.313842   -0.560491    1.820810
    100          6           0      -10.039078    2.854742    1.503788
    101          8           0       -9.733746    4.051622    1.412802
    102          6           0      -11.462749    2.530718    1.852937
    103          7           0       -5.000563    2.697910   -0.646849
    104          6           0       -5.947457    3.532985   -0.310404
    105          6           0       -5.630486    4.985524   -0.531249
    106          6           0       -4.159293    4.920458   -1.073156
    107          6           0       -3.869710    3.390464   -0.953107
    108          6           0       -6.699770    5.679024   -1.380483
    109          6           0       -3.149434    5.736329   -0.275859
    110          6           0       -2.057456    6.507518   -1.100517
    111          7           0       -3.195756    0.490113   -1.190449
    112          6           0       -2.302192    1.518487   -1.548704
    113          6           0       -1.071110    0.932045   -1.953767
    114          6           0       -1.366526   -0.458170   -2.123559
    115          6           0       -2.620136   -0.675878   -1.610587
    116          6           0        0.235605    1.655955   -2.108343
    117          6           0       -0.887219   -1.824831   -2.441274
    118          8           0        0.183519   -2.194506   -2.876383
    119          6           0       -2.122786   -2.829695   -2.264055
    120          6           0       -1.646959   -4.184520   -1.852796
    121          8           0       -1.051571   -4.459867   -0.853113
    122          8           0       -1.897090   -5.140613   -2.854880
    123          6           0       -0.940829   -6.263941   -2.950517
    124          1           0       -8.544967   -2.317313    0.415566
    125          1           0       -7.712510    4.020661    0.494647
    126          1           0       -1.917923    3.563334   -1.657933
    127          1           0       -4.241382   -4.464674   -1.349562
    128          1           0       -6.603017   -4.383628    0.499914
    129          1           0       -6.282940   -4.782391   -2.375627
    130          1           0       -7.496947   -3.596098   -2.093914
    131          1           0       -7.639003   -5.319844   -1.412148
    132          1           0       -4.731935   -3.918000    1.547052
    133          1           0       -3.094068   -3.839418    0.847744
    134          1           0       -4.439191   -6.074607    1.964522
    135          1           0       -2.882824   -6.069800    1.180656
    136          1           0      -10.177067   -1.626618    1.998210
    137          1           0      -11.189896   -0.547924    1.172977
    138          1           0      -10.497233   -0.097084    2.790522
    139          1           0      -11.622646    2.311024    2.908418
    140          1           0      -11.613883    1.677917    1.189986
    141          1           0      -12.054399    3.379028    1.509908
    142          1           0       -5.647811    5.372486    0.487521
    143          1           0       -4.056161    5.232052   -2.111840
    144          1           0       -7.248193    5.003973   -2.038196
    145          1           0       -6.149970    6.365359   -2.023294
    146          1           0       -7.431032    6.218789   -0.778407
    147          1           0       -2.604243    5.107333    0.427665
    148          1           0       -3.767981    6.334001    0.393516
    149          1           0       -2.088965    6.236855   -2.155770
    150          1           0       -1.111854    6.164430   -0.681240
    151          1           0       -2.038939    7.597086   -1.059519
    152          1           0       -0.002098    2.532735   -2.710910
    153          1           0        1.012286    1.087230   -2.619962
    154          1           0        0.576492    2.017599   -1.137712
    155          1           0       -2.530548   -3.051184   -3.249829
    156          1           0       -1.480529   -7.180872   -2.713276
    157          1           0       -0.080255   -6.132970   -2.293576
    158          1           0       -0.615180   -6.271925   -3.990673
 ---------------------------------------------------------------------

 SCF Done:  E(RwB97XD) =  -4070.62054964     A.U. after   19 cycles

 Excitation energies and oscillator strengths:

 Excited State   1:      Singlet-A      1.6260 eV  762.51 nm  f=0.6763  <S**2>=0.000
     310 -> 316        0.16966
     311 -> 313        0.16345
     311 -> 314        0.12260
     312 -> 313       -0.15695
     312 -> 314        0.63381
     310 <- 316        0.11028
 This state for optimization and/or second-order correction.
 Total Energy, E(TD-HF/TD-DFT) =  -4070.56079536
 Copying the excited state density for this state as the 1-particle RhoCI density.

 Excited State   2:      Singlet-A      1.7662 eV  701.98 nm  f=0.2117  <S**2>=0.000
     309 -> 315       -0.18245
     311 -> 313        0.63602
     312 -> 314       -0.19888
     309 <- 315       -0.10485

 Excited State   3:      Singlet-A      2.1026 eV  589.68 nm  f=0.0265  <S**2>=0.000
     309 -> 313        0.60051
     310 -> 314        0.21570
     311 -> 315        0.24907

 Excited State   4:      Singlet-A      2.1467 eV  577.56 nm  f=0.1683  <S**2>=0.000
     309 -> 313       -0.18631
     310 -> 313       -0.13131
     310 -> 314        0.59823
     312 -> 316       -0.24623

 Excited State   5:      Singlet-A      2.8419 eV  436.27 nm  f=0.0007  <S**2>=0.000
     311 -> 313       -0.12703
     311 -> 314        0.67761
     312 -> 314       -0.10378

 The electronic state is 1-A.
 Alpha  occ. eigenvalues --  -46.94577 -46.93245 -19.28497 -19.28126 -19.25225
 Alpha  occ. eigenvalues --  -19.23919 -19.23140 -19.22496 -19.22414 -19.22398
 Alpha  occ. eigenvalues --  -14.46203 -14.46081 -14.46031 -14.45841 -14.44164
 Alpha  occ. eigenvalues --  -14.43534 -14.42339 -14.42283 -10.41886 -10.41551
 Alpha  occ. eigenvalues --  -10.40663 -10.38548 -10.37971 -10.37236 -10.35994
 Alpha  occ. eigenvalues --  -10.35444 -10.35182 -10.34724 -10.34677 -10.34450
 Alpha  occ. eigenvalues --  -10.34394 -10.34329 -10.34317 -10.33992 -10.33810
 Alpha  occ. eigenvalues --  -10.33634 -10.33543 -10.33501 -10.33452 -10.33192
 Alpha  occ. eigenvalues --  -10.32062 -10.31994 -10.31882 -10.31820 -10.31776
 Alpha  occ. eigenvalues --  -10.31774 -10.31628 -10.31615 -10.31594 -10.31554
 Alpha  occ. eigenvalues --  -10.31516 -10.31514 -10.31507 -10.31396 -10.31262
 Alpha  occ. eigenvalues --  -10.31233 -10.31226 -10.31171 -10.31083 -10.30902
 Alpha  occ. eigenvalues --  -10.30749 -10.30717 -10.30655 -10.30652 -10.30614
 Alpha  occ. eigenvalues --  -10.30295 -10.30266 -10.30222 -10.30185 -10.30167
 Alpha  occ. eigenvalues --  -10.29958 -10.29945 -10.29877 -10.29852 -10.29466
 Alpha  occ. eigenvalues --  -10.29439 -10.29431 -10.29373 -10.29342 -10.29296
 Alpha  occ. eigenvalues --  -10.29268 -10.29112 -10.29086 -10.28968 -10.28112
 Alpha  occ. eigenvalues --  -10.27966  -3.20495  -3.19374  -1.94096  -1.93616
 Alpha  occ. eigenvalues --   -1.93456  -1.92978  -1.92508  -1.92352  -1.16870
 Alpha  occ. eigenvalues --   -1.16518  -1.12585  -1.11502  -1.10774  -1.09653
 Alpha  occ. eigenvalues --   -1.08741  -1.06906  -1.06519  -1.06263  -1.06133
 Alpha  occ. eigenvalues --   -1.05504  -1.04602  -1.03649  -1.03414  -1.02817
 Alpha  occ. eigenvalues --   -0.94256  -0.93401  -0.91064  -0.90657  -0.90153
 Alpha  occ. eigenvalues --   -0.89916  -0.89680  -0.89415  -0.89067  -0.88962
 Alpha  occ. eigenvalues --   -0.88873  -0.88318  -0.87440  -0.87024  -0.85687
 Alpha  occ. eigenvalues --   -0.85637  -0.85356  -0.84944  -0.84665  -0.84211
 Alpha  occ. eigenvalues --   -0.83863  -0.83279  -0.82334  -0.82212  -0.81892
 Alpha  occ. eigenvalues --   -0.81465  -0.80365  -0.79885  -0.79018  -0.78970
 Alpha  occ. eigenvalues --   -0.78084  -0.77935  -0.77482  -0.77045  -0.76702
 Alpha  occ. eigenvalues --   -0.76682  -0.74480  -0.74194  -0.73411  -0.72741
 Alpha  occ. eigenvalues --   -0.71719  -0.71670  -0.70293  -0.70040  -0.69215
 Alpha  occ. eigenvalues --   -0.68934  -0.68504  -0.68261  -0.67830  -0.66680
 Alpha  occ. eigenvalues --   -0.66611  -0.66355  -0.66250  -0.65994  -0.65733
 Alpha  occ. eigenvalues --   -0.65120  -0.62781  -0.62720  -0.62054  -0.61403
 Alpha  occ. eigenvalues --   -0.60910  -0.60807  -0.60424  -0.60286  -0.59955
 Alpha  occ. eigenvalues --   -0.59748  -0.59226  -0.58994  -0.58615  -0.58508
 Alpha  occ. eigenvalues --   -0.58158  -0.57627  -0.57048  -0.56953  -0.56750
 Alpha  occ. eigenvalues --   -0.56281  -0.55926  -0.55826  -0.55482  -0.55074
 Alpha  occ. eigenvalues --   -0.54882  -0.54824  -0.54561  -0.54370  -0.54342
 Alpha  occ. eigenvalues --   -0.53875  -0.53831  -0.53792  -0.53724  -0.53577
 Alpha  occ. eigenvalues --   -0.53315  -0.53197  -0.53056  -0.52746  -0.52697
 Alpha  occ. eigenvalues --   -0.52560  -0.52260  -0.52148  -0.51827  -0.51725
 Alpha  occ. eigenvalues --   -0.51628  -0.51551  -0.51201  -0.51155  -0.50987
 Alpha  occ. eigenvalues --   -0.50791  -0.50603  -0.50430  -0.50262  -0.50199
 Alpha  occ. eigenvalues --   -0.49995  -0.49782  -0.49654  -0.49383  -0.49303
 Alpha  occ. eigenvalues --   -0.49224  -0.49204  -0.49107  -0.48957  -0.48635
 Alpha  occ. eigenvalues --   -0.48584  -0.48316  -0.48311  -0.48076  -0.47801
 Alpha  occ. eigenvalues --   -0.47739  -0.47595  -0.47390  -0.47268  -0.47162
 Alpha  occ. eigenvalues --   -0.47108  -0.46773  -0.46716  -0.46521  -0.46437
 Alpha  occ. eigenvalues --   -0.46262  -0.46056  -0.45970  -0.45633  -0.45527
 Alpha  occ. eigenvalues --   -0.45422  -0.45290  -0.45065  -0.44988  -0.44950
 Alpha  occ. eigenvalues --   -0.44740  -0.44734  -0.44439  -0.44350  -0.44233
 Alpha  occ. eigenvalues --   -0.44102  -0.43958  -0.43904  -0.43658  -0.43394
 Alpha  occ. eigenvalues --   -0.43273  -0.42998  -0.42913  -0.42698  -0.42655
 Alpha  occ. eigenvalues --   -0.42522  -0.42428  -0.42085  -0.41930  -0.41647
 Alpha  occ. eigenvalues --   -0.41584  -0.41533  -0.41131  -0.40720  -0.40193
 Alpha  occ. eigenvalues --   -0.40034  -0.39637  -0.39366  -0.39295  -0.39165
 Alpha  occ. eigenvalues --   -0.38213  -0.37967  -0.37879  -0.37763  -0.37339
 Alpha  occ. eigenvalues --   -0.37000  -0.36871  -0.35823  -0.35670  -0.35478
 Alpha  occ. eigenvalues --   -0.34914  -0.34721  -0.33969  -0.33718  -0.33125
 Alpha  occ. eigenvalues --   -0.32613  -0.32237  -0.32043  -0.31753  -0.31541
 Alpha  occ. eigenvalues --   -0.30923  -0.30749  -0.30149  -0.25349  -0.24897
 Alpha  occ. eigenvalues --   -0.22912  -0.22299
 Alpha virt. eigenvalues --   -0.06564  -0.06412   0.00149   0.01174   0.02143
 Alpha virt. eigenvalues --    0.03448   0.05062   0.05186   0.06387   0.07235
 Alpha virt. eigenvalues --    0.07332   0.08197   0.08404   0.08864   0.08986

 Mulliken charges:
               1
     1  Mg   0.983115
     2  C   -0.014645
     3  C   -0.063176
     4  C   -0.074566
     5  C   -0.099384
     6  N   -0.334777
     7  C   -0.018579
     8  C   -0.047543
     9  C   -0.130259
    10  C    0.024759
    11  C    0.037940
    12  C    0.055005
    13  C   -0.157915
    14  H    0.029267
    15  N   -0.481408
    16  C    0.182101
    17  C   -0.192447
    18  C   -0.023809
    19  C    0.131301
    20  C    0.057326
    21  C    0.037874
    22  O   -0.282767
    23  C    0.024858
    24  N   -0.376226
    25  C    0.076710
    26  C   -0.094096
    27  C   -0.053992
    28  C    0.062868
    29  C    0.028045
    30  C   -0.032843
    31  C   -0.042167
    32  N   -0.453776
    33  C    0.127521
    34  C   -0.174061
    35  C   -0.050646
    36  C    0.215861
    37  C    0.092183
    38  C    0.099471
    39  O   -0.176804
    40  C   -0.124945
    41  C    0.258384
    42  O   -0.294400
    43  O   -0.353798
    44  C    0.147135
    45  H   -0.010079
    46  H    0.019607
    47  H   -0.018557
    48  H    0.037011
    49  H    0.026314
    50  H    0.046607
    51  H    0.030745
    52  H    0.051121
    53  H    0.032793
    54  H    0.057745
    55  H    0.087537
    56  H    0.050059
    57  H    0.056206
    58  H    0.042676
    59  H    0.034012
    60  H    0.042286
    61  H    0.065155
    62  H    0.043091
    63  H    0.046354
    64  H    0.034954
    65  H    0.043542
    66  H    0.039241
    67  H    0.034601
    68  H    0.034795
    69  H    0.037300
    70  H    0.061481
    71  H    0.039420
    72  H    0.021651
    73  H    0.053382
    74  H    0.074661
    75  H    0.017939
    76  H    0.072386
    77  H    0.064277
    78  H    0.064078
    79  H    0.052641
    80  Mg   0.947577
    81  C    0.068842
    82  C   -0.093861
    83  C   -0.067355
    84  C   -0.088051
    85  N   -0.313367
    86  C    0.000189
    87  C   -0.122656
    88  C   -0.102187
    89  C    0.089583
    90  C    0.035295
    91  C   -0.015064
    92  C   -0.095509
    93  H    0.034022
    94  N   -0.554646
    95  C    0.175948
    96  C   -0.150762
    97  C   -0.083707
    98  C    0.208897
    99  C    0.035294
   100  C    0.081843
   101  O   -0.238019
   102  C   -0.013237
   103  N   -0.304866
   104  C   -0.028916
   105  C   -0.047982
   106  C   -0.102955
   107  C    0.059171
   108  C    0.030589
   109  C   -0.001658
   110  C   -0.060704
   111  N   -0.438755
   112  C    0.121360
   113  C   -0.206338
   114  C   -0.025976
   115  C    0.075369
   116  C    0.097922
   117  C    0.139072
   118  O   -0.208565
   119  C   -0.093907
   120  C    0.215840
   121  O   -0.192442
   122  O   -0.410722
   123  C    0.136177
   124  H    0.001007
   125  H    0.011811
   126  H   -0.026537
   127  H    0.029847
   128  H    0.035800
   129  H    0.037781
   130  H    0.031618
   131  H    0.047303
   132  H    0.020517
   133  H    0.081394
   134  H    0.039118
   135  H    0.067901
   136  H    0.043131
   137  H    0.064698
   138  H    0.060438
   139  H    0.079708
   140  H    0.041619
   141  H    0.064576
   142  H    0.041683
   143  H    0.039979
   144  H    0.046958
   145  H    0.032196
   146  H    0.056139
   147  H    0.026347
   148  H    0.022482
   149  H    0.037494
   150  H    0.039255
   151  H    0.045702
   152  H    0.032476
   153  H    0.055587
   154  H    0.039403
   155  H    0.078376
   156  H    0.051632
   157  H    0.068301
   158  H    0.053751
 Sum of Mulliken charges =  -0.00000

 Dipole moment (field-independent basis, Debye):
    X=             -3.7935    Y=             -0.9120    Z=              0.3711  Tot=              3.9192
 Quadrupole moment (field-independent basis, Debye-Ang):
   XX=           -444.9974   YY=           -474.9710   ZZ=           -509.7048
   XY=            -14.1132   XZ=            -19.9444   YZ=             -3.5418

 Normal termination of Gaussian 16 at Sat Sep 18 19:23:48 2021.
