 Gaussian 16, Revision A.03,
 Gaussian 16:  ES64L-G16RevA.03 25-Dec-2016

 --------------------------------
 #p wB97XD/Def2SVP td=(nstates=5)
 --------------------------------

 --------------------------------
 TDDFT excited states in gaussian
 --------------------------------
 Symbolic Z-matrix:
 Charge =  0 Multiplicity = 1

                         Standard orientation:
 ---------------------------------------------------------------------
 Center     Atomic      Atomic             Coordinates (Angstroms)
 Number     Number       Type             X           Y           Z
 ---------------------------------------------------------------------
      1         12           0       12.948381   -0.826873   -0.255705
      2          6           0       15.432747    1.671163    0.376715
      3          6           0       10.818975    1.015431    1.671627
      4          6           0       10.888873   -3.232478   -0.423379
      5          6           0       15.545069   -2.972089   -1.150652
      6          7           0       13.209017    1.084343    0.830558
      7          6           0       14.192193    1.971915    0.943478
      8          6           0       13.758147    3.287300    1.656737
      9          6           0       12.517797    2.726181    2.486602
     10          6           0       12.135248    1.559712    1.592774
     11          6           0       12.898546    2.187049    3.861691
     12          6           0       13.314993    4.395088    0.642759
     13          6           0       13.189420    5.804524    1.228487
     14          1           0       13.556412    6.942662    0.399447
     15          7           0       11.003105   -0.874190    0.085634
     16          6           0       10.300628   -0.036340    0.885522
     17          6           0        8.893010   -0.482581    0.807031
     18          6           0        8.863300   -1.763000    0.046941
     19          6           0       10.271594   -2.024664   -0.106740
     20          6           0        7.748458    0.301913    1.371230
     21          6           0        7.743473   -2.620846   -0.451276
     22          8           0        7.937158   -3.807625   -0.885575
     23          6           0        6.384806   -2.061155   -0.333750
     24          7           0       13.186699   -2.885265   -0.508420
     25          6           0       12.127191   -3.695841   -0.605335
     26          6           0       12.528704   -5.067031   -1.062024
     27          6           0       14.062256   -4.957893   -1.493373
     28          6           0       14.310358   -3.477996   -1.110466
     29          6           0       12.367975   -6.190431   -0.028510
     30          6           0       14.423896   -5.419288   -2.927511
     31          6           0       13.806146   -4.480668   -3.939675
     32          7           0       15.092399   -0.655098   -0.546780
     33          6           0       15.980653   -1.682153   -0.897261
     34          6           0       17.338271   -1.107584   -0.868778
     35          6           0       17.145702    0.218141   -0.485092
     36          6           0       15.758438    0.449633   -0.261031
     37          6           0       18.547679   -1.814252   -1.118553
     38          6           0       17.791691    1.486422   -0.188413
     39          8           0       18.939954    1.920087   -0.292915
     40          6           0       16.721907    2.444865    0.499174
     41          6           0       16.806210    3.783261   -0.182661
     42          8           0       16.466212    3.915807   -1.376059
     43          8           0       17.044063    4.734592    0.733274
     44          6           0       17.110108    6.090966    0.126608
     45          1           0       10.140427    1.384774    2.443054
     46          1           0       10.201922   -4.063046   -0.598572
     47          1           0       16.396439   -3.558942   -1.500259
     48          1           0       14.502792    3.703190    2.335680
     49          1           0       11.702560    3.447633    2.537776
     50          1           0       13.980144    2.159087    3.993160
     51          1           0       12.483679    1.179803    3.904501
     52          1           0       12.399388    2.750474    4.650469
     53          1           0       12.278938    4.222178    0.351635
     54          1           0       13.984496    4.420599   -0.217729
     55          1           0       13.667597    5.873994    2.205948
     56          1           0       12.135556    5.998806    1.428049
     57          1           0        8.095148    1.110447    2.013588
     58          1           0        7.205813   -0.364104    2.041802
     59          1           0        7.077704    0.666506    0.593097
     60          1           0        6.174522   -1.843711    0.713651
     61          1           0        5.722163   -2.775387   -0.821220
     62          1           0        6.349899   -1.105803   -0.858185
     63          1           0       11.937559   -5.381815   -1.921026
     64          1           0       14.711238   -5.553450   -0.850871
     65          1           0       11.733762   -7.009892   -0.367571
     66          1           0       11.980683   -5.750439    0.890023
     67          1           0       13.302996   -6.629188    0.318829
     68          1           0       14.017481   -6.411544   -3.120384
     69          1           0       15.498065   -5.459928   -3.108507
     70          1           0       12.791846   -4.865106   -4.040842
     71          1           0       14.341711   -4.537820   -4.887892
     72          1           0       13.732447   -3.465808   -3.548379
     73          1           0       19.154268   -1.166578   -1.751432
     74          1           0       18.354273   -2.771767   -1.601628
     75          1           0       18.928416   -1.927928   -0.103677
     76          1           0       16.987567    2.505392    1.554107
     77          1           0       18.072221    6.520832    0.405512
     78          1           0       16.209699    6.616835    0.444619
     79          1           0       17.174992    6.129774   -0.961337
     80         12           0      -13.613121   -0.540299    0.184560
     81          6           0      -13.126908    2.902411   -0.862018
     82          6           0      -12.197356    0.394226    3.097833
     83          6           0      -13.995455   -3.587544    1.062573
     84          6           0      -14.753807   -1.290643   -3.082349
     85          7           0      -12.757873    1.545526    1.033928
     86          6           0      -12.766865    2.763082    0.464426
     87          6           0      -12.324534    3.831014    1.482973
     88          6           0      -11.625620    2.841609    2.527544
     89          6           0      -12.262515    1.544692    2.251988
     90          6           0      -10.117353    2.917945    2.695683
     91          6           0      -13.568949    4.589641    1.975756
     92          6           0      -13.242567    6.027929    2.475191
     93          1           0      -11.837939    6.745675    2.216780
     94          7           0      -13.199170   -1.510408    1.903342
     95          6           0      -12.526311   -0.995670    2.994876
     96          6           0      -12.341257   -2.076462    3.958449
     97          6           0      -12.934716   -3.238579    3.406633
     98          6           0      -13.400492   -2.789681    2.063934
     99          6           0      -11.653884   -1.929068    5.242482
    100          6           0      -13.123300   -4.713115    4.044001
    101          8           0      -13.806230   -5.544804    3.511741
    102          6           0      -12.697364   -5.024686    5.489943
    103          7           0      -14.032086   -2.247910   -0.971695
    104          6           0      -14.280507   -3.372427   -0.305181
    105          6           0      -14.858836   -4.478565   -1.146173
    106          6           0      -15.445739   -3.626438   -2.297914
    107          6           0      -14.550104   -2.346151   -2.171963
    108          6           0      -13.780523   -5.532218   -1.680195
    109          6           0      -17.006626   -3.350089   -2.238476
    110          6           0      -17.953494   -4.386695   -1.566603
    111          7           0      -13.793691    0.493880   -1.634990
    112          6           0      -14.308361    0.126674   -2.834586
    113          6           0      -14.448155    1.213357   -3.694054
    114          6           0      -13.955911    2.266738   -2.977705
    115          6           0      -13.579580    1.831894   -1.722260
    116          6           0      -15.081805    1.185644   -5.082248
    117          6           0      -13.742153    3.717329   -3.090961
    118          8           0      -13.776207    4.494308   -4.033396
    119          6           0      -13.259705    4.166991   -1.643148
    120          6           0      -12.039508    4.936888   -1.810353
    121          8           0      -10.905222    4.495623   -2.020576
    122          8           0      -12.407565    6.226657   -1.958185
    123          6           0      -11.343918    7.049678   -2.505338
    124          1           0      -11.578629    0.657406    3.958369
    125          1           0      -14.074159   -4.627849    1.383372
    126          1           0      -15.201174   -1.551867   -4.043449
    127          1           0      -11.543116    4.473594    1.077098
    128          1           0      -11.986109    3.150715    3.507717
    129          1           0       -9.832644    3.295577    3.677273
    130          1           0       -9.685527    3.563504    1.931140
    131          1           0       -9.603229    1.970590    2.533363
    132          1           0      -13.931381    4.071977    2.864162
    133          1           0      -14.395323    4.597159    1.265255
    134          1           0      -13.500203    6.158158    3.526760
    135          1           0      -14.079263    6.596025    2.068852
    136          1           0      -11.666066   -0.896787    5.591621
    137          1           0      -10.635636   -2.272331    5.058805
    138          1           0      -12.091876   -2.514344    6.051307
    139          1           0      -13.270341   -4.484969    6.243898
    140          1           0      -11.615868   -4.887039    5.489641
    141          1           0      -12.789528   -6.094416    5.679602
    142          1           0      -15.559706   -4.957570   -0.462897
    143          1           0      -15.266044   -4.057152   -3.282648
    144          1           0      -14.279746   -6.477953   -1.470575
    145          1           0      -12.825237   -5.505233   -1.154803
    146          1           0      -13.572902   -5.497515   -2.748995
    147          1           0      -17.359035   -3.135528   -3.246373
    148          1           0      -17.029906   -2.497413   -1.559637
    149          1           0      -18.019570   -4.201615   -0.494739
    150          1           0      -17.531315   -5.344521   -1.872632
    151          1           0      -18.953624   -4.371672   -1.998366
    152          1           0      -15.814459    0.379910   -5.030552
    153          1           0      -14.382137    0.904575   -5.868831
    154          1           0      -15.544595    2.155318   -5.264829
    155          1           0      -14.059245    4.784799   -1.232374
    156          1           0      -11.633564    8.089825   -2.651915
    157          1           0      -10.798265    6.640979   -3.355985
    158          1           0      -10.538407    7.160108   -1.778533
 ---------------------------------------------------------------------

 SCF Done:  E(RwB97XD) =  -4070.58908466     A.U. after   19 cycles

 Excitation energies and oscillator strengths:

 Excited State   1:      Singlet-A      1.6216 eV  764.57 nm  f=0.3899  <S**2>=0.000
     309 -> 315        0.18182
     312 -> 313        0.68328
     309 <- 315        0.11456
 This state for optimization and/or second-order correction.
 Total Energy, E(TD-HF/TD-DFT) =  -4070.52949138
 Copying the excited state density for this state as the 1-particle RhoCI density.

 Excited State   2:      Singlet-A      1.7988 eV  689.28 nm  f=0.3700  <S**2>=0.000
     310 -> 316        0.19149
     311 -> 314        0.67946
     310 <- 316        0.11153

 Excited State   3:      Singlet-A      2.1386 eV  579.74 nm  f=0.0930  <S**2>=0.000
     309 -> 313        0.63833
     312 -> 315       -0.28196

 Excited State   4:      Singlet-A      2.1924 eV  565.53 nm  f=0.1529  <S**2>=0.000
     310 -> 314        0.65249
     311 -> 316       -0.25646

 Excited State   5:      Singlet-A      3.3012 eV  375.57 nm  f=0.0077  <S**2>=0.000
     307 -> 313       -0.44181
     308 -> 313        0.48862
     312 -> 315       -0.17038

 The electronic state is 1-A.
 Alpha  occ. eigenvalues --  -46.95729 -46.94097 -19.31471 -19.30147 -19.25631
 Alpha  occ. eigenvalues --  -19.23963 -19.23898 -19.23854 -19.23743 -19.23197
 Alpha  occ. eigenvalues --  -14.47017 -14.46120 -14.46027 -14.45705 -14.44604
 Alpha  occ. eigenvalues --  -14.43993 -14.43240 -14.43131 -10.42909 -10.42075
 Alpha  occ. eigenvalues --  -10.41065 -10.39400 -10.38839 -10.38384 -10.35464
 Alpha  occ. eigenvalues --  -10.35426 -10.35404 -10.34901 -10.34887 -10.34881
 Alpha  occ. eigenvalues --  -10.34736 -10.34584 -10.34517 -10.34305 -10.34169
 Alpha  occ. eigenvalues --  -10.33869 -10.33801 -10.33696 -10.33611 -10.33600
 Alpha  occ. eigenvalues --  -10.33255 -10.33217 -10.32790 -10.32752 -10.32439
 Alpha  occ. eigenvalues --  -10.32395 -10.32305 -10.32123 -10.32097 -10.32026
 Alpha  occ. eigenvalues --  -10.31841 -10.31764 -10.31704 -10.31682 -10.31676
 Alpha  occ. eigenvalues --  -10.31588 -10.31523 -10.31498 -10.31485 -10.31467
 Alpha  occ. eigenvalues --  -10.31448 -10.31401 -10.31339 -10.31326 -10.31171
 Alpha  occ. eigenvalues --  -10.31163 -10.31089 -10.30606 -10.30552 -10.30240
 Alpha  occ. eigenvalues --  -10.30161 -10.30053 -10.30052 -10.30012 -10.29966
 Alpha  occ. eigenvalues --  -10.29902 -10.29652 -10.29498 -10.29465 -10.29390
 Alpha  occ. eigenvalues --  -10.29253 -10.29074 -10.28840 -10.28778 -10.28443
 Alpha  occ. eigenvalues --  -10.27723  -3.21684  -3.20257  -1.95274  -1.94824
 Alpha  occ. eigenvalues --   -1.94634  -1.93834  -1.93399  -1.93238  -1.18794
 Alpha  occ. eigenvalues --   -1.18695  -1.14925  -1.11683  -1.10825  -1.09401
 Alpha  occ. eigenvalues --   -1.08846  -1.08806  -1.07840  -1.07268  -1.06767
 Alpha  occ. eigenvalues --   -1.06542  -1.05742  -1.05458  -1.05230  -1.04409
 Alpha  occ. eigenvalues --   -0.94333  -0.93900  -0.91383  -0.91217  -0.91023
 Alpha  occ. eigenvalues --   -0.90660  -0.90142  -0.89986  -0.89762  -0.89562
 Alpha  occ. eigenvalues --   -0.89547  -0.89200  -0.88865  -0.87523  -0.86849
 Alpha  occ. eigenvalues --   -0.86340  -0.85785  -0.85042  -0.84864  -0.84532
 Alpha  occ. eigenvalues --   -0.84298  -0.83925  -0.83493  -0.82703  -0.82525
 Alpha  occ. eigenvalues --   -0.82106  -0.80742  -0.80670  -0.79112  -0.78820
 Alpha  occ. eigenvalues --   -0.78779  -0.78568  -0.77828  -0.77680  -0.77235
 Alpha  occ. eigenvalues --   -0.76785  -0.74751  -0.74723  -0.73673  -0.73602
 Alpha  occ. eigenvalues --   -0.71767  -0.71633  -0.70802  -0.70752  -0.69617
 Alpha  occ. eigenvalues --   -0.69614  -0.69143  -0.68857  -0.67440  -0.67191
 Alpha  occ. eigenvalues --   -0.67087  -0.66809  -0.66647  -0.66564  -0.66195
 Alpha  occ. eigenvalues --   -0.65699  -0.64250  -0.63819  -0.62914  -0.62406
 Alpha  occ. eigenvalues --   -0.61731  -0.61521  -0.61266  -0.60942  -0.60464
 Alpha  occ. eigenvalues --   -0.60408  -0.59896  -0.59517  -0.59513  -0.59239
 Alpha  occ. eigenvalues --   -0.58626  -0.58264  -0.57828  -0.57463  -0.57442
 Alpha  occ. eigenvalues --   -0.57232  -0.57186  -0.56555  -0.56437  -0.56032
 Alpha  occ. eigenvalues --   -0.55806  -0.55786  -0.55592  -0.55212  -0.55133
 Alpha  occ. eigenvalues --   -0.54990  -0.54897  -0.54845  -0.54649  -0.54290
 Alpha  occ. eigenvalues --   -0.54226  -0.53805  -0.53715  -0.53500  -0.53253
 Alpha  occ. eigenvalues --   -0.53100  -0.53097  -0.52675  -0.52502  -0.52448
 Alpha  occ. eigenvalues --   -0.51970  -0.51912  -0.51848  -0.51692  -0.51419
 Alpha  occ. eigenvalues --   -0.51141  -0.51101  -0.50989  -0.50919  -0.50739
 Alpha  occ. eigenvalues --   -0.50564  -0.50486  -0.50390  -0.50354  -0.50315
 Alpha  occ. eigenvalues --   -0.49836  -0.49591  -0.49461  -0.49357  -0.49213
 Alpha  occ. eigenvalues --   -0.48970  -0.48713  -0.48667  -0.48447  -0.48284
 Alpha  occ. eigenvalues --   -0.48197  -0.48074  -0.47715  -0.47706  -0.47391
 Alpha  occ. eigenvalues --   -0.47076  -0.46853  -0.46594  -0.46478  -0.46473
 Alpha  occ. eigenvalues --   -0.46383  -0.46259  -0.46035  -0.46021  -0.45968
 Alpha  occ. eigenvalues --   -0.45909  -0.45892  -0.45789  -0.45349  -0.45296
 Alpha  occ. eigenvalues --   -0.45296  -0.45227  -0.44935  -0.44934  -0.44629
 Alpha  occ. eigenvalues --   -0.44620  -0.44531  -0.44419  -0.44258  -0.44026
 Alpha  occ. eigenvalues --   -0.43885  -0.43681  -0.43400  -0.43393  -0.43261
 Alpha  occ. eigenvalues --   -0.43001  -0.42829  -0.42711  -0.42423  -0.42322
 Alpha  occ. eigenvalues --   -0.42093  -0.41666  -0.41352  -0.41270  -0.40649
 Alpha  occ. eigenvalues --   -0.40333  -0.40205  -0.40053  -0.39660  -0.39447
 Alpha  occ. eigenvalues --   -0.39328  -0.39161  -0.38698  -0.38682  -0.38160
 Alpha  occ. eigenvalues --   -0.37955  -0.37683  -0.36256  -0.36187  -0.35752
 Alpha  occ. eigenvalues --   -0.35710  -0.35317  -0.34732  -0.34000  -0.33786
 Alpha  occ. eigenvalues --   -0.33326  -0.33156  -0.32877  -0.32351  -0.31976
 Alpha  occ. eigenvalues --   -0.31629  -0.31590  -0.31453  -0.25978  -0.25346
 Alpha  occ. eigenvalues --   -0.23254  -0.22896
 Alpha virt. eigenvalues --   -0.07078  -0.06633   0.00207   0.00794   0.02013
 Alpha virt. eigenvalues --    0.02574   0.04338   0.04722   0.05529   0.06298
 Alpha virt. eigenvalues --    0.06707   0.07128   0.07284   0.07864   0.08597

 Mulliken charges:
               1
     1  Mg   0.978400
     2  C   -0.019904
     3  C   -0.101279
     4  C   -0.061227
     5  C   -0.070987
     6  N   -0.323226
     7  C   -0.008554
     8  C   -0.058214
     9  C   -0.138190
    10  C    0.061988
    11  C    0.058321
    12  C    0.014146
    13  C   -0.126987
    14  H    0.052471
    15  N   -0.518284
    16  C    0.183523
    17  C   -0.196047
    18  C   -0.036973
    19  C    0.166526
    20  C    0.060872
    21  C    0.056743
    22  O   -0.280023
    23  C    0.001681
    24  N   -0.410161
    25  C    0.066091
    26  C   -0.084836
    27  C   -0.063834
    28  C    0.089657
    29  C    0.031894
    30  C   -0.016746
    31  C   -0.058114
    32  N   -0.398662
    33  C    0.097241
    34  C   -0.187970
    35  C   -0.040082
    36  C    0.126324
    37  C    0.081455
    38  C    0.128853
    39  O   -0.224756
    40  C   -0.076912
    41  C    0.275812
    42  O   -0.284505
    43  O   -0.335664
    44  C    0.120606
    45  H    0.007761
    46  H    0.010666
    47  H   -0.017357
    48  H    0.025981
    49  H    0.022609
    50  H    0.047090
    51  H    0.037737
    52  H    0.039977
    53  H    0.035451
    54  H    0.067724
    55  H    0.038870
    56  H    0.040617
    57  H    0.029560
    58  H    0.048789
    59  H    0.062309
    60  H    0.057611
    61  H    0.061983
    62  H    0.053260
    63  H    0.043021
    64  H    0.035604
    65  H    0.045319
    66  H    0.034241
    67  H    0.025662
    68  H    0.032612
    69  H    0.029399
    70  H    0.029270
    71  H    0.042248
    72  H    0.049667
    73  H    0.070909
    74  H    0.031400
    75  H    0.069352
    76  H    0.065811
    77  H    0.061253
    78  H    0.062808
    79  H    0.070315
    80  Mg   0.963172
    81  C   -0.002613
    82  C   -0.069563
    83  C   -0.086987
    84  C   -0.078691
    85  N   -0.252292
    86  C   -0.062645
    87  C   -0.061944
    88  C   -0.088847
    89  C    0.000069
    90  C    0.039710
    91  C    0.010112
    92  C   -0.092255
    93  H    0.048318
    94  N   -0.472576
    95  C    0.161344
    96  C   -0.161911
    97  C   -0.088100
    98  C    0.121943
    99  C    0.059581
   100  C    0.076629
   101  O   -0.197310
   102  C   -0.024238
   103  N   -0.321746
   104  C    0.065073
   105  C   -0.102250
   106  C   -0.113875
   107  C    0.058492
   108  C    0.030218
   109  C   -0.010569
   110  C   -0.052963
   111  N   -0.410084
   112  C    0.090441
   113  C   -0.219043
   114  C   -0.051400
   115  C    0.154683
   116  C    0.095800
   117  C    0.138679
   118  O   -0.197736
   119  C   -0.093012
   120  C    0.252572
   121  O   -0.272239
   122  O   -0.331188
   123  C    0.153359
   124  H   -0.010733
   125  H    0.011988
   126  H    0.003499
   127  H    0.040385
   128  H    0.017693
   129  H    0.039685
   130  H    0.042692
   131  H    0.036512
   132  H    0.031829
   133  H    0.048096
   134  H    0.038522
   135  H    0.037426
   136  H    0.044065
   137  H    0.065793
   138  H    0.040906
   139  H    0.086424
   140  H    0.045157
   141  H    0.050896
   142  H    0.043807
   143  H    0.017612
   144  H    0.042025
   145  H    0.045882
   146  H    0.042593
   147  H    0.037460
   148  H    0.027757
   149  H    0.050438
   150  H    0.034871
   151  H    0.039956
   152  H    0.025524
   153  H    0.053128
   154  H    0.055857
   155  H    0.073343
   156  H    0.049884
   157  H    0.060909
   158  H    0.024001
 Sum of Mulliken charges =  -0.00000

 Dipole moment (field-independent basis, Debye):
    X=             -4.1378    Y=             -0.9244    Z=              9.0764  Tot=             10.0178
 Quadrupole moment (field-independent basis, Debye-Ang):
   XX=           -596.5042   YY=           -487.7414   ZZ=           -493.0523
   XY=              2.7578   XZ=            -31.8387   YZ=             37.1150

 Normal termination of Gaussian 16 at Sun Sep 19 09:46:40 2021.
