 Gaussian 16, Revision A.03,
 Gaussian 16:  ES64L-G16RevA.03 25-Dec-2016

 --------------------------------
 #p wB97XD/Def2SVP td=(nstates=5)
 --------------------------------

 --------------------------------
 TDDFT excited states in gaussian
 --------------------------------
 Symbolic Z-matrix:
 Charge =  0 Multiplicity = 1

                         Standard orientation:
 ---------------------------------------------------------------------
 Center     Atomic      Atomic             Coordinates (Angstroms)
 Number     Number       Type             X           Y           Z
 ---------------------------------------------------------------------
      1         12           0       28.796693    0.538531   -0.177092
      2          6           0       27.690098   -2.785882    0.361846
      3          6           0       26.356584    1.566820    1.948022
      4          6           0       30.369244    3.550623   -0.059744
      5          6           0       31.521416   -0.755208   -1.884390
      6          7           0       27.338726   -0.623221    1.100104
      7          6           0       26.964610   -1.940787    1.111963
      8          6           0       25.775196   -2.174417    1.967335
      9          6           0       25.186423   -0.701138    2.180584
     10          6           0       26.340845    0.133807    1.742424
     11          6           0       23.915692   -0.476605    1.376958
     12          6           0       26.252759   -2.932324    3.215987
     13          6           0       25.522733   -4.295574    3.571693
     14          1           0       24.881091   -4.529392    4.972524
     15          7           0       28.444807    2.349161    0.743966
     16          6           0       27.304564    2.583457    1.524970
     17          6           0       27.248869    3.987376    1.802204
     18          6           0       28.421657    4.616186    1.262957
     19          6           0       29.101049    3.503658    0.546542
     20          6           0       26.065094    4.589021    2.548592
     21          6           0       28.850838    6.063644    1.351977
     22          8           0       27.985172    6.813332    1.889629
     23          6           0       30.220079    6.697485    0.976162
     24          7           0       30.702572    1.329282   -0.884455
     25          6           0       31.097629    2.612987   -0.736329
     26          6           0       32.504569    2.891662   -1.328424
     27          6           0       32.820380    1.518560   -2.015833
     28          6           0       31.604199    0.608749   -1.509827
     29          6           0       32.431740    4.067056   -2.286593
     30          6           0       34.134895    0.902060   -1.646042
     31          6           0       35.127789    0.862439   -2.775872
     32          7           0       29.426532   -1.274583   -0.831164
     33          6           0       30.532748   -1.707977   -1.572933
     34          6           0       30.409603   -3.018570   -1.964409
     35          6           0       29.281752   -3.483063   -1.257428
     36          6           0       28.773495   -2.409936   -0.529073
     37          6           0       31.268281   -3.660072   -3.033753
     38          6           0       28.393456   -4.662062   -1.077346
     39          8           0       28.457577   -5.739574   -1.582654
     40          6           0       27.407418   -4.192102    0.058058
     41          6           0       26.034224   -4.711926   -0.307678
     42          8           0       25.487201   -5.678122    0.223995
     43          8           0       25.450447   -3.897868   -1.308559
     44          6           0       24.071769   -4.284034   -1.607486
     45          1           0       25.455104    1.933822    2.443608
     46          1           0       30.860835    4.523578   -0.132837
     47          1           0       32.435939   -1.253545   -2.210710
     48          1           0       25.060417   -2.798935    1.431305
     49          1           0       24.943416   -0.583244    3.236254
     50          1           0       23.934871   -0.956264    0.399319
     51          1           0       23.835211    0.588297    1.156230
     52          1           0       23.004019   -0.741229    1.912564
     53          1           0       26.147082   -2.252083    4.060970
     54          1           0       27.326861   -3.116782    3.235615
     55          1           0       26.357398   -4.987713    3.457456
     56          1           0       24.864759   -4.603477    2.759917
     57          1           0       25.862653    4.041578    3.469162
     58          1           0       25.203633    4.471178    1.891361
     59          1           0       26.168774    5.609870    2.918872
     60          1           0       30.233334    6.629403   -0.111162
     61          1           0       31.013738    6.094671    1.417699
     62          1           0       30.323918    7.718808    1.343483
     63          1           0       33.257686    3.148024   -0.583740
     64          1           0       32.660716    1.596762   -3.090929
     65          1           0       31.934536    4.886191   -1.766794
     66          1           0       31.840472    3.763102   -3.150968
     67          1           0       33.341040    4.418225   -2.772931
     68          1           0       34.056800   -0.138653   -1.331519
     69          1           0       34.668011    1.349440   -0.807381
     70          1           0       36.043157    1.343027   -2.432773
     71          1           0       34.813153    1.453589   -3.635900
     72          1           0       35.316909   -0.136395   -3.170591
     73          1           0       30.731557   -4.554354   -3.352067
     74          1           0       32.253281   -3.939976   -2.660979
     75          1           0       31.350643   -2.901998   -3.812306
     76          1           0       27.703289   -4.833982    0.888653
     77          1           0       23.507529   -3.428505   -1.978949
     78          1           0       23.524219   -4.536756   -0.700617
     79          1           0       24.003372   -5.130979   -2.290761
     80         12           0      -29.255097   -0.193278   -0.803481
     81          6           0      -25.871280    0.455480    0.049368
     82          6           0      -28.720461   -3.489719    0.203872
     83          6           0      -32.521739   -0.421012   -0.466825
     84          6           0      -29.536415    3.396948   -1.463106
     85          7           0      -27.490939   -1.323977    0.289714
     86          6           0      -26.200638   -0.908089    0.254002
     87          6           0      -25.287258   -2.075616    0.581840
     88          6           0      -26.047986   -3.297717    0.067074
     89          6           0      -27.535757   -2.698613    0.242042
     90          6           0      -25.837153   -3.731211   -1.384813
     91          6           0      -24.922092   -2.048944    2.129993
     92          6           0      -23.484058   -2.289627    2.373013
     93          1           0      -23.103233   -3.206945    3.551347
     94          7           0      -30.522759   -1.748257   -0.157370
     95          6           0      -30.099606   -3.067964    0.138106
     96          6           0      -31.294532   -3.826165    0.410967
     97          6           0      -32.442181   -3.031166    0.150760
     98          6           0      -31.894440   -1.661462   -0.153805
     99          6           0      -31.207141   -5.284806    0.848762
    100          6           0      -33.850226   -3.450015    0.310543
    101          8           0      -34.087199   -4.590588    0.688783
    102          6           0      -35.066833   -2.599153    0.147918
    103          7           0      -30.830710    1.393431   -0.864074
    104          6           0      -32.086169    0.903472   -0.887078
    105          6           0      -33.092906    2.004702   -1.266045
    106          6           0      -32.137028    3.234104   -1.750860
    107          6           0      -30.741391    2.661438   -1.392010
    108          6           0      -34.232416    1.540546   -2.280760
    109          6           0      -32.455366    4.624249   -1.116631
    110          6           0      -31.584242    5.087216    0.100603
    111          7           0      -28.050081    1.522656   -0.745537
    112          6           0      -28.301263    2.877399   -1.105312
    113          6           0      -26.968144    3.622042   -1.150857
    114          6           0      -26.066265    2.691608   -0.659798
    115          6           0      -26.765836    1.449134   -0.452447
    116          6           0      -26.591844    5.062627   -1.547518
    117          6           0      -24.687366    2.469155   -0.360213
    118          8           0      -23.709089    3.202507   -0.512729
    119          6           0      -24.620929    1.104352    0.226422
    120          6           0      -24.350654    1.382914    1.722734
    121          8           0      -25.165710    1.732105    2.574038
    122          8           0      -22.951286    1.234003    1.930758
    123          6           0      -22.428457    1.553985    3.196696
    124          1           0      -28.599378   -4.554651    0.413578
    125          1           0      -33.589757   -0.645483   -0.498040
    126          1           0      -29.491034    4.438352   -1.786365
    127          1           0      -24.362115   -2.074472    0.005657
    128          1           0      -25.956088   -4.258737    0.571832
    129          1           0      -24.923433   -3.341041   -1.832197
    130          1           0      -26.749470   -3.625319   -1.972321
    131          1           0      -25.668162   -4.803570   -1.280233
    132          1           0      -25.466160   -2.851388    2.628281
    133          1           0      -25.308911   -1.182392    2.666344
    134          1           0      -23.113078   -1.274024    2.506214
    135          1           0      -23.055534   -2.730619    1.473141
    136          1           0      -31.475385   -5.982871    0.056000
    137          1           0      -31.802196   -5.413665    1.751684
    138          1           0      -30.183908   -5.534092    1.130115
    139          1           0      -35.164513   -2.344640   -0.907727
    140          1           0      -35.088523   -1.681678    0.737301
    141          1           0      -35.980807   -3.179422    0.268611
    142          1           0      -33.520515    2.282872   -0.303018
    143          1           0      -32.154387    3.276056   -2.839391
    144          1           0      -34.388892    0.463174   -2.228850
    145          1           0      -34.187206    1.874431   -3.318057
    146          1           0      -35.079786    2.156486   -1.975579
    147          1           0      -33.501063    4.717932   -0.824769
    148          1           0      -32.243683    5.302799   -1.942631
    149          1           0      -32.376452    5.656157    0.587798
    150          1           0      -30.735652    5.743247   -0.094582
    151          1           0      -31.326084    4.198291    0.676528
    152          1           0      -25.863608    5.067334   -2.357786
    153          1           0      -26.022566    5.295321   -0.648091
    154          1           0      -27.517182    5.632158   -1.631243
    155          1           0      -23.768606    0.569854   -0.193207
    156          1           0      -21.348542    1.430597    3.287294
    157          1           0      -22.900782    0.890353    3.919892
    158          1           0      -22.695561    2.599460    3.353356
 ---------------------------------------------------------------------

 SCF Done:  E(RwB97XD) =  -4070.56273032     A.U. after   20 cycles

 Excitation energies and oscillator strengths:

 Excited State   1:      Singlet-A      1.6240 eV  763.44 nm  f=0.2890  <S**2>=0.000
     310 -> 315        0.19885
     311 -> 313       -0.15784
     312 -> 314        0.65977
     310 <- 315        0.11958
 This state for optimization and/or second-order correction.
 Total Energy, E(TD-HF/TD-DFT) =  -4070.50304868
 Copying the excited state density for this state as the 1-particle RhoCI density.

 Excited State   2:      Singlet-A      1.6249 eV  763.04 nm  f=0.4244  <S**2>=0.000
     309 -> 316       -0.17494
     311 -> 313        0.66636
     312 -> 314        0.15625
     309 <- 316       -0.11435

 Excited State   3:      Singlet-A      2.1336 eV  581.10 nm  f=0.0543  <S**2>=0.000
     310 -> 314        0.61276
     312 -> 315       -0.34222

 Excited State   4:      Singlet-A      2.1634 eV  573.10 nm  f=0.1554  <S**2>=0.000
     309 -> 313        0.64646
     311 -> 316        0.27022

 Excited State   5:      Singlet-A      3.2313 eV  383.70 nm  f=0.0021  <S**2>=0.000
     305 -> 313        0.24999
     305 -> 318        0.10049
     307 -> 313        0.63504

 The electronic state is 1-A.
 Alpha  occ. eigenvalues --  -46.97661 -46.95380 -19.30872 -19.29959 -19.26351
 Alpha  occ. eigenvalues --  -19.25979 -19.24895 -19.24000 -19.23378 -19.22577
 Alpha  occ. eigenvalues --  -14.47000 -14.46995 -14.46834 -14.46523 -14.44844
 Alpha  occ. eigenvalues --  -14.44713 -14.44351 -14.43629 -10.44509 -10.44262
 Alpha  occ. eigenvalues --  -10.39691 -10.39505 -10.38591 -10.38065 -10.36074
 Alpha  occ. eigenvalues --  -10.35856 -10.35465 -10.35465 -10.35417 -10.35365
 Alpha  occ. eigenvalues --  -10.35135 -10.35053 -10.34900 -10.34871 -10.34779
 Alpha  occ. eigenvalues --  -10.34751 -10.34726 -10.34566 -10.34123 -10.33579
 Alpha  occ. eigenvalues --  -10.33498 -10.33077 -10.32882 -10.32841 -10.32723
 Alpha  occ. eigenvalues --  -10.32602 -10.32592 -10.32579 -10.32462 -10.32456
 Alpha  occ. eigenvalues --  -10.32448 -10.32443 -10.32380 -10.32284 -10.32267
 Alpha  occ. eigenvalues --  -10.32174 -10.32048 -10.31949 -10.31873 -10.31785
 Alpha  occ. eigenvalues --  -10.31651 -10.31618 -10.31579 -10.31464 -10.31408
 Alpha  occ. eigenvalues --  -10.31269 -10.31181 -10.31101 -10.31077 -10.31046
 Alpha  occ. eigenvalues --  -10.30942 -10.30826 -10.30673 -10.30473 -10.30387
 Alpha  occ. eigenvalues --  -10.30228 -10.30192 -10.30174 -10.29886 -10.29630
 Alpha  occ. eigenvalues --  -10.29517 -10.29331 -10.29187 -10.29146 -10.29048
 Alpha  occ. eigenvalues --  -10.29018  -3.23367  -3.21385  -1.96882  -1.96529
 Alpha  occ. eigenvalues --   -1.96277  -1.94953  -1.94512  -1.94359  -1.17995
 Alpha  occ. eigenvalues --   -1.17768  -1.14294  -1.11856  -1.11551  -1.10865
 Alpha  occ. eigenvalues --   -1.10184  -1.09869  -1.07273  -1.06311  -1.06215
 Alpha  occ. eigenvalues --   -1.05448  -1.05411  -1.04873  -1.04822  -1.03301
 Alpha  occ. eigenvalues --   -0.96411  -0.95304  -0.91794  -0.91275  -0.91037
 Alpha  occ. eigenvalues --   -0.90966  -0.90629  -0.89812  -0.89687  -0.89211
 Alpha  occ. eigenvalues --   -0.88983  -0.88793  -0.87925  -0.87511  -0.86791
 Alpha  occ. eigenvalues --   -0.86698  -0.86219  -0.85575  -0.84616  -0.84582
 Alpha  occ. eigenvalues --   -0.83882  -0.83561  -0.82813  -0.82678  -0.82468
 Alpha  occ. eigenvalues --   -0.82242  -0.79990  -0.79789  -0.79393  -0.79198
 Alpha  occ. eigenvalues --   -0.78842  -0.78807  -0.78440  -0.77969  -0.77480
 Alpha  occ. eigenvalues --   -0.77156  -0.75539  -0.74749  -0.74229  -0.73832
 Alpha  occ. eigenvalues --   -0.71842  -0.71393  -0.70937  -0.70723  -0.69680
 Alpha  occ. eigenvalues --   -0.69271  -0.69257  -0.68824  -0.68259  -0.67690
 Alpha  occ. eigenvalues --   -0.67396  -0.67312  -0.66962  -0.66920  -0.66700
 Alpha  occ. eigenvalues --   -0.66555  -0.65129  -0.64224  -0.62545  -0.62083
 Alpha  occ. eigenvalues --   -0.61928  -0.61770  -0.61624  -0.61275  -0.60985
 Alpha  occ. eigenvalues --   -0.60867  -0.60273  -0.60103  -0.59016  -0.58840
 Alpha  occ. eigenvalues --   -0.58247  -0.58101  -0.57940  -0.57804  -0.57647
 Alpha  occ. eigenvalues --   -0.57623  -0.56872  -0.56856  -0.56513  -0.56334
 Alpha  occ. eigenvalues --   -0.55852  -0.55641  -0.55539  -0.55303  -0.55185
 Alpha  occ. eigenvalues --   -0.54978  -0.54650  -0.54574  -0.54258  -0.54096
 Alpha  occ. eigenvalues --   -0.54025  -0.53895  -0.53691  -0.53612  -0.53336
 Alpha  occ. eigenvalues --   -0.53252  -0.53065  -0.52835  -0.52487  -0.52484
 Alpha  occ. eigenvalues --   -0.52264  -0.52090  -0.52014  -0.51904  -0.51846
 Alpha  occ. eigenvalues --   -0.51620  -0.51402  -0.51169  -0.50909  -0.50871
 Alpha  occ. eigenvalues --   -0.50581  -0.50427  -0.50284  -0.50182  -0.49951
 Alpha  occ. eigenvalues --   -0.49706  -0.49689  -0.49404  -0.49179  -0.49118
 Alpha  occ. eigenvalues --   -0.48861  -0.48777  -0.48570  -0.48442  -0.48015
 Alpha  occ. eigenvalues --   -0.47972  -0.47903  -0.47852  -0.47832  -0.47801
 Alpha  occ. eigenvalues --   -0.47707  -0.47455  -0.47366  -0.47270  -0.47235
 Alpha  occ. eigenvalues --   -0.47147  -0.47065  -0.46834  -0.46491  -0.46370
 Alpha  occ. eigenvalues --   -0.46028  -0.46005  -0.45906  -0.45802  -0.45670
 Alpha  occ. eigenvalues --   -0.45446  -0.45219  -0.45215  -0.44992  -0.44646
 Alpha  occ. eigenvalues --   -0.44439  -0.44391  -0.44348  -0.44339  -0.44000
 Alpha  occ. eigenvalues --   -0.43973  -0.43672  -0.43496  -0.43492  -0.43429
 Alpha  occ. eigenvalues --   -0.43310  -0.43053  -0.42965  -0.42876  -0.42330
 Alpha  occ. eigenvalues --   -0.42056  -0.41956  -0.41066  -0.40982  -0.40698
 Alpha  occ. eigenvalues --   -0.40503  -0.40180  -0.40172  -0.39885  -0.39764
 Alpha  occ. eigenvalues --   -0.39631  -0.39515  -0.39287  -0.38601  -0.38391
 Alpha  occ. eigenvalues --   -0.38319  -0.37724  -0.37396  -0.37183  -0.36700
 Alpha  occ. eigenvalues --   -0.36229  -0.35616  -0.35495  -0.33999  -0.33535
 Alpha  occ. eigenvalues --   -0.33135  -0.32986  -0.32716  -0.32568  -0.32183
 Alpha  occ. eigenvalues --   -0.32145  -0.31973  -0.31633  -0.26341  -0.25967
 Alpha  occ. eigenvalues --   -0.23479  -0.22835
 Alpha virt. eigenvalues --   -0.07710  -0.06884  -0.00732   0.00062   0.01850
 Alpha virt. eigenvalues --    0.02300   0.02925   0.04313   0.04419   0.04984
 Alpha virt. eigenvalues --    0.06261   0.06849   0.07426   0.07567   0.08141

 Mulliken charges:
               1
     1  Mg   0.972167
     2  C    0.038008
     3  C   -0.077563
     4  C   -0.047418
     5  C   -0.093057
     6  N   -0.359191
     7  C   -0.052127
     8  C   -0.053916
     9  C   -0.081897
    10  C    0.068495
    11  C    0.030576
    12  C    0.005117
    13  C   -0.116297
    14  H    0.047973
    15  N   -0.473563
    16  C    0.150660
    17  C   -0.148682
    18  C   -0.063238
    19  C    0.180337
    20  C    0.070537
    21  C    0.021565
    22  O   -0.276260
    23  C    0.023655
    24  N   -0.303451
    25  C    0.005364
    26  C   -0.045789
    27  C   -0.064936
    28  C    0.055367
    29  C    0.009399
    30  C   -0.002933
    31  C   -0.061513
    32  N   -0.466647
    33  C    0.108600
    34  C   -0.190755
    35  C   -0.079795
    36  C    0.147823
    37  C    0.086707
    38  C    0.122421
    39  O   -0.159463
    40  C   -0.057713
    41  C    0.245738
    42  O   -0.241478
    43  O   -0.390721
    44  C    0.140111
    45  H    0.005752
    46  H   -0.060485
    47  H    0.006952
    48  H    0.035237
    49  H    0.038506
    50  H    0.038031
    51  H    0.024525
    52  H    0.047546
    53  H    0.031361
    54  H    0.047668
    55  H    0.050624
    56  H    0.054811
    57  H    0.034252
    58  H    0.046794
    59  H    0.065072
    60  H    0.062876
    61  H    0.064248
    62  H    0.063550
    63  H    0.043489
    64  H    0.043086
    65  H    0.033475
    66  H    0.024383
    67  H    0.040190
    68  H    0.030967
    69  H    0.026665
    70  H    0.031348
    71  H    0.020871
    72  H    0.039953
    73  H    0.062303
    74  H    0.052056
    75  H    0.046473
    76  H    0.069851
    77  H    0.047271
    78  H    0.043952
    79  H    0.064126
    80  Mg   0.936627
    81  C    0.010869
    82  C   -0.075232
    83  C   -0.029755
    84  C   -0.064532
    85  N   -0.298356
    86  C   -0.021630
    87  C   -0.051789
    88  C   -0.134217
    89  C    0.044063
    90  C    0.038273
    91  C    0.033787
    92  C   -0.117088
    93  H    0.034902
    94  N   -0.490300
    95  C    0.145727
    96  C   -0.165678
    97  C   -0.024989
    98  C    0.111732
    99  C    0.096442
   100  C   -0.007046
   101  O   -0.246440
   102  C    0.014108
   103  N   -0.325682
   104  C    0.062869
   105  C   -0.098280
   106  C   -0.020401
   107  C    0.007485
   108  C    0.005955
   109  C   -0.047073
   110  C   -0.048102
   111  N   -0.422808
   112  C    0.106805
   113  C   -0.210725
   114  C   -0.023496
   115  C    0.161777
   116  C    0.090947
   117  C    0.075753
   118  O   -0.216279
   119  C   -0.055050
   120  C    0.276518
   121  O   -0.229453
   122  O   -0.374835
   123  C    0.144808
   124  H    0.004567
   125  H   -0.047411
   126  H   -0.000855
   127  H    0.012662
   128  H    0.029584
   129  H    0.042137
   130  H    0.047025
   131  H    0.028408
   132  H    0.032658
   133  H    0.056444
   134  H    0.045310
   135  H    0.046267
   136  H    0.058312
   137  H    0.061333
   138  H    0.009445
   139  H    0.040860
   140  H    0.071624
   141  H    0.046911
   142  H    0.050776
   143  H    0.037816
   144  H    0.052407
   145  H    0.033868
   146  H    0.031528
   147  H    0.040214
   148  H    0.030978
   149  H    0.035602
   150  H    0.046425
   151  H    0.060512
   152  H    0.072921
   153  H    0.067983
   154  H    0.038973
   155  H    0.061018
   156  H    0.058030
   157  H    0.041817
   158  H    0.053642
 Sum of Mulliken charges =  -0.00000

 Dipole moment (field-independent basis, Debye):
    X=              0.6468    Y=              4.3803    Z=             -5.4245  Tot=              7.0022
 Quadrupole moment (field-independent basis, Debye-Ang):
   XX=           -335.5427   YY=           -568.4771   ZZ=           -504.6874
   XY=             28.3802   XZ=             68.0209   YZ=            -14.6831

 Normal termination of Gaussian 16 at Sun Sep 19 19:25:05 2021.
