 Gaussian 16, Revision A.03,
 Gaussian 16:  ES64L-G16RevA.03 25-Dec-2016

 --------------------------------
 #p wB97XD/Def2SVP td=(nstates=5)
 --------------------------------

 --------------------------------
 TDDFT excited states in gaussian
 --------------------------------
 Symbolic Z-matrix:
 Charge =  0 Multiplicity = 1

                         Standard orientation:
 ---------------------------------------------------------------------
 Center     Atomic      Atomic             Coordinates (Angstroms)
 Number     Number       Type             X           Y           Z
 ---------------------------------------------------------------------
      1         12           0        0.771985   -0.110679   -0.127053
      2          6           0       -2.818577    0.258651    0.155497
      3          6           0        0.269840   -3.270699    0.319609
      4          6           0        4.066643   -0.198475   -0.135390
      5          6           0        1.161942    3.487685    0.203636
      6          7           0       -1.136699   -1.372196    0.080992
      7          6           0       -2.477458   -1.063995    0.182112
      8          6           0       -3.276794   -2.298796    0.394722
      9          6           0       -2.235491   -3.317886    0.924599
     10          6           0       -0.937341   -2.614672    0.462766
     11          6           0       -2.245850   -3.501273    2.458078
     12          6           0       -3.838090   -2.802775   -0.969785
     13          6           0       -5.343809   -3.274294   -0.979026
     14          1           0       -6.140120   -3.350646   -2.342142
     15          7           0        2.029263   -1.648405    0.029942
     16          6           0        1.663250   -2.900690    0.097058
     17          6           0        2.855707   -3.724557    0.034039
     18          6           0        3.901862   -2.807027   -0.221668
     19          6           0        3.343110   -1.489119   -0.086879
     20          6           0        2.758500   -5.260799    0.056738
     21          6           0        5.337464   -3.149173   -0.508006
     22          8           0        6.139950   -2.280549   -0.677922
     23          6           0        5.725567   -4.581743   -0.678302
     24          7           0        2.399917    1.500353    0.307845
     25          6           0        3.648428    1.109610    0.060513
     26          6           0        4.571912    2.258754   -0.096789
     27          6           0        3.611135    3.447613    0.222472
     28          6           0        2.250034    2.804641    0.263853
     29          6           0        5.922522    2.232688    0.705348
     30          6           0        3.755358    4.599478   -0.847249
     31          6           0        4.491182    5.914948   -0.468383
     32          7           0       -0.431763    1.513388    0.119094
     33          6           0       -0.195167    2.905611    0.161371
     34          6           0       -1.485928    3.620747    0.236012
     35          6           0       -2.466997    2.638456    0.214954
     36          6           0       -1.836295    1.406063    0.192126
     37          6           0       -1.650652    5.143598    0.459339
     38          6           0       -3.955371    2.467918    0.240043
     39          8           0       -4.886916    3.237582    0.241634
     40          6           0       -4.244729    0.889895    0.377364
     41          6           0       -5.286981    0.468901   -0.485124
     42          8           0       -5.063524    0.036841   -1.624613
     43          8           0       -6.587530    0.602644   -0.009010
     44          6           0       -7.709645   -0.005640   -0.787672
     45          1           0        0.238631   -4.357495    0.415055
     46          1           0        5.156117   -0.225767   -0.202944
     47          1           0        1.261607    4.570437    0.294035
     48          1           0       -3.996586   -2.141144    1.198358
     49          1           0       -2.304218   -4.332208    0.531980
     50          1           0       -2.468872   -4.536660    2.717346
     51          1           0       -3.020175   -2.842359    2.849856
     52          1           0       -1.322694   -3.206512    2.957867
     53          1           0       -3.209944   -3.655636   -1.227659
     54          1           0       -3.645997   -2.001223   -1.682741
     55          1           0       -5.888386   -2.646628   -0.274159
     56          1           0       -5.269246   -4.280287   -0.564373
     57          1           0        3.092509   -5.640278   -0.909813
     58          1           0        1.785090   -5.673917    0.318903
     59          1           0        3.512005   -5.673849    0.726739
     60          1           0        5.225564   -5.051349   -1.524991
     61          1           0        5.435067   -5.267518    0.117500
     62          1           0        6.790372   -4.629905   -0.907639
     63          1           0        4.842781    2.319408   -1.150862
     64          1           0        3.785316    3.785770    1.244177
     65          1           0        5.976517    1.252044    1.176986
     66          1           0        6.110348    3.054496    1.397229
     67          1           0        6.743281    2.341826   -0.003757
     68          1           0        2.759862    4.924154   -1.151250
     69          1           0        4.070555    4.088894   -1.757217
     70          1           0        5.185505    6.191911   -1.261503
     71          1           0        5.012061    5.779370    0.479613
     72          1           0        3.781689    6.737341   -0.369230
     73          1           0       -0.809888    5.641105   -0.023275
     74          1           0       -1.540632    5.361495    1.521910
     75          1           0       -2.596555    5.516213    0.065558
     76          1           0       -4.533285    0.692989    1.409449
     77          1           0       -7.608918   -1.090700   -0.838637
     78          1           0       -7.898713    0.541130   -1.710687
     79          1           0       -8.591025    0.047653   -0.148713
 ---------------------------------------------------------------------

 SCF Done:  E(RwB97XD) =  -2035.27428333     A.U. after   19 cycles

 Excitation energies and oscillator strengths:

 Excited State   1:      Singlet-A      1.6949 eV  731.52 nm  f=0.3802  <S**2>=0.000
     155 ->158         0.16842
     156 ->157         0.68667
     155 <-158         0.11051
 This state for optimization and/or second-order correction.
 Total Energy, E(TD-HF/TD-DFT) =  -2035.21199739
 Copying the excited state density for this state as the 1-particle RhoCI density.

 Excited State   2:      Singlet-A      2.1227 eV  584.09 nm  f=0.2217  <S**2>=0.000
     155 ->157         0.67196
     156 ->158        -0.20535

 Excited State   3:      Singlet-A      3.4400 eV  360.42 nm  f=0.0065  <S**2>=0.000
     152 ->157        -0.20285
     153 ->157         0.17524
     154 ->157         0.63299

 Excited State   4:      Singlet-A      3.5866 eV  345.68 nm  f=0.0016  <S**2>=0.000
     150 ->157        -0.10607
     152 ->157         0.57986
     153 ->157        -0.18099
     154 ->157         0.22910
     156 ->158         0.14963

 Excited State   5:      Singlet-A      3.7569 eV  330.02 nm  f=0.0059  <S**2>=0.000
     150 ->157         0.32034
     150 ->159        -0.14281
     151 ->157         0.46948
     151 ->159        -0.21577
     151 ->160         0.11941
     153 ->157         0.11175
     156 ->158        -0.11234

 The electronic state is 1-A.
 Alpha  occ. eigenvalues --  -46.95787 -19.29196 -19.24630 -19.24322 -19.23459
 Alpha  occ. eigenvalues --  -14.46392 -14.44741 -14.44423 -14.44374 -10.42329
 Alpha  occ. eigenvalues --  -10.39938 -10.39131 -10.35374 -10.35299 -10.35102
 Alpha  occ. eigenvalues --  -10.34744 -10.34080 -10.34032 -10.33837 -10.33590
 Alpha  occ. eigenvalues --  -10.33362 -10.32965 -10.32854 -10.32273 -10.32248
 Alpha  occ. eigenvalues --  -10.32140 -10.31980 -10.31905 -10.31322 -10.31305
 Alpha  occ. eigenvalues --  -10.31305 -10.30861 -10.30567 -10.30399 -10.30280
 Alpha  occ. eigenvalues --  -10.30173 -10.30024 -10.29884 -10.29603 -10.29553
 Alpha  occ. eigenvalues --  -10.29403 -10.29352 -10.29087  -3.21766  -1.95341
 Alpha  occ. eigenvalues --   -1.94897  -1.94726  -1.16327  -1.14433  -1.13049
 Alpha  occ. eigenvalues --   -1.08537  -1.07832  -1.06980  -1.06923  -1.02968
 Alpha  occ. eigenvalues --   -0.93196  -0.91152  -0.90821  -0.89888  -0.89775
 Alpha  occ. eigenvalues --   -0.89627  -0.87132  -0.86280  -0.84950  -0.84082
 Alpha  occ. eigenvalues --   -0.83921  -0.82881  -0.82383  -0.80779  -0.79042
 Alpha  occ. eigenvalues --   -0.78609  -0.78135  -0.77390  -0.74732  -0.73095
 Alpha  occ. eigenvalues --   -0.71213  -0.70724  -0.69977  -0.69286  -0.68060
 Alpha  occ. eigenvalues --   -0.67539  -0.66986  -0.66243  -0.63499  -0.63055
 Alpha  occ. eigenvalues --   -0.62076  -0.61065  -0.60038  -0.59534  -0.59177
 Alpha  occ. eigenvalues --   -0.58580  -0.57643  -0.57486  -0.55924  -0.55838
 Alpha  occ. eigenvalues --   -0.55373  -0.55025  -0.54603  -0.54383  -0.53936
 Alpha  occ. eigenvalues --   -0.53780  -0.53228  -0.52537  -0.52190  -0.52078
 Alpha  occ. eigenvalues --   -0.51804  -0.51644  -0.51542  -0.51177  -0.50762
 Alpha  occ. eigenvalues --   -0.50655  -0.50241  -0.49949  -0.49702  -0.49473
 Alpha  occ. eigenvalues --   -0.49356  -0.48381  -0.48150  -0.47717  -0.47463
 Alpha  occ. eigenvalues --   -0.47311  -0.46884  -0.46738  -0.46528  -0.46435
 Alpha  occ. eigenvalues --   -0.45946  -0.45431  -0.45280  -0.44913  -0.44736
 Alpha  occ. eigenvalues --   -0.44668  -0.44165  -0.43781  -0.43209  -0.42917
 Alpha  occ. eigenvalues --   -0.42558  -0.42275  -0.42098  -0.41792  -0.41768
 Alpha  occ. eigenvalues --   -0.40262  -0.39572  -0.39104  -0.38475  -0.38175
 Alpha  occ. eigenvalues --   -0.37724  -0.35564  -0.35045  -0.34767  -0.33981
 Alpha  occ. eigenvalues --   -0.33627  -0.33286  -0.32770  -0.31800  -0.25471
 Alpha  occ. eigenvalues --   -0.23471
 Alpha virt. eigenvalues --   -0.07430   0.01568   0.03035   0.04705   0.05480
 Alpha virt. eigenvalues --    0.06728   0.07719   0.08912   0.09320   0.10385
 Alpha virt. eigenvalues --    0.11529   0.12589   0.12931   0.13185   0.13364

 Mulliken charges:
               1
     1  Mg   0.973953
     2  C   -0.020965
     3  C   -0.054212
     4  C   -0.053553
     5  C   -0.109779
     6  N   -0.301970
     7  C   -0.007183
     8  C   -0.073362
     9  C   -0.132734
    10  C    0.070300
    11  C    0.036906
    12  C    0.034243
    13  C   -0.096340
    14  H    0.049872
    15  N   -0.460750
    16  C    0.091509
    17  C   -0.147490
    18  C   -0.078544
    19  C    0.134251
    20  C    0.063273
    21  C    0.051905
    22  O   -0.201401
    23  C   -0.020605
    24  N   -0.271235
    25  C    0.014801
    26  C   -0.095370
    27  C   -0.044711
    28  C    0.058030
    29  C    0.023241
    30  C   -0.029602
    31  C   -0.028117
    32  N   -0.485491
    33  C    0.125884
    34  C   -0.223661
    35  C   -0.055364
    36  C    0.152225
    37  C    0.077599
    38  C    0.163238
    39  O   -0.174807
    40  C   -0.083071
    41  C    0.267095
    42  O   -0.273035
    43  O   -0.390010
    44  C    0.157560
    45  H   -0.025694
    46  H    0.021056
    47  H   -0.000293
    48  H    0.020587
    49  H    0.035026
    50  H    0.041930
    51  H    0.027857
    52  H    0.045274
    53  H    0.025007
    54  H    0.073835
    55  H    0.043864
    56  H    0.037061
    57  H    0.048521
    58  H    0.053711
    59  H    0.042032
    60  H    0.049835
    61  H    0.042937
    62  H    0.056135
    63  H    0.045874
    64  H    0.031657
    65  H    0.049314
    66  H    0.037542
    67  H    0.032018
    68  H    0.020923
    69  H    0.014734
    70  H    0.040150
    71  H    0.034902
    72  H    0.038241
    73  H    0.028667
    74  H    0.052706
    75  H    0.061915
    76  H    0.080215
    77  H    0.043700
    78  H    0.073793
    79  H    0.042444
 Sum of Mulliken charges =  -0.00000

 Dipole moment (field-independent basis, Debye):
    X=              2.0203    Y=             -4.6546    Z=              1.4587  Tot=              5.2796
 Quadrupole moment (field-independent basis, Debye-Ang):
   XX=           -262.6562   YY=           -224.7490   ZZ=           -258.3577
   XY=             21.3046   XZ=             -6.3795   YZ=             -3.2940

 Normal termination of Gaussian 16 at Sun Sep 19 14:31:31 2021.
