 Gaussian 16, Revision A.03,
 Gaussian 16:  ES64L-G16RevA.03 25-Dec-2016

 --------------------------------
 #p wB97XD/Def2SVP td=(nstates=5)
 --------------------------------

 --------------------------------
 TDDFT excited states in gaussian
 --------------------------------
 Symbolic Z-matrix:
 Charge =  0 Multiplicity = 1

                         Standard orientation:
 ---------------------------------------------------------------------
 Center     Atomic      Atomic             Coordinates (Angstroms)
 Number     Number       Type             X           Y           Z
 ---------------------------------------------------------------------
      1         12           0       -8.754424   -0.448056   -0.135075
      2          6           0       -7.112864    2.519113    0.887276
      3          6           0      -11.096260    1.656822   -1.652932
      4          6           0      -10.342164   -3.092599   -1.259800
      5          6           0       -6.802926   -2.265322    2.096321
      6          7           0       -9.006580    1.812012   -0.357646
      7          6           0       -8.152998    2.809195    0.005884
      8          6           0       -8.594844    4.238359   -0.352810
      9          6           0       -9.983192    3.862865   -1.081003
     10          6           0      -10.010653    2.365388   -0.997351
     11          6           0      -11.267475    4.461444   -0.382088
     12          6           0       -7.588784    4.970279   -1.299786
     13          6           0       -6.741489    6.171377   -0.898240
     14          1           0       -6.428501    7.284752   -1.889165
     15          7           0      -10.443820   -0.719472   -1.364433
     16          6           0      -11.320769    0.268902   -1.834164
     17          6           0      -12.421765   -0.405462   -2.485014
     18          6           0      -12.150484   -1.770800   -2.528450
     19          6           0      -10.906200   -1.907981   -1.746606
     20          6           0      -13.459728    0.421576   -3.163693
     21          6           0      -12.946696   -2.943478   -3.099901
     22          8           0      -12.597314   -4.126160   -3.037756
     23          6           0      -14.143991   -2.614386   -3.901552
     24          7           0       -8.693345   -2.404313    0.401243
     25          6           0       -9.289496   -3.382657   -0.345213
     26          6           0       -8.658207   -4.784328   -0.044877
     27          6           0       -7.652860   -4.477277    1.057418
     28          6           0       -7.756859   -2.941102    1.267844
     29          6           0       -9.715308   -5.889746    0.280363
     30          6           0       -6.254704   -4.945919    0.626516
     31          6           0       -5.415292   -5.668438    1.616455
     32          7           0       -7.326865   -0.016620    1.305554
     33          6           0       -6.596212   -0.847674    2.116604
     34          6           0       -5.652175   -0.112309    2.903827
     35          6           0       -5.706565    1.280955    2.406327
     36          6           0       -6.763923    1.249305    1.413970
     37          6           0       -4.736405   -0.698595    3.991935
     38          6           0       -5.170564    2.662107    2.502993
     39          8           0       -4.185024    3.098539    3.121543
     40          6           0       -6.074390    3.499238    1.507079
     41          6           0       -6.635866    4.510744    2.456796
     42          8           0       -7.631199    4.421726    3.165428
     43          8           0       -5.984550    5.638279    2.371253
     44          6           0       -6.266971    6.726372    3.338666
     45          1           0      -11.653137    2.419667   -2.200432
     46          1           0      -10.798238   -4.048658   -1.523900
     47          1           0       -6.151782   -2.862056    2.737916
     48          1           0       -8.787125    4.768067    0.581057
     49          1           0      -10.085459    4.084061   -2.143864
     50          1           0      -11.151671    4.832878    0.635742
     51          1           0      -12.046141    3.701487   -0.327138
     52          1           0      -11.640607    5.280720   -0.996901
     53          1           0       -8.172738    5.323752   -2.149739
     54          1           0       -6.835191    4.271520   -1.660780
     55          1           0       -5.776295    5.686866   -0.750037
     56          1           0       -7.257949    6.512704   -0.001040
     57          1           0      -13.491174    0.235136   -4.236284
     58          1           0      -13.270384    1.485588   -3.019591
     59          1           0      -14.469315    0.226990   -2.803062
     60          1           0      -13.887327   -1.859041   -4.644412
     61          1           0      -14.901914   -2.087527   -3.321658
     62          1           0      -14.556601   -3.453817   -4.460293
     63          1           0       -8.191943   -5.020621   -1.001222
     64          1           0       -7.868195   -5.052222    1.957914
     65          1           0      -10.747342   -5.589752    0.099269
     66          1           0       -9.693516   -6.228232    1.315584
     67          1           0       -9.450319   -6.813842   -0.233166
     68          1           0       -5.769607   -4.009350    0.354498
     69          1           0       -6.245221   -5.632350   -0.219778
     70          1           0       -4.487930   -5.097445    1.655396
     71          1           0       -5.325487   -6.718850    1.339735
     72          1           0       -5.776511   -5.624857    2.644165
     73          1           0       -5.248506   -0.645088    4.951952
     74          1           0       -3.804233   -0.133861    3.992853
     75          1           0       -4.524192   -1.755077    3.826433
     76          1           0       -5.398135    3.968862    0.793004
     77          1           0       -7.293846    7.089211    3.310785
     78          1           0       -5.603423    7.586225    3.248817
     79          1           0       -6.104918    6.501358    4.392361
     80         12           0        7.997594   -0.859236   -0.141438
     81          6           0       10.585494    1.288038   -0.752934
     82          6           0        5.800998    1.645611   -0.196383
     83          6           0        5.707218   -3.031854    0.668775
     84          6           0       10.487559   -3.330572    0.487153
     85          7           0        8.189453    1.298396   -0.275198
     86          6           0        9.299883    1.887784   -0.784689
     87          6           0        9.005684    3.255471   -1.337455
     88          6           0        7.505226    3.445610   -0.875648
     89          6           0        7.140239    2.080032   -0.335131
     90          6           0        7.275859    4.616906    0.109450
     91          6           0        9.319063    3.419948   -2.947465
     92          6           0       10.103577    4.653264   -3.420450
     93          1           0       10.054089    5.916225   -2.504273
     94          7           0        6.085424   -0.751460    0.010636
     95          6           0        5.292378    0.350948   -0.027773
     96          6           0        3.911772    0.070183    0.282593
     97          6           0        3.836713   -1.289072    0.330948
     98          6           0        5.260537   -1.730140    0.457532
     99          6           0        2.990709    1.259456    0.484690
    100          6           0        2.589200   -2.183862    0.471239
    101          8           0        2.626722   -3.388456    0.567499
    102          6           0        1.297472   -1.422307    0.516539
    103          7           0        8.141528   -2.858649    0.656744
    104          6           0        6.992079   -3.547482    0.774379
    105          6           0        7.267038   -5.017959    1.104297
    106          6           0        8.779976   -5.182022    0.732984
    107          6           0        9.192065   -3.698455    0.640997
    108          6           0        6.921247   -5.542540    2.562711
    109          6           0        9.091193   -5.898419   -0.634877
    110          6           0        8.582576   -5.388212   -1.957466
    111          7           0       10.110895   -1.109418   -0.192973
    112          6           0       11.005355   -2.122526    0.167165
    113          6           0       12.400636   -1.700234   -0.009575
    114          6           0       12.284027   -0.353258   -0.384135
    115          6           0       10.881594   -0.085938   -0.473152
    116          6           0       13.652493   -2.529815    0.117603
    117          6           0       12.978750    0.807575   -0.708265
    118          8           0       14.166874    1.087407   -0.742213
    119          6           0       11.932837    1.846989   -1.188100
    120          6           0       12.345562    3.072031   -0.465586
    121          8           0       12.090344    3.327189    0.713814
    122          8           0       13.154823    3.852022   -1.239805
    123          6           0       13.907713    4.947371   -0.620550
    124          1           0        5.094723    2.450071   -0.412998
    125          1           0        4.992831   -3.825689    0.893394
    126          1           0       11.133902   -4.192676    0.668750
    127          1           0        9.561724    4.017999   -0.791938
    128          1           0        6.880917    3.582000   -1.758407
    129          1           0        7.150606    4.212831    1.113933
    130          1           0        6.354206    5.127242   -0.170260
    131          1           0        8.160940    5.250224    0.047938
    132          1           0        8.336539    3.418208   -3.419581
    133          1           0        9.913126    2.580705   -3.307828
    134          1           0        9.682553    5.032540   -4.351194
    135          1           0       11.126529    4.367714   -3.665373
    136          1           0        3.262424    1.921885    1.306702
    137          1           0        1.969763    1.114229    0.837283
    138          1           0        3.002357    1.698315   -0.513011
    139          1           0        1.192841   -0.789342   -0.364340
    140          1           0        1.365833   -0.928405    1.485590
    141          1           0        0.359648   -1.974922    0.472619
    142          1           0        6.579538   -5.525279    0.426550
    143          1           0        9.303611   -5.612143    1.587030
    144          1           0        6.500338   -4.727212    3.150587
    145          1           0        7.830248   -5.793638    3.108018
    146          1           0        6.274122   -6.418835    2.624048
    147          1           0        8.693063   -6.888505   -0.411324
    148          1           0       10.161462   -5.989796   -0.817251
    149          1           0        7.865750   -4.584046   -1.786332
    150          1           0        8.047138   -6.174268   -2.489718
    151          1           0        9.320315   -4.936407   -2.620274
    152          1           0       14.223200   -2.286474    1.012709
    153          1           0       14.276127   -2.393021   -0.766001
    154          1           0       13.262433   -3.537430    0.263532
    155          1           0       11.915362    1.934848   -2.274568
    156          1           0       14.810426    5.194730   -1.180389
    157          1           0       14.044774    4.794776    0.448886
    158          1           0       13.337285    5.875050   -0.578259
 ---------------------------------------------------------------------

 SCF Done:  E(RwB97XD) =  -4070.59800906     A.U. after   19 cycles

 Excitation energies and oscillator strengths:

 Excited State   1:      Singlet-A      1.7140 eV  723.36 nm  f=0.6849  <S**2>=0.000
     309 -> 315        0.12419
     310 -> 316        0.14084
     311 -> 313        0.46553
     312 -> 314        0.49802
 This state for optimization and/or second-order correction.
 Total Energy, E(TD-HF/TD-DFT) =  -4070.53502061
 Copying the excited state density for this state as the 1-particle RhoCI density.

 Excited State   2:      Singlet-A      1.7378 eV  713.44 nm  f=0.1048  <S**2>=0.000
     309 -> 315        0.13808
     310 -> 316       -0.13578
     311 -> 313        0.49828
     312 -> 314       -0.46281

 Excited State   3:      Singlet-A      2.1688 eV  571.68 nm  f=0.0954  <S**2>=0.000
     309 -> 313        0.63409
     311 -> 315       -0.29428

 Excited State   4:      Singlet-A      2.2262 eV  556.92 nm  f=0.0571  <S**2>=0.000
     310 -> 314        0.61420
     312 -> 316       -0.33913

 Excited State   5:      Singlet-A      3.3199 eV  373.46 nm  f=0.0000  <S**2>=0.000
     312 -> 313        0.70652

 The electronic state is 1-A.
 Alpha  occ. eigenvalues --  -46.95095 -46.94135 -19.30716 -19.28988 -19.24866
 Alpha  occ. eigenvalues --  -19.24772 -19.24160 -19.23351 -19.23133 -19.22521
 Alpha  occ. eigenvalues --  -14.47394 -14.46695 -14.46114 -14.45463 -14.44673
 Alpha  occ. eigenvalues --  -14.44465 -14.43782 -14.43160 -10.42700 -10.41952
 Alpha  occ. eigenvalues --  -10.40191 -10.39731 -10.39717 -10.37360 -10.35968
 Alpha  occ. eigenvalues --  -10.35914 -10.35706 -10.35514 -10.35093 -10.35091
 Alpha  occ. eigenvalues --  -10.34773 -10.34722 -10.34457 -10.34277 -10.34265
 Alpha  occ. eigenvalues --  -10.34141 -10.34060 -10.33879 -10.33347 -10.33037
 Alpha  occ. eigenvalues --  -10.32995 -10.32948 -10.32921 -10.32910 -10.32866
 Alpha  occ. eigenvalues --  -10.32734 -10.32629 -10.32487 -10.32432 -10.32375
 Alpha  occ. eigenvalues --  -10.32238 -10.32181 -10.31981 -10.31839 -10.31787
 Alpha  occ. eigenvalues --  -10.31749 -10.31715 -10.31711 -10.31580 -10.31508
 Alpha  occ. eigenvalues --  -10.31463 -10.31408 -10.31364 -10.31264 -10.31223
 Alpha  occ. eigenvalues --  -10.31203 -10.31161 -10.30678 -10.30630 -10.30482
 Alpha  occ. eigenvalues --  -10.30393 -10.30114 -10.30109 -10.30066 -10.29943
 Alpha  occ. eigenvalues --  -10.29880 -10.29773 -10.29717 -10.29712 -10.29593
 Alpha  occ. eigenvalues --  -10.29446 -10.29261 -10.28900 -10.28837 -10.28745
 Alpha  occ. eigenvalues --  -10.27881  -3.21123  -3.20393  -1.94714  -1.94248
 Alpha  occ. eigenvalues --   -1.94100  -1.93956  -1.93538  -1.93404  -1.20199
 Alpha  occ. eigenvalues --   -1.16864  -1.13565  -1.12544  -1.11053  -1.10864
 Alpha  occ. eigenvalues --   -1.08880  -1.07955  -1.07718  -1.07468  -1.06583
 Alpha  occ. eigenvalues --   -1.06333  -1.05942  -1.04985  -1.04844  -1.03560
 Alpha  occ. eigenvalues --   -0.94146  -0.94016  -0.91672  -0.91399  -0.91143
 Alpha  occ. eigenvalues --   -0.90915  -0.90173  -0.89926  -0.89732  -0.89696
 Alpha  occ. eigenvalues --   -0.89226  -0.88882  -0.88314  -0.87263  -0.86427
 Alpha  occ. eigenvalues --   -0.86119  -0.85566  -0.85321  -0.84980  -0.84851
 Alpha  occ. eigenvalues --   -0.84406  -0.84337  -0.82983  -0.82824  -0.82709
 Alpha  occ. eigenvalues --   -0.82309  -0.80997  -0.80767  -0.79611  -0.79220
 Alpha  occ. eigenvalues --   -0.79000  -0.78739  -0.78295  -0.77464  -0.77325
 Alpha  occ. eigenvalues --   -0.76984  -0.74445  -0.74417  -0.74013  -0.73499
 Alpha  occ. eigenvalues --   -0.71431  -0.71411  -0.70831  -0.70273  -0.69961
 Alpha  occ. eigenvalues --   -0.69828  -0.69178  -0.69135  -0.68008  -0.67381
 Alpha  occ. eigenvalues --   -0.67186  -0.67081  -0.66753  -0.66576  -0.66412
 Alpha  occ. eigenvalues --   -0.65592  -0.64595  -0.63547  -0.63211  -0.62935
 Alpha  occ. eigenvalues --   -0.61709  -0.61157  -0.61114  -0.61100  -0.60668
 Alpha  occ. eigenvalues --   -0.60028  -0.59871  -0.59720  -0.59627  -0.59362
 Alpha  occ. eigenvalues --   -0.58943  -0.58126  -0.57769  -0.57154  -0.57075
 Alpha  occ. eigenvalues --   -0.56895  -0.56441  -0.56416  -0.56332  -0.56163
 Alpha  occ. eigenvalues --   -0.55975  -0.55747  -0.55423  -0.55090  -0.54966
 Alpha  occ. eigenvalues --   -0.54817  -0.54703  -0.54423  -0.54339  -0.54244
 Alpha  occ. eigenvalues --   -0.54150  -0.54037  -0.53562  -0.53396  -0.53017
 Alpha  occ. eigenvalues --   -0.52736  -0.52627  -0.52380  -0.52220  -0.52166
 Alpha  occ. eigenvalues --   -0.52059  -0.51978  -0.51865  -0.51594  -0.51283
 Alpha  occ. eigenvalues --   -0.51248  -0.51080  -0.50849  -0.50844  -0.50695
 Alpha  occ. eigenvalues --   -0.50543  -0.50345  -0.50311  -0.50216  -0.49908
 Alpha  occ. eigenvalues --   -0.49843  -0.49770  -0.49555  -0.49535  -0.48916
 Alpha  occ. eigenvalues --   -0.48782  -0.48560  -0.48467  -0.48418  -0.48271
 Alpha  occ. eigenvalues --   -0.48182  -0.47988  -0.47730  -0.47610  -0.47455
 Alpha  occ. eigenvalues --   -0.47300  -0.47238  -0.47154  -0.46979  -0.46781
 Alpha  occ. eigenvalues --   -0.46610  -0.46528  -0.46413  -0.46278  -0.46109
 Alpha  occ. eigenvalues --   -0.45915  -0.45646  -0.45583  -0.45384  -0.45284
 Alpha  occ. eigenvalues --   -0.45226  -0.44979  -0.44920  -0.44653  -0.44624
 Alpha  occ. eigenvalues --   -0.44509  -0.44164  -0.44156  -0.43918  -0.43856
 Alpha  occ. eigenvalues --   -0.43621  -0.43486  -0.43389  -0.43346  -0.42994
 Alpha  occ. eigenvalues --   -0.42902  -0.42838  -0.42524  -0.42466  -0.42298
 Alpha  occ. eigenvalues --   -0.42211  -0.41900  -0.41626  -0.41330  -0.40965
 Alpha  occ. eigenvalues --   -0.40553  -0.40237  -0.40093  -0.39933  -0.39485
 Alpha  occ. eigenvalues --   -0.38906  -0.38884  -0.38608  -0.38267  -0.38142
 Alpha  occ. eigenvalues --   -0.37997  -0.37006  -0.36628  -0.36176  -0.35749
 Alpha  occ. eigenvalues --   -0.35384  -0.35268  -0.34797  -0.34431  -0.34332
 Alpha  occ. eigenvalues --   -0.34004  -0.33190  -0.32853  -0.32764  -0.32738
 Alpha  occ. eigenvalues --   -0.31905  -0.31694  -0.31072  -0.26082  -0.25594
 Alpha  occ. eigenvalues --   -0.23236  -0.22262
 Alpha virt. eigenvalues --   -0.07075  -0.05981  -0.00155   0.00326   0.01627
 Alpha virt. eigenvalues --    0.02490   0.03940   0.04754   0.05539   0.06029
 Alpha virt. eigenvalues --    0.07460   0.07714   0.08114   0.08297   0.08641

 Mulliken charges:
               1
     1  Mg   0.972470
     2  C    0.039349
     3  C   -0.094921
     4  C   -0.084543
     5  C   -0.089176
     6  N   -0.280259
     7  C   -0.033763
     8  C   -0.039420
     9  C   -0.125654
    10  C    0.010033
    11  C    0.001704
    12  C   -0.006271
    13  C   -0.125208
    14  H    0.045867
    15  N   -0.445376
    16  C    0.189511
    17  C   -0.135117
    18  C   -0.077899
    19  C    0.174043
    20  C    0.050676
    21  C    0.084571
    22  O   -0.232052
    23  C   -0.007103
    24  N   -0.424895
    25  C    0.030992
    26  C   -0.065443
    27  C   -0.064803
    28  C    0.113760
    29  C    0.012409
    30  C   -0.040747
    31  C   -0.047639
    32  N   -0.454418
    33  C    0.145634
    34  C   -0.200000
    35  C   -0.046462
    36  C    0.122809
    37  C    0.077941
    38  C    0.111868
    39  O   -0.228587
    40  C   -0.112589
    41  C    0.233212
    42  O   -0.268058
    43  O   -0.310616
    44  C    0.147953
    45  H    0.002132
    46  H    0.016516
    47  H   -0.005696
    48  H    0.060835
    49  H    0.045768
    50  H    0.052925
    51  H    0.038119
    52  H    0.037810
    53  H    0.038806
    54  H    0.031943
    55  H    0.060942
    56  H    0.052235
    57  H    0.054905
    58  H    0.035587
    59  H    0.048798
    60  H    0.039722
    61  H    0.050083
    62  H    0.061735
    63  H    0.054174
    64  H    0.032159
    65  H    0.057363
    66  H    0.025703
    67  H    0.035662
    68  H    0.035479
    69  H    0.031769
    70  H    0.037500
    71  H    0.044426
    72  H    0.025534
    73  H    0.057174
    74  H    0.059055
    75  H    0.025854
    76  H    0.074235
    77  H    0.051276
    78  H    0.052332
    79  H    0.053353
    80  Mg   0.992818
    81  C    0.011073
    82  C   -0.117153
    83  C   -0.081214
    84  C   -0.117212
    85  N   -0.330434
    86  C   -0.017096
    87  C   -0.037000
    88  C   -0.154129
    89  C    0.076342
    90  C    0.047286
    91  C    0.007335
    92  C   -0.125959
    93  H    0.026396
    94  N   -0.509990
    95  C    0.179800
    96  C   -0.130673
    97  C   -0.119889
    98  C    0.183162
    99  C    0.044967
   100  C    0.071233
   101  O   -0.203012
   102  C   -0.024831
   103  N   -0.321187
   104  C    0.021307
   105  C   -0.086108
   106  C   -0.050071
   107  C   -0.008594
   108  C    0.024241
   109  C   -0.010544
   110  C   -0.046683
   111  N   -0.398737
   112  C    0.159911
   113  C   -0.187464
   114  C    0.034736
   115  C    0.090983
   116  C    0.104743
   117  C    0.050494
   118  O   -0.214871
   119  C   -0.074851
   120  C    0.264559
   121  O   -0.268125
   122  O   -0.355906
   123  C    0.151911
   124  H   -0.007635
   125  H    0.016186
   126  H   -0.010997
   127  H    0.043040
   128  H    0.031786
   129  H    0.046265
   130  H    0.039076
   131  H    0.045599
   132  H    0.033053
   133  H    0.040948
   134  H    0.048759
   135  H    0.062355
   136  H    0.062094
   137  H    0.034005
   138  H    0.065876
   139  H    0.061526
   140  H    0.071762
   141  H    0.047461
   142  H    0.034677
   143  H    0.028994
   144  H    0.038698
   145  H    0.025791
   146  H    0.049811
   147  H    0.031863
   148  H    0.032094
   149  H    0.028712
   150  H    0.040700
   151  H    0.043715
   152  H    0.059138
   153  H    0.063552
   154  H    0.019435
   155  H    0.072342
   156  H    0.061256
   157  H    0.057156
   158  H    0.029341
 Sum of Mulliken charges =  -0.00000

 Dipole moment (field-independent basis, Debye):
    X=             -8.9396    Y=              1.1190    Z=             -6.0849  Tot=             10.8718
 Quadrupole moment (field-independent basis, Debye-Ang):
   XX=           -547.3499   YY=           -468.4428   ZZ=           -508.2334
   XY=            -44.6223   XZ=             17.8169   YZ=            -26.0970

 Normal termination of Gaussian 16 at Mon Sep 20 12:06:06 2021.
