 Gaussian 16, Revision A.03,
 Gaussian 16:  ES64L-G16RevA.03 25-Dec-2016

 --------------------------------
 #p wB97XD/Def2SVP td=(nstates=5)
 --------------------------------

 --------------------------------
 TDDFT excited states in gaussian
 --------------------------------
 Symbolic Z-matrix:
 Charge =  0 Multiplicity = 1

                         Standard orientation:
 ---------------------------------------------------------------------
 Center     Atomic      Atomic             Coordinates (Angstroms)
 Number     Number       Type             X           Y           Z
 ---------------------------------------------------------------------
      1         12           0      -23.812396   -0.839395   -0.021504
      2          6           0      -23.422013    2.432708   -1.193631
      3          6           0      -24.571865    0.564789    3.058994
      4          6           0      -23.758600   -3.858000    1.185311
      5          6           0      -22.783388   -2.000426   -3.205342
      6          7           0      -23.586265    1.297763    0.954343
      7          6           0      -23.580737    2.423351    0.232926
      8          6           0      -23.779830    3.565852    1.171917
      9          6           0      -23.703337    2.942210    2.587116
     10          6           0      -24.000546    1.503150    2.214854
     11          6           0      -22.431526    3.100830    3.422160
     12          6           0      -25.141944    4.290138    0.929189
     13          6           0      -25.159611    5.847484    0.799026
     14          1           0      -24.087318    6.686935    1.561200
     15          7           0      -24.277114   -1.574155    1.872678
     16          6           0      -24.744947   -0.808168    2.932187
     17          6           0      -25.074442   -1.720990    3.978021
     18          6           0      -24.722296   -3.049931    3.509563
     19          6           0      -24.239148   -2.900378    2.144979
     20          6           0      -25.574033   -1.306888    5.379458
     21          6           0      -24.750609   -4.411482    4.261828
     22          8           0      -24.419191   -5.451089    3.786651
     23          6           0      -25.304610   -4.378737    5.672642
     24          7           0      -23.347230   -2.636466   -0.917538
     25          6           0      -23.337878   -3.762406   -0.169505
     26          6           0      -22.951809   -5.042146   -0.961205
     27          6           0      -22.907868   -4.447600   -2.434129
     28          6           0      -23.043449   -2.945163   -2.217009
     29          6           0      -21.549876   -5.668846   -0.396879
     30          6           0      -23.924713   -5.115726   -3.412106
     31          6           0      -25.242340   -4.403987   -3.661575
     32          7           0      -23.241903   -0.017334   -1.899318
     33          6           0      -22.945436   -0.606838   -3.098546
     34          6           0      -22.705948    0.482734   -4.108893
     35          6           0      -22.889741    1.681326   -3.383078
     36          6           0      -23.177813    1.351323   -2.017382
     37          6           0      -22.192454    0.338519   -5.515777
     38          6           0      -22.874269    3.139378   -3.471990
     39          8           0      -22.626716    3.837230   -4.459560
     40          6           0      -23.371475    3.639513   -2.118954
     41          6           0      -22.374271    4.671354   -1.675604
     42          8           0      -21.281343    4.430361   -1.196602
     43          8           0      -22.850632    5.833849   -2.089990
     44          6           0      -21.935203    6.960745   -2.177318
     45          1           0      -24.669609    0.992707    4.058419
     46          1           0      -23.909800   -4.886556    1.518540
     47          1           0      -22.480794   -2.360361   -4.191223
     48          1           0      -22.984668    4.292411    1.007829
     49          1           0      -24.474728    3.439698    3.175105
     50          1           0      -21.634798    3.700920    2.982235
     51          1           0      -22.014111    2.122592    3.662366
     52          1           0      -22.741692    3.574618    4.353252
     53          1           0      -25.923391    3.992848    1.628206
     54          1           0      -25.405853    3.839469   -0.027450
     55          1           0      -26.144649    6.119969    1.180006
     56          1           0      -25.094984    6.107534   -0.257216
     57          1           0      -24.983611   -1.733062    6.190614
     58          1           0      -26.565763   -1.702685    5.598905
     59          1           0      -25.638868   -0.229310    5.535894
     60          1           0      -26.274643   -3.885072    5.734775
     61          1           0      -24.555257   -3.917993    6.316412
     62          1           0      -25.340804   -5.385608    6.088534
     63          1           0      -23.706370   -5.824827   -0.884730
     64          1           0      -21.961955   -4.635299   -2.941985
     65          1           0      -20.824364   -5.452567   -1.181186
     66          1           0      -21.548625   -6.758059   -0.349902
     67          1           0      -21.170098   -5.175267    0.498401
     68          1           0      -24.219089   -6.028536   -2.894016
     69          1           0      -23.469592   -5.393694   -4.362517
     70          1           0      -25.555654   -4.077020   -2.669348
     71          1           0      -25.844998   -5.214538   -4.070678
     72          1           0      -25.280308   -3.488508   -4.251404
     73          1           0      -21.884201   -0.648123   -5.861771
     74          1           0      -21.318625    0.977422   -5.644340
     75          1           0      -22.967779    0.775281   -6.144440
     76          1           0      -24.291829    4.222585   -2.157203
     77          1           0      -20.870262    6.814842   -1.999300
     78          1           0      -22.268393    7.598500   -1.357989
     79          1           0      -22.292917    7.627370   -2.962114
     80         12           0       24.055431   -0.626283    0.013815
     81          6           0       22.007893    2.064299    1.127560
     82          6           0       26.513724    1.662004   -0.723156
     83          6           0       25.785496   -3.239234   -1.034156
     84          6           0       21.237008   -2.830824    0.354135
     85          7           0       24.233555    1.691452    0.119778
     86          6           0       23.278738    2.496842    0.713059
     87          6           0       23.878839    3.944520    0.726318
     88          6           0       25.357910    3.827992    0.073816
     89          6           0       25.362044    2.321364   -0.204296
     90          6           0       25.645378    4.752377   -1.127582
     91          6           0       23.808201    4.741683    2.093918
     92          6           0       23.070589    6.048228    2.047892
     93          1           0       22.952959    6.897708    0.810011
     94          7           0       26.029358   -0.788657   -0.685994
     95          6           0       26.850608    0.268767   -0.920936
     96          6           0       28.137172   -0.295250   -1.239043
     97          6           0       27.932874   -1.678248   -1.434492
     98          6           0       26.514796   -2.007470   -1.076711
     99          6           0       29.345635    0.627244   -1.471603
    100          6           0       28.896763   -2.659606   -2.029497
    101          8           0       28.564127   -3.845297   -2.265591
    102          6           0       30.259440   -2.206178   -2.402265
    103          7           0       23.493383   -2.746628   -0.341707
    104          6           0       24.403712   -3.588262   -0.688964
    105          6           0       23.973812   -5.149597   -0.756690
    106          6           0       22.507488   -4.989772   -0.327152
    107          6           0       22.382464   -3.504447   -0.091439
    108          6           0       24.193162   -5.693739   -2.215777
    109          6           0       22.039700   -5.819619    0.919767
    110          6           0       22.558855   -5.348422    2.298962
    111          7           0       22.075226   -0.413429    0.476934
    112          6           0       21.070984   -1.407923    0.540937
    113          6           0       19.849362   -0.779248    1.061640
    114          6           0       20.175946    0.575228    1.311838
    115          6           0       21.562564    0.743045    0.978906
    116          6           0       18.495880   -1.507690    1.316715
    117          6           0       19.637889    1.736579    1.789638
    118          8           0       18.516544    2.029112    2.151850
    119          6           0       20.785465    2.784609    1.770113
    120          6           0       20.332844    3.944675    1.037647
    121          8           0       20.434254    4.090743   -0.185690
    122          8           0       19.560050    4.758644    1.874362
    123          6           0       18.884678    5.882396    1.179279
    124          1           0       27.257149    2.285743   -1.224641
    125          1           0       26.314011   -4.054047   -1.533527
    126          1           0       20.351266   -3.457006    0.479496
    127          1           0       23.120238    4.427841    0.112025
    128          1           0       26.092124    4.147271    0.812135
    129          1           0       26.529092    5.363750   -0.940466
    130          1           0       24.834790    5.405864   -1.449630
    131          1           0       25.841305    4.059837   -1.946183
    132          1           0       24.814163    4.916996    2.475744
    133          1           0       23.244091    4.099098    2.769955
    134          1           0       23.680312    6.762347    2.602542
    135          1           0       22.080959    5.886193    2.473601
    136          1           0       29.181406    1.628037   -1.071516
    137          1           0       29.555642    0.694417   -2.538298
    138          1           0       30.163880    0.138174   -0.944008
    139          1           0       30.717613   -1.807307   -1.497214
    140          1           0       30.223597   -1.391613   -3.126677
    141          1           0       30.818230   -3.014426   -2.872339
    142          1           0       24.528494   -5.745890   -0.031796
    143          1           0       21.858228   -5.130894   -1.191542
    144          1           0       24.065604   -4.858027   -2.903773
    145          1           0       23.404880   -6.416483   -2.429317
    146          1           0       25.146407   -6.169874   -2.446830
    147          1           0       22.187161   -6.882638    0.731755
    148          1           0       20.951066   -5.782079    0.944012
    149          1           0       23.548936   -4.894348    2.322111
    150          1           0       22.467872   -6.181753    2.996575
    151          1           0       21.822574   -4.620957    2.640350
    152          1           0       18.084781   -1.313859    2.307489
    153          1           0       18.546942   -2.583095    1.150200
    154          1           0       17.710781   -0.999761    0.756035
    155          1           0       20.890856    3.009894    2.830849
    156          1           0       18.095545    5.510247    0.526421
    157          1           0       19.534584    6.466867    0.529047
    158          1           0       18.617295    6.602994    1.952352
 ---------------------------------------------------------------------

 SCF Done:  E(RwB97XD) =  -4070.60724449     A.U. after   19 cycles

 Excitation energies and oscillator strengths:

 Excited State   1:      Singlet-A      1.6772 eV  739.25 nm  f=0.3957  <S**2>=0.000
     310 -> 316       -0.19188
     312 -> 314        0.68165
     310 <- 316       -0.11864
 This state for optimization and/or second-order correction.
 Total Energy, E(TD-HF/TD-DFT) =  -4070.54560981
 Copying the excited state density for this state as the 1-particle RhoCI density.

 Excited State   2:      Singlet-A      1.7177 eV  721.80 nm  f=0.3734  <S**2>=0.000
     309 -> 315        0.19151
     311 -> 313        0.67997
     309 <- 315        0.11531

 Excited State   3:      Singlet-A      2.1591 eV  574.24 nm  f=0.0876  <S**2>=0.000
     309 -> 313        0.63661
     311 -> 315       -0.28138

 Excited State   4:      Singlet-A      2.1599 eV  574.03 nm  f=0.1164  <S**2>=0.000
     310 -> 314        0.63732
     312 -> 316        0.28380

 Excited State   5:      Singlet-A      3.3635 eV  368.61 nm  f=0.0023  <S**2>=0.000
     305 -> 314       -0.35556
     308 -> 314        0.58038

 The electronic state is 1-A.
 Alpha  occ. eigenvalues --  -46.96139 -46.95103 -19.31483 -19.29425 -19.24612
 Alpha  occ. eigenvalues --  -19.24527 -19.24160 -19.23869 -19.23539 -19.22483
 Alpha  occ. eigenvalues --  -14.47254 -14.46443 -14.46336 -14.46160 -14.44369
 Alpha  occ. eigenvalues --  -14.44228 -14.43928 -14.43272 -10.43014 -10.42389
 Alpha  occ. eigenvalues --  -10.39536 -10.39080 -10.38365 -10.37192 -10.35977
 Alpha  occ. eigenvalues --  -10.35800 -10.35796 -10.35577 -10.35297 -10.35112
 Alpha  occ. eigenvalues --  -10.35093 -10.35043 -10.34760 -10.34729 -10.34479
 Alpha  occ. eigenvalues --  -10.34139 -10.33787 -10.33674 -10.33603 -10.33593
 Alpha  occ. eigenvalues --  -10.33509 -10.33459 -10.33325 -10.32890 -10.32874
 Alpha  occ. eigenvalues --  -10.32704 -10.32428 -10.32412 -10.32378 -10.32360
 Alpha  occ. eigenvalues --  -10.32172 -10.32115 -10.32109 -10.32097 -10.32054
 Alpha  occ. eigenvalues --  -10.31959 -10.31895 -10.31665 -10.31597 -10.31458
 Alpha  occ. eigenvalues --  -10.31422 -10.31178 -10.31165 -10.31142 -10.31139
 Alpha  occ. eigenvalues --  -10.31095 -10.31017 -10.30691 -10.30601 -10.30575
 Alpha  occ. eigenvalues --  -10.30501 -10.30399 -10.30313 -10.30255 -10.30246
 Alpha  occ. eigenvalues --  -10.30204 -10.29923 -10.29914 -10.29863 -10.29786
 Alpha  occ. eigenvalues --  -10.29777 -10.29664 -10.29186 -10.29013 -10.28870
 Alpha  occ. eigenvalues --  -10.27818  -3.21943  -3.21010  -1.95543  -1.95096
 Alpha  occ. eigenvalues --   -1.94863  -1.94605  -1.94167  -1.93938  -1.20540
 Alpha  occ. eigenvalues --   -1.16434  -1.13493  -1.11897  -1.11389  -1.10871
 Alpha  occ. eigenvalues --   -1.10723  -1.08435  -1.08115  -1.07000  -1.05761
 Alpha  occ. eigenvalues --   -1.05755  -1.05059  -1.04652  -1.03832  -1.03662
 Alpha  occ. eigenvalues --   -0.95382  -0.94204  -0.91584  -0.90567  -0.90462
 Alpha  occ. eigenvalues --   -0.90261  -0.89910  -0.89655  -0.89220  -0.89004
 Alpha  occ. eigenvalues --   -0.88691  -0.88208  -0.87408  -0.87392  -0.86357
 Alpha  occ. eigenvalues --   -0.86208  -0.85593  -0.85211  -0.84482  -0.84425
 Alpha  occ. eigenvalues --   -0.84181  -0.83324  -0.82678  -0.82582  -0.82015
 Alpha  occ. eigenvalues --   -0.81936  -0.80319  -0.79852  -0.79453  -0.79285
 Alpha  occ. eigenvalues --   -0.78884  -0.78330  -0.78204  -0.77601  -0.77010
 Alpha  occ. eigenvalues --   -0.76928  -0.74668  -0.74480  -0.73668  -0.73524
 Alpha  occ. eigenvalues --   -0.72340  -0.71438  -0.71010  -0.70864  -0.69976
 Alpha  occ. eigenvalues --   -0.69795  -0.68921  -0.68040  -0.67233  -0.67222
 Alpha  occ. eigenvalues --   -0.66882  -0.66874  -0.66603  -0.66572  -0.66313
 Alpha  occ. eigenvalues --   -0.66197  -0.64789  -0.63368  -0.62257  -0.61811
 Alpha  occ. eigenvalues --   -0.61629  -0.61471  -0.61155  -0.60592  -0.60457
 Alpha  occ. eigenvalues --   -0.60081  -0.60080  -0.59857  -0.59501  -0.59279
 Alpha  occ. eigenvalues --   -0.58812  -0.58202  -0.57978  -0.57973  -0.57187
 Alpha  occ. eigenvalues --   -0.56893  -0.56893  -0.56720  -0.56622  -0.55566
 Alpha  occ. eigenvalues --   -0.55465  -0.55207  -0.55186  -0.54920  -0.54807
 Alpha  occ. eigenvalues --   -0.54777  -0.54476  -0.54426  -0.53958  -0.53872
 Alpha  occ. eigenvalues --   -0.53583  -0.53449  -0.53316  -0.53211  -0.53120
 Alpha  occ. eigenvalues --   -0.52972  -0.52701  -0.52436  -0.52107  -0.51727
 Alpha  occ. eigenvalues --   -0.51600  -0.51459  -0.51297  -0.51173  -0.51115
 Alpha  occ. eigenvalues --   -0.51081  -0.50938  -0.50769  -0.50734  -0.50604
 Alpha  occ. eigenvalues --   -0.50501  -0.50287  -0.49991  -0.49950  -0.49864
 Alpha  occ. eigenvalues --   -0.49863  -0.49410  -0.49232  -0.49212  -0.48792
 Alpha  occ. eigenvalues --   -0.48633  -0.48526  -0.48425  -0.48297  -0.48079
 Alpha  occ. eigenvalues --   -0.47904  -0.47808  -0.47768  -0.47716  -0.47574
 Alpha  occ. eigenvalues --   -0.47510  -0.47409  -0.47298  -0.46931  -0.46817
 Alpha  occ. eigenvalues --   -0.46722  -0.46472  -0.46403  -0.46101  -0.45715
 Alpha  occ. eigenvalues --   -0.45682  -0.45643  -0.45382  -0.45303  -0.45143
 Alpha  occ. eigenvalues --   -0.45118  -0.45005  -0.44877  -0.44656  -0.44612
 Alpha  occ. eigenvalues --   -0.44362  -0.44250  -0.44079  -0.43768  -0.43720
 Alpha  occ. eigenvalues --   -0.43686  -0.43535  -0.43522  -0.43364  -0.43168
 Alpha  occ. eigenvalues --   -0.43084  -0.43007  -0.42928  -0.42574  -0.42475
 Alpha  occ. eigenvalues --   -0.42141  -0.41973  -0.41668  -0.41513  -0.41172
 Alpha  occ. eigenvalues --   -0.40995  -0.40263  -0.39165  -0.38999  -0.38871
 Alpha  occ. eigenvalues --   -0.38762  -0.38634  -0.38419  -0.38401  -0.38122
 Alpha  occ. eigenvalues --   -0.38015  -0.37440  -0.36389  -0.36063  -0.35893
 Alpha  occ. eigenvalues --   -0.35534  -0.35317  -0.35295  -0.33523  -0.33424
 Alpha  occ. eigenvalues --   -0.33177  -0.32978  -0.32501  -0.32253  -0.32127
 Alpha  occ. eigenvalues --   -0.31918  -0.31641  -0.31050  -0.25723  -0.25695
 Alpha  occ. eigenvalues --   -0.23051  -0.22855
 Alpha virt. eigenvalues --   -0.06870  -0.06807   0.00146   0.00420   0.02215
 Alpha virt. eigenvalues --    0.02240   0.04448   0.05011   0.05706   0.05914
 Alpha virt. eigenvalues --    0.07245   0.07717   0.07891   0.08130   0.08219

 Mulliken charges:
               1
     1  Mg   0.943675
     2  C   -0.009835
     3  C   -0.053578
     4  C   -0.049915
     5  C   -0.089599
     6  N   -0.281295
     7  C    0.032615
     8  C   -0.102524
     9  C   -0.078987
    10  C   -0.023210
    11  C    0.044036
    12  C   -0.008029
    13  C   -0.108858
    14  H    0.034747
    15  N   -0.486415
    16  C    0.194234
    17  C   -0.162095
    18  C   -0.110843
    19  C    0.127603
    20  C    0.066766
    21  C    0.057561
    22  O   -0.197966
    23  C   -0.025013
    24  N   -0.388394
    25  C    0.068214
    26  C   -0.106272
    27  C   -0.052114
    28  C    0.081576
    29  C    0.014956
    30  C   -0.034346
    31  C   -0.035160
    32  N   -0.431000
    33  C    0.126536
    34  C   -0.181576
    35  C   -0.031531
    36  C    0.144763
    37  C    0.071973
    38  C    0.142819
    39  O   -0.213867
    40  C   -0.092689
    41  C    0.223763
    42  O   -0.247821
    43  O   -0.327087
    44  C    0.146653
    45  H   -0.006234
    46  H    0.024694
    47  H   -0.006534
    48  H    0.040474
    49  H    0.020975
    50  H    0.047003
    51  H    0.041514
    52  H    0.029954
    53  H    0.038444
    54  H    0.025589
    55  H    0.052979
    56  H    0.060543
    57  H    0.037184
    58  H    0.040610
    59  H    0.034242
    60  H    0.057409
    61  H    0.052154
    62  H    0.039901
    63  H    0.049991
    64  H    0.031447
    65  H    0.019146
    66  H    0.045882
    67  H    0.059009
    68  H    0.022750
    69  H    0.029637
    70  H    0.030066
    71  H    0.044279
    72  H    0.041686
    73  H    0.038414
    74  H    0.061923
    75  H    0.059395
    76  H    0.073362
    77  H    0.085524
    78  H    0.026928
    79  H    0.057187
    80  Mg   0.949130
    81  C    0.012541
    82  C   -0.090611
    83  C   -0.048143
    84  C   -0.087794
    85  N   -0.314506
    86  C   -0.013097
    87  C   -0.056094
    88  C   -0.105073
    89  C    0.077708
    90  C    0.018412
    91  C    0.000039
    92  C   -0.139548
    93  H    0.031627
    94  N   -0.486170
    95  C    0.140226
    96  C   -0.180287
    97  C   -0.072234
    98  C    0.161040
    99  C    0.072860
   100  C    0.036399
   101  O   -0.261896
   102  C    0.006676
   103  N   -0.271953
   104  C    0.015752
   105  C   -0.110015
   106  C    0.029210
   107  C   -0.040085
   108  C   -0.003661
   109  C   -0.032798
   110  C   -0.036088
   111  N   -0.476897
   112  C    0.148530
   113  C   -0.175996
   114  C    0.006802
   115  C    0.138809
   116  C    0.087132
   117  C    0.031590
   118  O   -0.201424
   119  C   -0.063089
   120  C    0.266978
   121  O   -0.263255
   122  O   -0.379027
   123  C    0.150056
   124  H    0.007848
   125  H    0.029018
   126  H   -0.009079
   127  H    0.057276
   128  H    0.044904
   129  H    0.035049
   130  H    0.051807
   131  H    0.033485
   132  H    0.031606
   133  H    0.036309
   134  H    0.048455
   135  H    0.062225
   136  H    0.047826
   137  H    0.064198
   138  H    0.046292
   139  H    0.050880
   140  H    0.050332
   141  H    0.058508
   142  H    0.052381
   143  H    0.036490
   144  H    0.045577
   145  H    0.037064
   146  H    0.064060
   147  H    0.030896
   148  H    0.025089
   149  H    0.049778
   150  H    0.041211
   151  H    0.038637
   152  H    0.043758
   153  H    0.031545
   154  H    0.051172
   155  H    0.073534
   156  H    0.064667
   157  H    0.041692
   158  H    0.053736
 Sum of Mulliken charges =  -0.00000

 Dipole moment (field-independent basis, Debye):
    X=              2.5834    Y=              1.0417    Z=              1.3112  Tot=              3.0787
 Quadrupole moment (field-independent basis, Debye-Ang):
   XX=           -192.6683   YY=           -473.9762   ZZ=           -502.2419
   XY=            -19.1696   XZ=             -7.2605   YZ=             23.7177

 Normal termination of Gaussian 16 at Mon Sep 20 19:59:38 2021.
