 Gaussian 16, Revision A.03,
 Gaussian 16:  ES64L-G16RevA.03 25-Dec-2016

 --------------------------------
 #p wB97XD/Def2SVP td=(nstates=5)
 --------------------------------

 --------------------------------
 TDDFT excited states in gaussian
 --------------------------------
 Symbolic Z-matrix:
 Charge =  0 Multiplicity = 1

                         Standard orientation:
 ---------------------------------------------------------------------
 Center     Atomic      Atomic             Coordinates (Angstroms)
 Number     Number       Type             X           Y           Z
 ---------------------------------------------------------------------
      1         12           0      -11.809751   -0.044306   -0.190939
      2          6           0       -8.626616   -0.531359    1.143223
      3          6           0      -11.381833    3.360572    0.138106
      4          6           0      -14.782676    0.186540   -1.560875
      5          6           0      -11.682343   -3.464686   -1.442860
      6          7           0      -10.116017    1.263417    0.656264
      7          6           0       -8.896183    0.855907    1.118396
      8          6           0       -8.096520    2.013458    1.601462
      9          6           0       -8.977388    3.273133    1.232634
     10          6           0      -10.283865    2.630217    0.623048
     11          6           0       -9.158806    4.296175    2.382121
     12          6           0       -6.689715    2.088471    0.959819
     13          6           0       -5.610505    2.212675    2.033940
     14          1           0       -4.594036    3.386475    1.899819
     15          7           0      -12.945818    1.566010   -0.620674
     16          6           0      -12.640667    2.904858   -0.380059
     17          6           0      -13.830105    3.650029   -0.771713
     18          6           0      -14.874753    2.729464   -1.248572
     19          6           0      -14.251430    1.376827   -1.096536
     20          6           0      -13.860644    5.094469   -0.838799
     21          6           0      -16.122822    3.206498   -1.867449
     22          8           0      -16.428366    4.375719   -1.974661
     23          6           0      -17.116379    2.314585   -2.526390
     24          7           0      -12.969362   -1.393991   -1.330066
     25          6           0      -14.298165   -1.118053   -1.530569
     26          6           0      -14.968942   -2.274167   -2.241961
     27          6           0      -13.849324   -3.174042   -2.610609
     28          6           0      -12.749117   -2.649694   -1.829468
     29          6           0      -16.174443   -2.937522   -1.458031
     30          6           0      -13.428878   -3.052028   -4.115515
     31          6           0      -12.871531   -4.247278   -4.738843
     32          7           0      -10.466669   -1.720485   -0.157539
     33          6           0      -10.566621   -3.034578   -0.633009
     34          6           0       -9.517387   -3.818155   -0.060308
     35          6           0       -8.710048   -2.900484    0.601366
     36          6           0       -9.314362   -1.598183    0.483167
     37          6           0       -9.378011   -5.283315   -0.251815
     38          6           0       -7.504360   -2.749722    1.314236
     39          8           0       -6.676382   -3.575123    1.629191
     40          6           0       -7.424859   -1.265219    1.734872
     41          6           0       -7.304081   -1.186919    3.199366
     42          8           0       -8.250174   -1.186282    4.004915
     43          8           0       -5.978242   -1.275078    3.556929
     44          6           0       -5.581688   -1.122043    4.947287
     45          1           0      -11.202477    4.420146    0.329123
     46          1           0      -15.738502    0.124305   -2.087074
     47          1           0      -11.699856   -4.490788   -1.816098
     48          1           0       -8.204455    1.977031    2.685859
     49          1           0       -8.541990    3.895191    0.451207
     50          1           0       -8.339994    4.036149    3.054058
     51          1           0      -10.142708    4.337099    2.849533
     52          1           0       -8.980217    5.304996    2.010783
     53          1           0       -6.523721    2.980579    0.356203
     54          1           0       -6.580978    1.184006    0.361580
     55          1           0       -5.036547    1.314278    1.807363
     56          1           0       -6.107816    2.144335    3.000344
     57          1           0      -12.899063    5.467805   -0.485897
     58          1           0      -14.579226    5.588495   -0.184140
     59          1           0      -13.980622    5.404568   -1.877443
     60          1           0      -17.199151    1.550242   -1.753692
     61          1           0      -16.671872    1.910714   -3.436389
     62          1           0      -18.064102    2.828637   -2.688072
     63          1           0      -15.418340   -1.796410   -3.111752
     64          1           0      -13.909384   -4.217003   -2.299433
     65          1           0      -16.450610   -2.329191   -0.596570
     66          1           0      -16.048954   -3.997026   -1.232146
     67          1           0      -17.119812   -2.878575   -1.996673
     68          1           0      -12.729447   -2.223118   -4.224861
     69          1           0      -14.284921   -2.778722   -4.732239
     70          1           0      -13.692087   -4.852254   -5.126107
     71          1           0      -12.236302   -4.812600   -4.056136
     72          1           0      -12.385392   -3.978048   -5.677100
     73          1           0      -10.349800   -5.776633   -0.238350
     74          1           0       -8.702102   -5.760384    0.458050
     75          1           0       -9.038014   -5.373373   -1.283553
     76          1           0       -6.493149   -0.787811    1.431099
     77          1           0       -5.803322   -1.922558    5.653162
     78          1           0       -5.967066   -0.178466    5.333080
     79          1           0       -4.492997   -1.117236    4.909172
     80         12           0       11.650378    0.113880   -0.516336
     81          6           0        8.811774    0.672147    1.637842
     82          6           0       11.627174   -3.204740    0.616602
     83          6           0       14.158875   -0.446643   -2.559165
     84          6           0       11.689447    3.526563   -1.273433
     85          7           0       10.320897   -1.091895    1.018424
     86          6           0        9.139406   -0.721656    1.579005
     87          6           0        8.384806   -1.909492    2.153523
     88          6           0        9.477443   -3.118061    2.128363
     89          6           0       10.551953   -2.441178    1.229144
     90          6           0        9.946209   -3.605751    3.522139
     91          6           0        7.075309   -2.235878    1.358998
     92          6           0        5.791978   -2.230162    2.229460
     93          1           0        5.058857   -3.689172    2.331051
     94          7           0       12.703688   -1.540494   -0.907269
     95          6           0       12.615410   -2.858039   -0.342965
     96          6           0       13.594827   -3.811086   -0.916519
     97          6           0       14.270638   -2.986240   -1.874343
     98          6           0       13.721309   -1.621643   -1.807283
     99          6           0       13.752961   -5.271694   -0.489211
    100          6           0       15.415259   -3.337210   -2.746635
    101          8           0       15.808547   -2.683448   -3.706675
    102          6           0       16.095093   -4.703193   -2.528399
    103          7           0       12.619243    1.319907   -1.838017
    104          6           0       13.663424    0.866143   -2.568300
    105          6           0       14.431355    1.968645   -3.242910
    106          6           0       13.642859    3.254890   -2.893831
    107          6           0       12.529546    2.691095   -1.982377
    108          6           0       15.911143    1.998516   -2.922801
    109          6           0       13.009817    3.930587   -4.247995
    110          6           0       13.373447    5.494945   -4.490536
    111          7           0       10.671543    1.839027    0.249775
    112          6           0       10.764224    3.161078   -0.248059
    113          6           0        9.747003    3.967087    0.436597
    114          6           0        8.914953    2.992910    1.048443
    115          6           0        9.575413    1.764007    1.008919
    116          6           0        9.542583    5.478971    0.452565
    117          6           0        7.757211    2.887961    1.980853
    118          8           0        6.970191    3.705906    2.533131
    119          6           0        7.608870    1.344404    2.271228
    120          6           0        7.557832    1.143585    3.757131
    121          8           0        8.285128    1.689132    4.538034
    122          8           0        6.491578    0.348701    4.074472
    123          6           0        6.170925    0.379836    5.523874
    124          1           0       11.661100   -4.183392    1.099440
    125          1           0       14.992894   -0.566864   -3.254150
    126          1           0       11.658263    4.588794   -1.523772
    127          1           0        8.185251   -1.661453    3.196030
    128          1           0        9.129214   -3.984097    1.564855
    129          1           0       11.003271   -3.386274    3.675146
    130          1           0        9.770368   -4.676843    3.630013
    131          1           0        9.388912   -3.217102    4.374506
    132          1           0        7.121384   -3.219978    0.891880
    133          1           0        6.895039   -1.509854    0.565775
    134          1           0        4.974797   -1.662663    1.783433
    135          1           0        5.903627   -1.787825    3.218897
    136          1           0       12.923429   -5.721340    0.057408
    137          1           0       14.663128   -5.502907    0.064087
    138          1           0       13.835545   -5.826659   -1.424257
    139          1           0       16.522178   -4.758819   -1.527134
    140          1           0       16.845253   -4.919640   -3.289748
    141          1           0       15.329813   -5.473702   -2.621869
    142          1           0       14.433210    1.767339   -4.315013
    143          1           0       14.257311    3.954310   -2.327709
    144          1           0       16.541823    1.673798   -3.750843
    145          1           0       16.225565    1.325219   -2.125444
    146          1           0       16.165269    3.012382   -2.612922
    147          1           0       11.923168    3.875078   -4.304125
    148          1           0       13.342568    3.431293   -5.157604
    149          1           0       14.272607    5.677635   -3.901788
    150          1           0       12.559325    6.153374   -4.184803
    151          1           0       13.701592    5.672272   -5.514400
    152          1           0        8.491599    5.751310    0.547354
    153          1           0        9.804569    5.851055   -0.538583
    154          1           0       10.265484    5.822859    1.192472
    155          1           0        6.619487    1.072350    1.904396
    156          1           0        7.083719    0.127043    6.062981
    157          1           0        5.490931   -0.462655    5.649086
    158          1           0        5.807713    1.305872    5.969475
 ---------------------------------------------------------------------

 SCF Done:  E(RwB97XD) =  -4070.57060159     A.U. after   20 cycles

 Excitation energies and oscillator strengths:

 Excited State   1:      Singlet-A      1.6143 eV  768.04 nm  f=0.2801  <S**2>=0.000
     309 -> 315       -0.19260
     311 -> 313        0.67576
     309 <- 315       -0.12013
 This state for optimization and/or second-order correction.
 Total Energy, E(TD-HF/TD-DFT) =  -4070.51127776
 Copying the excited state density for this state as the 1-particle RhoCI density.

 Excited State   2:      Singlet-A      1.6156 eV  767.40 nm  f=0.4562  <S**2>=0.000
     310 -> 316        0.19153
     312 -> 314        0.67646
     310 <- 316        0.12019

 Excited State   3:      Singlet-A      2.1190 eV  585.09 nm  f=0.1385  <S**2>=0.000
     310 -> 314        0.64245
     312 -> 316       -0.27837

 Excited State   4:      Singlet-A      2.1298 eV  582.15 nm  f=0.0936  <S**2>=0.000
     309 -> 313        0.63084
     311 -> 315        0.29853

 Excited State   5:      Singlet-A      3.6196 eV  342.53 nm  f=0.0000  <S**2>=0.000
     312 -> 313        0.70699

 The electronic state is 1-A.
 Alpha  occ. eigenvalues --  -46.95249 -46.94842 -19.30846 -19.30049 -19.24647
 Alpha  occ. eigenvalues --  -19.24272 -19.23999 -19.23733 -19.23361 -19.22370
 Alpha  occ. eigenvalues --  -14.47226 -14.46880 -14.46511 -14.46484 -14.45353
 Alpha  occ. eigenvalues --  -14.44869 -14.43814 -14.43723 -10.42896 -10.42636
 Alpha  occ. eigenvalues --  -10.39169 -10.39106 -10.38162 -10.37615 -10.35892
 Alpha  occ. eigenvalues --  -10.35672 -10.35657 -10.35633 -10.35613 -10.35610
 Alpha  occ. eigenvalues --  -10.35539 -10.35358 -10.35273 -10.35108 -10.35048
 Alpha  occ. eigenvalues --  -10.34900 -10.34890 -10.34758 -10.34421 -10.33959
 Alpha  occ. eigenvalues --  -10.33851 -10.33272 -10.33089 -10.33055 -10.32939
 Alpha  occ. eigenvalues --  -10.32858 -10.32845 -10.32674 -10.32671 -10.32660
 Alpha  occ. eigenvalues --  -10.32510 -10.32495 -10.32364 -10.32353 -10.32308
 Alpha  occ. eigenvalues --  -10.32241 -10.32214 -10.32160 -10.32031 -10.32013
 Alpha  occ. eigenvalues --  -10.31848 -10.31811 -10.31373 -10.31304 -10.31293
 Alpha  occ. eigenvalues --  -10.31229 -10.31182 -10.31166 -10.31149 -10.31041
 Alpha  occ. eigenvalues --  -10.30702 -10.30646 -10.30427 -10.30331 -10.30262
 Alpha  occ. eigenvalues --  -10.30172 -10.30069 -10.29936 -10.29933 -10.29724
 Alpha  occ. eigenvalues --  -10.29339 -10.29339 -10.29192 -10.29029 -10.28744
 Alpha  occ. eigenvalues --  -10.28714  -3.21185  -3.20919  -1.94776  -1.94509
 Alpha  occ. eigenvalues --   -1.94318  -1.94142  -1.94043  -1.93910  -1.19101
 Alpha  occ. eigenvalues --   -1.17581  -1.12250  -1.12198  -1.12024  -1.10855
 Alpha  occ. eigenvalues --   -1.09277  -1.08852  -1.06951  -1.05964  -1.05774
 Alpha  occ. eigenvalues --   -1.05252  -1.04963  -1.04613  -1.04048  -1.03589
 Alpha  occ. eigenvalues --   -0.94591  -0.93522  -0.92619  -0.91387  -0.90955
 Alpha  occ. eigenvalues --   -0.90593  -0.90350  -0.89963  -0.89604  -0.89342
 Alpha  occ. eigenvalues --   -0.89152  -0.88924  -0.88232  -0.87534  -0.87124
 Alpha  occ. eigenvalues --   -0.86416  -0.85914  -0.85320  -0.85043  -0.84454
 Alpha  occ. eigenvalues --   -0.83679  -0.83339  -0.83318  -0.82747  -0.82598
 Alpha  occ. eigenvalues --   -0.81693  -0.81066  -0.80559  -0.79871  -0.79012
 Alpha  occ. eigenvalues --   -0.79002  -0.78678  -0.78199  -0.77935  -0.77299
 Alpha  occ. eigenvalues --   -0.77152  -0.75362  -0.74532  -0.73984  -0.73381
 Alpha  occ. eigenvalues --   -0.71278  -0.71137  -0.70998  -0.70647  -0.69884
 Alpha  occ. eigenvalues --   -0.69490  -0.69412  -0.69081  -0.68375  -0.67839
 Alpha  occ. eigenvalues --   -0.67814  -0.67574  -0.67246  -0.66652  -0.66391
 Alpha  occ. eigenvalues --   -0.65997  -0.64324  -0.63976  -0.62823  -0.62680
 Alpha  occ. eigenvalues --   -0.61436  -0.61400  -0.61202  -0.60935  -0.60713
 Alpha  occ. eigenvalues --   -0.60308  -0.59905  -0.59893  -0.59337  -0.59111
 Alpha  occ. eigenvalues --   -0.58360  -0.58133  -0.57779  -0.57385  -0.57238
 Alpha  occ. eigenvalues --   -0.57094  -0.56927  -0.56444  -0.56317  -0.56117
 Alpha  occ. eigenvalues --   -0.55700  -0.55319  -0.55101  -0.54713  -0.54609
 Alpha  occ. eigenvalues --   -0.54504  -0.54451  -0.54193  -0.54121  -0.53982
 Alpha  occ. eigenvalues --   -0.53623  -0.53587  -0.53555  -0.53320  -0.53277
 Alpha  occ. eigenvalues --   -0.53173  -0.53152  -0.52734  -0.52393  -0.52307
 Alpha  occ. eigenvalues --   -0.51956  -0.51919  -0.51870  -0.51689  -0.51574
 Alpha  occ. eigenvalues --   -0.51387  -0.51310  -0.51141  -0.51006  -0.50735
 Alpha  occ. eigenvalues --   -0.50707  -0.50450  -0.50373  -0.50194  -0.50021
 Alpha  occ. eigenvalues --   -0.49926  -0.49516  -0.49482  -0.49397  -0.49034
 Alpha  occ. eigenvalues --   -0.48960  -0.48905  -0.48757  -0.48671  -0.48523
 Alpha  occ. eigenvalues --   -0.48446  -0.48207  -0.48129  -0.48112  -0.47858
 Alpha  occ. eigenvalues --   -0.47629  -0.47463  -0.47199  -0.46881  -0.46848
 Alpha  occ. eigenvalues --   -0.46711  -0.46662  -0.46477  -0.46418  -0.46322
 Alpha  occ. eigenvalues --   -0.46010  -0.45938  -0.45768  -0.45700  -0.45551
 Alpha  occ. eigenvalues --   -0.45372  -0.45251  -0.45114  -0.44945  -0.44819
 Alpha  occ. eigenvalues --   -0.44747  -0.44516  -0.44401  -0.44168  -0.43993
 Alpha  occ. eigenvalues --   -0.43949  -0.43615  -0.43494  -0.43484  -0.43332
 Alpha  occ. eigenvalues --   -0.43223  -0.43039  -0.42683  -0.42591  -0.42540
 Alpha  occ. eigenvalues --   -0.42364  -0.42136  -0.42055  -0.41292  -0.41076
 Alpha  occ. eigenvalues --   -0.40475  -0.40369  -0.40147  -0.39597  -0.39423
 Alpha  occ. eigenvalues --   -0.39312  -0.39255  -0.39010  -0.38501  -0.38325
 Alpha  occ. eigenvalues --   -0.38245  -0.37461  -0.36611  -0.36361  -0.36303
 Alpha  occ. eigenvalues --   -0.35695  -0.35233  -0.35159  -0.33840  -0.33559
 Alpha  occ. eigenvalues --   -0.32948  -0.32626  -0.32581  -0.32460  -0.32006
 Alpha  occ. eigenvalues --   -0.31653  -0.31503  -0.31486  -0.26190  -0.25799
 Alpha  occ. eigenvalues --   -0.23337  -0.23093
 Alpha virt. eigenvalues --   -0.07481  -0.07326  -0.00558   0.00091   0.02191
 Alpha virt. eigenvalues --    0.02354   0.04168   0.04500   0.05872   0.06572
 Alpha virt. eigenvalues --    0.06604   0.06851   0.07506   0.07743   0.07927

 Mulliken charges:
               1
     1  Mg   0.953465
     2  C    0.048227
     3  C   -0.057420
     4  C   -0.121966
     5  C   -0.096265
     6  N   -0.342856
     7  C   -0.024007
     8  C   -0.029485
     9  C   -0.145878
    10  C    0.045712
    11  C    0.012077
    12  C    0.023735
    13  C   -0.137841
    14  H    0.040602
    15  N   -0.537436
    16  C    0.202092
    17  C   -0.171297
    18  C   -0.064077
    19  C    0.269864
    20  C    0.097217
    21  C   -0.011538
    22  O   -0.239001
    23  C    0.006812
    24  N   -0.368849
    25  C    0.069639
    26  C   -0.083337
    27  C   -0.081804
    28  C    0.062935
    29  C    0.032059
    30  C    0.003167
    31  C   -0.018629
    32  N   -0.407046
    33  C    0.111804
    34  C   -0.185507
    35  C   -0.015264
    36  C    0.112795
    37  C    0.089644
    38  C    0.108450
    39  O   -0.187820
    40  C   -0.127564
    41  C    0.253689
    42  O   -0.269148
    43  O   -0.361141
    44  C    0.149029
    45  H    0.001671
    46  H   -0.005842
    47  H   -0.002957
    48  H    0.049506
    49  H    0.042773
    50  H    0.038709
    51  H    0.051561
    52  H    0.032587
    53  H    0.052122
    54  H    0.051749
    55  H    0.064186
    56  H    0.053098
    57  H    0.001174
    58  H    0.057514
    59  H    0.064921
    60  H    0.039521
    61  H    0.062458
    62  H    0.058146
    63  H    0.032751
    64  H    0.026988
    65  H    0.034023
    66  H    0.045363
    67  H    0.027752
    68  H    0.039459
    69  H    0.019921
    70  H    0.027017
    71  H    0.029214
    72  H    0.034513
    73  H    0.036076
    74  H    0.067765
    75  H    0.051011
    76  H    0.051161
    77  H    0.057822
    78  H    0.047505
    79  H    0.050918
    80  Mg   0.990592
    81  C   -0.017410
    82  C   -0.078442
    83  C   -0.086414
    84  C   -0.079913
    85  N   -0.298303
    86  C   -0.019820
    87  C   -0.052909
    88  C   -0.107204
    89  C    0.010964
    90  C    0.015664
    91  C    0.042921
    92  C   -0.139538
    93  H   -0.008519
    94  N   -0.512300
    95  C    0.177322
    96  C   -0.130181
    97  C   -0.070965
    98  C    0.182110
    99  C    0.070236
   100  C    0.029638
   101  O   -0.236693
   102  C   -0.016479
   103  N   -0.420561
   104  C    0.093865
   105  C   -0.078864
   106  C   -0.074232
   107  C    0.101991
   108  C    0.012640
   109  C   -0.031758
   110  C   -0.079639
   111  N   -0.424387
   112  C    0.112438
   113  C   -0.186526
   114  C   -0.110843
   115  C    0.145357
   116  C    0.092641
   117  C    0.193536
   118  O   -0.248003
   119  C   -0.086656
   120  C    0.237161
   121  O   -0.215097
   122  O   -0.372018
   123  C    0.133727
   124  H   -0.004364
   125  H    0.020881
   126  H   -0.003442
   127  H    0.041522
   128  H    0.043111
   129  H    0.048142
   130  H    0.034792
   131  H    0.041357
   132  H    0.049258
   133  H    0.046071
   134  H    0.054864
   135  H    0.060085
   136  H    0.047160
   137  H    0.062947
   138  H    0.044862
   139  H    0.052791
   140  H    0.053658
   141  H    0.038521
   142  H    0.046231
   143  H    0.048389
   144  H    0.040237
   145  H    0.042106
   146  H    0.029098
   147  H    0.043026
   148  H    0.034641
   149  H    0.027508
   150  H    0.051897
   151  H    0.040885
   152  H    0.063751
   153  H    0.026372
   154  H    0.068633
   155  H    0.067191
   156  H    0.050159
   157  H    0.052324
   158  H    0.076199
 Sum of Mulliken charges =  -0.00000

 Dipole moment (field-independent basis, Debye):
    X=              0.9888    Y=             -5.0209    Z=             -2.5381  Tot=              5.7121
 Quadrupole moment (field-independent basis, Debye-Ang):
   XX=           -471.1578   YY=           -493.4984   ZZ=           -507.6601
   XY=             13.5257   XZ=             23.8050   YZ=             -5.8437

 Normal termination of Gaussian 16 at Sun Sep 19 15:26:21 2021.
