 Gaussian 16, Revision A.03,
 Gaussian 16:  ES64L-G16RevA.03 25-Dec-2016

 --------------------------------
 #p wB97XD/Def2SVP td=(nstates=5)
 --------------------------------

 --------------------------------
 TDDFT excited states in gaussian
 --------------------------------
 Symbolic Z-matrix:
 Charge =  0 Multiplicity = 1

                         Standard orientation:
 ---------------------------------------------------------------------
 Center     Atomic      Atomic             Coordinates (Angstroms)
 Number     Number       Type             X           Y           Z
 ---------------------------------------------------------------------
      1         12           0      -26.777829    0.561358    0.039470
      2          6           0      -24.889865   -2.187269    1.201737
      3          6           0      -28.063404   -1.388018   -2.455603
      4          6           0      -27.949423    3.311483   -1.351310
      5          6           0      -25.012306    2.588385    2.354624
      6          7           0      -26.570764   -1.592803   -0.464152
      7          6           0      -25.786199   -2.462064    0.141664
      8          6           0      -26.200309   -3.857520   -0.289163
      9          6           0      -26.846887   -3.618971   -1.707897
     10          6           0      -27.192416   -2.089451   -1.568769
     11          6           0      -25.864878   -4.041584   -2.865829
     12          6           0      -27.260071   -4.480995    0.655108
     13          6           0      -27.380456   -6.067498    0.605888
     14          1           0      -26.527859   -6.915614   -0.341707
     15          7           0      -28.003565    0.882736   -1.518404
     16          6           0      -28.525929   -0.059774   -2.440871
     17          6           0      -29.448415    0.651154   -3.356685
     18          6           0      -29.343797    2.060507   -3.074543
     19          6           0      -28.407862    2.186846   -1.936273
     20          6           0      -30.300931   -0.030790   -4.367764
     21          6           0      -30.031443    3.334516   -3.703006
     22          8           0      -29.891615    4.485329   -3.266997
     23          6           0      -30.791595    3.171103   -4.987218
     24          7           0      -26.426910    2.695029    0.375581
     25          6           0      -27.067452    3.616862   -0.293064
     26          6           0      -26.809323    5.028972    0.152386
     27          6           0      -25.837983    4.816530    1.366335
     28          6           0      -25.810477    3.257280    1.450819
     29          6           0      -26.355710    5.918515   -1.008845
     30          6           0      -26.312119    5.430831    2.677431
     31          6           0      -25.217586    6.116003    3.571715
     32          7           0      -25.277822    0.321336    1.588995
     33          6           0      -24.696657    1.250263    2.474261
     34          6           0      -23.911684    0.542820    3.426572
     35          6           0      -23.793957   -0.780200    2.893134
     36          6           0      -24.660990   -0.873177    1.834039
     37          6           0      -23.386239    1.101594    4.717743
     38          6           0      -23.297354   -2.168582    3.048764
     39          8           0      -22.540704   -2.638686    3.872744
     40          6           0      -23.812771   -3.016051    1.790222
     41          6           0      -24.010595   -4.448756    2.163474
     42          8           0      -24.767743   -4.875339    2.984707
     43          8           0      -23.102561   -5.283984    1.486185
     44          6           0      -22.678191   -6.510645    2.193759
     45          1           0      -28.359271   -1.887262   -3.381091
     46          1           0      -28.394049    4.264676   -1.642813
     47          1           0      -24.544092    3.230578    3.103602
     48          1           0      -25.279994   -4.429457   -0.171266
     49          1           0      -27.769612   -4.187456   -1.828883
     50          1           0      -24.923780   -4.400258   -2.450295
     51          1           0      -25.606717   -3.092461   -3.335579
     52          1           0      -26.239751   -4.830992   -3.517414
     53          1           0      -28.203517   -4.050037    0.317532
     54          1           0      -27.036028   -4.129815    1.662307
     55          1           0      -28.436356   -6.252197    0.402467
     56          1           0      -27.211117   -6.387826    1.634190
     57          1           0      -30.390942   -1.116165   -4.341975
     58          1           0      -29.955880    0.145021   -5.386267
     59          1           0      -31.295144    0.375901   -4.181046
     60          1           0      -31.836756    2.892809   -4.852807
     61          1           0      -30.178915    2.398924   -5.454097
     62          1           0      -30.677070    4.112755   -5.523430
     63          1           0      -27.796312    5.334831    0.499135
     64          1           0      -24.829446    5.191708    1.196967
     65          1           0      -25.876677    5.372987   -1.822464
     66          1           0      -25.598447    6.575772   -0.583276
     67          1           0      -27.172128    6.499967   -1.437753
     68          1           0      -26.791154    4.684065    3.310425
     69          1           0      -27.159706    6.049750    2.383473
     70          1           0      -24.214958    5.934252    3.185044
     71          1           0      -25.312624    5.622163    4.538542
     72          1           0      -25.288061    7.187565    3.761371
     73          1           0      -22.916750    2.045762    4.441230
     74          1           0      -22.640803    0.478637    5.212400
     75          1           0      -24.216065    1.339867    5.383875
     76          1           0      -22.993975   -3.105954    1.077082
     77          1           0      -23.038932   -7.365750    1.621937
     78          1           0      -23.041580   -6.543262    3.221474
     79          1           0      -21.588672   -6.480036    2.186749
     80         12           0       26.676352    0.676647    0.064969
     81          6           0       24.905831   -2.001045   -1.579731
     82          6           0       28.096734   -1.775457    2.130649
     83          6           0       28.388435    3.084197    1.497578
     84          6           0       24.915890    2.979772   -1.888876
     85          7           0       26.456165   -1.669118    0.225613
     86          6           0       25.871955   -2.520860   -0.657836
     87          6           0       26.305381   -3.960260   -0.432637
     88          6           0       27.071271   -3.919207    1.005019
     89          6           0       27.200989   -2.375847    1.155197
     90          6           0       26.350125   -4.669844    2.152488
     91          6           0       27.194207   -4.513555   -1.597298
     92          6           0       26.636677   -5.800446   -2.258920
     93          1           0       27.598869   -7.109524   -2.066571
     94          7           0       28.014828    0.655115    1.550656
     95          6           0       28.500037   -0.431911    2.353838
     96          6           0       29.501888   -0.016320    3.363838
     97          6           0       29.600356    1.390613    3.108183
     98          6           0       28.662503    1.751147    2.031692
     99          6           0       30.168267   -0.950285    4.376074
    100          6           0       30.402250    2.403961    3.832285
    101          8           0       30.636753    3.542222    3.440970
    102          6           0       31.123524    1.964935    5.121753
    103          7           0       26.763880    2.677675   -0.293171
    104          6           0       27.537978    3.492879    0.458990
    105          6           0       27.234821    4.950169    0.247501
    106          6           0       26.159127    4.960737   -0.866403
    107          6           0       25.946357    3.447733   -1.097974
    108          6           0       26.883288    5.714011    1.506906
    109          6           0       26.734609    5.688604   -2.219214
    110          6           0       25.828450    6.902396   -2.805606
    111          7           0       25.010228    0.573605   -1.252069
    112          6           0       24.472989    1.628688   -2.028226
    113          6           0       23.491864    1.047387   -2.951602
    114          6           0       23.758235   -0.345198   -2.877874
    115          6           0       24.576700   -0.577763   -1.771527
    116          6           0       22.469067    1.732507   -3.852897
    117          6           0       23.222100   -1.648251   -3.363036
    118          8           0       22.314793   -2.004946   -4.164914
    119          6           0       24.065040   -2.742672   -2.601075
    120          6           0       23.116030   -3.714277   -1.963734
    121          8           0       22.126766   -3.398730   -1.365255
    122          8           0       23.491958   -4.991419   -2.275233
    123          6           0       22.430148   -5.985315   -1.976427
    124          1           0       28.403982   -2.556178    2.829301
    125          1           0       28.924413    3.929440    1.934999
    126          1           0       24.381521    3.677712   -2.536416
    127          1           0       25.386723   -4.532991   -0.305305
    128          1           0       28.093662   -4.293171    0.944273
    129          1           0       26.020171   -3.974190    2.924600
    130          1           0       27.008398   -5.422599    2.588185
    131          1           0       25.498870   -5.283840    1.858326
    132          1           0       28.200196   -4.758708   -1.255745
    133          1           0       27.295074   -3.788346   -2.405203
    134          1           0       26.632309   -5.754251   -3.348245
    135          1           0       25.604874   -6.043026   -2.006628
    136          1           0       30.126823   -2.019644    4.166663
    137          1           0       29.860103   -0.815371    5.412816
    138          1           0       31.223839   -0.677732    4.351612
    139          1           0       30.399848    1.642491    5.870318
    140          1           0       31.778804    2.742443    5.515872
    141          1           0       31.764166    1.119089    4.872359
    142          1           0       28.156425    5.441068   -0.068087
    143          1           0       25.230306    5.409335   -0.515283
    144          1           0       27.668604    6.395119    1.835883
    145          1           0       26.734887    5.099154    2.394542
    146          1           0       25.952666    6.251187    1.322749
    147          1           0       26.884429    5.009434   -3.057855
    148          1           0       27.717458    6.133843   -2.066980
    149          1           0       25.214572    7.235652   -1.968598
    150          1           0       25.211601    6.579793   -3.645381
    151          1           0       26.436806    7.776496   -3.036417
    152          1           0       22.283851    1.169575   -4.767513
    153          1           0       22.925816    2.652793   -4.218838
    154          1           0       21.646766    1.958570   -3.173909
    155          1           0       24.582821   -3.305034   -3.377677
    156          1           0       22.146831   -5.852557   -0.932473
    157          1           0       22.953801   -6.939120   -2.038911
    158          1           0       21.500012   -5.958269   -2.544001
 ---------------------------------------------------------------------

 SCF Done:  E(RwB97XD) =  -4070.58870385     A.U. after   19 cycles

 Excitation energies and oscillator strengths:

 Excited State   1:      Singlet-A      1.6156 eV  767.44 nm  f=0.3707  <S**2>=0.000
     309 -> 316        0.19318
     312 -> 313        0.68205
     309 <- 316        0.12122
 This state for optimization and/or second-order correction.
 Total Energy, E(TD-HF/TD-DFT) =  -4070.52933319
 Copying the excited state density for this state as the 1-particle RhoCI density.

 Excited State   2:      Singlet-A      1.7664 eV  701.91 nm  f=0.3724  <S**2>=0.000
     310 -> 315        0.19123
     311 -> 314        0.67834
     310 <- 315        0.11016

 Excited State   3:      Singlet-A      2.1191 eV  585.07 nm  f=0.1030  <S**2>=0.000
     309 -> 313        0.63988
     312 -> 316       -0.27765

 Excited State   4:      Singlet-A      2.1196 eV  584.94 nm  f=0.1234  <S**2>=0.000
     310 -> 314        0.63463
     311 -> 315       -0.27259

 Excited State   5:      Singlet-A      3.2681 eV  379.38 nm  f=0.0032  <S**2>=0.000
     304 -> 314        0.16877
     306 -> 314       -0.15532
     308 -> 314        0.64103
     308 -> 317       -0.10636

 The electronic state is 1-A.
 Alpha  occ. eigenvalues --  -46.94852 -46.94851 -19.30856 -19.28450 -19.25406
 Alpha  occ. eigenvalues --  -19.24653 -19.24431 -19.24006 -19.23735 -19.23305
 Alpha  occ. eigenvalues --  -14.47239 -14.46505 -14.46492 -14.46301 -14.45360
 Alpha  occ. eigenvalues --  -14.44420 -14.43821 -14.42546 -10.42643 -10.42345
 Alpha  occ. eigenvalues --  -10.40843 -10.39172 -10.39112 -10.38743 -10.36322
 Alpha  occ. eigenvalues --  -10.35903 -10.35710 -10.35677 -10.35663 -10.35616
 Alpha  occ. eigenvalues --  -10.35288 -10.34939 -10.34906 -10.34895 -10.34884
 Alpha  occ. eigenvalues --  -10.34765 -10.34633 -10.34564 -10.34043 -10.33967
 Alpha  occ. eigenvalues --  -10.33646 -10.33416 -10.33283 -10.33113 -10.32948
 Alpha  occ. eigenvalues --  -10.32907 -10.32702 -10.32520 -10.32497 -10.32363
 Alpha  occ. eigenvalues --  -10.32240 -10.32221 -10.32158 -10.32020 -10.31969
 Alpha  occ. eigenvalues --  -10.31964 -10.31933 -10.31857 -10.31792 -10.31720
 Alpha  occ. eigenvalues --  -10.31640 -10.31636 -10.31597 -10.31374 -10.31272
 Alpha  occ. eigenvalues --  -10.31182 -10.31151 -10.30804 -10.30728 -10.30708
 Alpha  occ. eigenvalues --  -10.30450 -10.30180 -10.30122 -10.30108 -10.29942
 Alpha  occ. eigenvalues --  -10.29938 -10.29928 -10.29902 -10.29720 -10.29700
 Alpha  occ. eigenvalues --  -10.29676 -10.29521 -10.29390 -10.29339 -10.29199
 Alpha  occ. eigenvalues --  -10.28353  -3.20928  -3.20762  -1.94518  -1.94364
 Alpha  occ. eigenvalues --   -1.94052  -1.93918  -1.93884  -1.93723  -1.19109
 Alpha  occ. eigenvalues --   -1.17289  -1.12763  -1.12204  -1.11682  -1.10862
 Alpha  occ. eigenvalues --   -1.09279  -1.09150  -1.07087  -1.06494  -1.05972
 Alpha  occ. eigenvalues --   -1.05263  -1.04620  -1.04057  -1.03639  -1.03060
 Alpha  occ. eigenvalues --   -0.93713  -0.93531  -0.91140  -0.90833  -0.90601
 Alpha  occ. eigenvalues --   -0.90353  -0.89992  -0.89652  -0.89522  -0.89348
 Alpha  occ. eigenvalues --   -0.89162  -0.88935  -0.87538  -0.87297  -0.85933
 Alpha  occ. eigenvalues --   -0.85891  -0.85561  -0.85049  -0.84826  -0.83689
 Alpha  occ. eigenvalues --   -0.83582  -0.83327  -0.82607  -0.82556  -0.81783
 Alpha  occ. eigenvalues --   -0.81701  -0.81075  -0.80602  -0.79065  -0.79005
 Alpha  occ. eigenvalues --   -0.78694  -0.78265  -0.77952  -0.77273  -0.77158
 Alpha  occ. eigenvalues --   -0.77070  -0.74539  -0.74438  -0.73668  -0.73391
 Alpha  occ. eigenvalues --   -0.71729  -0.71148  -0.70649  -0.70587  -0.69521
 Alpha  occ. eigenvalues --   -0.69213  -0.69094  -0.68619  -0.67930  -0.67818
 Alpha  occ. eigenvalues --   -0.67593  -0.67090  -0.66531  -0.66399  -0.66006
 Alpha  occ. eigenvalues --   -0.65422  -0.64331  -0.62998  -0.62830  -0.62249
 Alpha  occ. eigenvalues --   -0.61210  -0.61068  -0.60726  -0.60555  -0.60319
 Alpha  occ. eigenvalues --   -0.59997  -0.59913  -0.59516  -0.59120  -0.58754
 Alpha  occ. eigenvalues --   -0.58447  -0.58140  -0.57382  -0.57246  -0.56996
 Alpha  occ. eigenvalues --   -0.56935  -0.56451  -0.56132  -0.55709  -0.55657
 Alpha  occ. eigenvalues --   -0.55336  -0.55115  -0.55038  -0.54736  -0.54617
 Alpha  occ. eigenvalues --   -0.54509  -0.54129  -0.54118  -0.53905  -0.53651
 Alpha  occ. eigenvalues --   -0.53602  -0.53324  -0.53277  -0.53256  -0.53144
 Alpha  occ. eigenvalues --   -0.52841  -0.52763  -0.52429  -0.52400  -0.52049
 Alpha  occ. eigenvalues --   -0.51965  -0.51918  -0.51881  -0.51696  -0.51396
 Alpha  occ. eigenvalues --   -0.51160  -0.51150  -0.50816  -0.50718  -0.50620
 Alpha  occ. eigenvalues --   -0.50225  -0.50199  -0.50037  -0.49932  -0.49922
 Alpha  occ. eigenvalues --   -0.49733  -0.49527  -0.49455  -0.49404  -0.49207
 Alpha  occ. eigenvalues --   -0.48966  -0.48912  -0.48762  -0.48533  -0.48473
 Alpha  occ. eigenvalues --   -0.48419  -0.48119  -0.48063  -0.47862  -0.47476
 Alpha  occ. eigenvalues --   -0.47476  -0.47325  -0.46933  -0.46893  -0.46740
 Alpha  occ. eigenvalues --   -0.46730  -0.46667  -0.46328  -0.46141  -0.46019
 Alpha  occ. eigenvalues --   -0.45867  -0.45775  -0.45710  -0.45624  -0.45303
 Alpha  occ. eigenvalues --   -0.45260  -0.44994  -0.44756  -0.44692  -0.44530
 Alpha  occ. eigenvalues --   -0.44513  -0.44191  -0.44176  -0.44000  -0.43917
 Alpha  occ. eigenvalues --   -0.43593  -0.43495  -0.43439  -0.43247  -0.43244
 Alpha  occ. eigenvalues --   -0.43041  -0.42881  -0.42695  -0.42593  -0.42371
 Alpha  occ. eigenvalues --   -0.42056  -0.42002  -0.41871  -0.41294  -0.40950
 Alpha  occ. eigenvalues --   -0.40671  -0.40503  -0.40159  -0.39694  -0.39578
 Alpha  occ. eigenvalues --   -0.39434  -0.39321  -0.38510  -0.38357  -0.37654
 Alpha  occ. eigenvalues --   -0.37497  -0.37327  -0.36628  -0.36380  -0.36196
 Alpha  occ. eigenvalues --   -0.35762  -0.35240  -0.35190  -0.33902  -0.33848
 Alpha  occ. eigenvalues --   -0.33390  -0.32955  -0.32585  -0.32491  -0.32467
 Alpha  occ. eigenvalues --   -0.32008  -0.31491  -0.30369  -0.25807  -0.25646
 Alpha  occ. eigenvalues --   -0.23134  -0.23101
 Alpha virt. eigenvalues --   -0.07334  -0.06796  -0.00075   0.00082   0.01907
 Alpha virt. eigenvalues --    0.02184   0.04161   0.04904   0.06056   0.06577
 Alpha virt. eigenvalues --    0.06802   0.07008   0.07734   0.07914   0.08130

 Mulliken charges:
               1
     1  Mg   0.949356
     2  C    0.045862
     3  C   -0.095147
     4  C   -0.065595
     5  C   -0.086042
     6  N   -0.314120
     7  C    0.001096
     8  C   -0.120608
     9  C   -0.103160
    10  C    0.089391
    11  C    0.035000
    12  C   -0.006406
    13  C   -0.094852
    14  H    0.041445
    15  N   -0.554436
    16  C    0.176051
    17  C   -0.150869
    18  C   -0.082822
    19  C    0.208068
    20  C    0.034812
    21  C    0.081999
    22  O   -0.237323
    23  C   -0.013205
    24  N   -0.304556
    25  C   -0.029730
    26  C   -0.047684
    27  C   -0.103736
    28  C    0.058393
    29  C    0.030147
    30  C   -0.003886
    31  C   -0.057115
    32  N   -0.438207
    33  C    0.134141
    34  C   -0.193263
    35  C   -0.035310
    36  C    0.077388
    37  C    0.080533
    38  C    0.135350
    39  O   -0.202624
    40  C   -0.093374
    41  C    0.221052
    42  O   -0.208250
    43  O   -0.410336
    44  C    0.136771
    45  H    0.001486
    46  H    0.012937
    47  H   -0.022025
    48  H    0.032027
    49  H    0.036181
    50  H    0.038437
    51  H    0.032965
    52  H    0.048364
    53  H    0.023401
    54  H    0.054513
    55  H    0.041780
    56  H    0.065402
    57  H    0.043013
    58  H    0.065340
    59  H    0.060809
    60  H    0.079991
    61  H    0.041681
    62  H    0.065166
    63  H    0.042229
    64  H    0.040203
    65  H    0.046685
    66  H    0.033124
    67  H    0.056290
    68  H    0.030807
    69  H    0.022354
    70  H    0.035986
    71  H    0.038512
    72  H    0.045673
    73  H    0.035947
    74  H    0.058425
    75  H    0.050919
    76  H    0.080278
    77  H    0.051949
    78  H    0.069228
    79  H    0.055725
    80  Mg   0.990424
    81  C   -0.017343
    82  C   -0.078533
    83  C   -0.086385
    84  C   -0.079869
    85  N   -0.298169
    86  C   -0.019985
    87  C   -0.052897
    88  C   -0.107248
    89  C    0.010950
    90  C    0.015733
    91  C    0.042969
    92  C   -0.139054
    93  H   -0.009639
    94  N   -0.512326
    95  C    0.177347
    96  C   -0.130237
    97  C   -0.070904
    98  C    0.182096
    99  C    0.070191
   100  C    0.029578
   101  O   -0.236672
   102  C   -0.016372
   103  N   -0.420579
   104  C    0.093774
   105  C   -0.078847
   106  C   -0.074239
   107  C    0.102060
   108  C    0.012651
   109  C   -0.031791
   110  C   -0.079624
   111  N   -0.424346
   112  C    0.112412
   113  C   -0.186382
   114  C   -0.110873
   115  C    0.145445
   116  C    0.092648
   117  C    0.193640
   118  O   -0.247696
   119  C   -0.086820
   120  C    0.237271
   121  O   -0.214971
   122  O   -0.372206
   123  C    0.133766
   124  H   -0.004487
   125  H    0.020940
   126  H   -0.003320
   127  H    0.041541
   128  H    0.042923
   129  H    0.048269
   130  H    0.034630
   131  H    0.041323
   132  H    0.049076
   133  H    0.046151
   134  H    0.054713
   135  H    0.060344
   136  H    0.047050
   137  H    0.062976
   138  H    0.044851
   139  H    0.052781
   140  H    0.053669
   141  H    0.038444
   142  H    0.046245
   143  H    0.048445
   144  H    0.040255
   145  H    0.042097
   146  H    0.029149
   147  H    0.043044
   148  H    0.034651
   149  H    0.027521
   150  H    0.051960
   151  H    0.040914
   152  H    0.063926
   153  H    0.026434
   154  H    0.068710
   155  H    0.067074
   156  H    0.050158
   157  H    0.052107
   158  H    0.076485
 Sum of Mulliken charges =  -0.00000

 Dipole moment (field-independent basis, Debye):
    X=              0.1294    Y=              0.7190    Z=             -1.5442  Tot=              1.7083
 Quadrupole moment (field-independent basis, Debye-Ang):
   XX=           -169.0851   YY=           -471.2861   ZZ=           -504.6552
   XY=            -78.0934   XZ=            205.8977   YZ=              3.6479

 Normal termination of Gaussian 16 at Sun Sep 19 01:00:43 2021.
