 Gaussian 16, Revision A.03,
 Gaussian 16:  ES64L-G16RevA.03 25-Dec-2016

 --------------------------------
 #p wB97XD/Def2SVP td=(nstates=5)
 --------------------------------

 --------------------------------
 TDDFT excited states in gaussian
 --------------------------------
 Symbolic Z-matrix:
 Charge =  0 Multiplicity = 1

                         Standard orientation:
 ---------------------------------------------------------------------
 Center     Atomic      Atomic             Coordinates (Angstroms)
 Number     Number       Type             X           Y           Z
 ---------------------------------------------------------------------
      1         12           0      -18.206963   -0.745524    0.113443
      2          6           0      -17.543994    2.624618   -0.651793
      3          6           0      -17.169666   -0.071118    3.363025
      4          6           0      -18.535382   -3.997300    0.701370
      5          6           0      -18.399078   -1.446309   -3.402589
      6          7           0      -17.432196    1.036672    1.205394
      7          6           0      -17.373244    2.338680    0.688891
      8          6           0      -17.312650    3.327394    1.838478
      9          6           0      -16.915012    2.478313    3.079306
     10          6           0      -17.194599    1.051588    2.517944
     11          6           0      -15.488414    2.726782    3.662247
     12          6           0      -18.610855    4.185022    2.033238
     13          6           0      -18.347513    5.642825    2.616493
     14          1           0      -16.906526    6.022817    2.967452
     15          7           0      -18.023388   -1.811189    1.777313
     16          6           0      -17.663415   -1.351828    3.032525
     17          6           0      -17.770766   -2.399064    4.006947
     18          6           0      -18.041023   -3.584341    3.250860
     19          6           0      -18.245376   -3.147117    1.881377
     20          6           0      -17.448257   -2.208077    5.520458
     21          6           0      -18.115337   -4.999338    3.723734
     22          8           0      -18.206308   -5.955895    2.917694
     23          6           0      -18.014947   -5.557533    5.173865
     24          7           0      -18.163983   -2.522894   -1.159789
     25          6           0      -18.425647   -3.745792   -0.660853
     26          6           0      -18.789826   -4.729986   -1.800765
     27          6           0      -18.726926   -3.935390   -3.110126
     28          6           0      -18.449841   -2.491108   -2.499901
     29          6           0      -18.002992   -6.002062   -1.713152
     30          6           0      -19.966618   -3.991700   -4.028456
     31          6           0      -21.286590   -3.493111   -3.390284
     32          7           0      -17.958814    0.313671   -1.727225
     33          6           0      -18.223448   -0.074034   -2.996649
     34          6           0      -18.242300    1.140578   -3.810322
     35          6           0      -18.009985    2.265048   -2.969760
     36          6           0      -17.788335    1.705318   -1.687971
     37          6           0      -18.599179    1.213835   -5.292607
     38          6           0      -17.882318    3.686544   -2.919867
     39          8           0      -18.064438    4.587995   -3.733860
     40          6           0      -17.489510    3.996264   -1.332037
     41          6           0      -16.209734    4.809653   -1.285006
     42          8           0      -15.100928    4.326129   -1.403164
     43          8           0      -16.477189    6.127672   -0.992151
     44          6           0      -15.458425    7.134109   -1.272790
     45          1           0      -16.948764    0.280346    4.372856
     46          1           0      -18.727132   -5.037737    0.970835
     47          1           0      -18.602135   -1.718286   -4.440210
     48          1           0      -16.522019    4.052895    1.647587
     49          1           0      -17.648060    2.692078    3.856619
     50          1           0      -15.050438    1.729555    3.635995
     51          1           0      -15.546146    3.004598    4.715354
     52          1           0      -14.806882    3.408169    3.153060
     53          1           0      -19.274388    3.740173    2.774164
     54          1           0      -19.149474    4.218053    1.087060
     55          1           0      -18.838794    5.695567    3.588194
     56          1           0      -18.760114    6.354891    1.902189
     57          1           0      -16.940729   -3.110467    5.863533
     58          1           0      -18.345009   -2.098944    6.129464
     59          1           0      -16.854295   -1.364457    5.871724
     60          1           0      -18.760016   -5.089859    5.818112
     61          1           0      -17.012560   -5.459487    5.590564
     62          1           0      -18.415572   -6.563151    5.296056
     63          1           0      -19.782121   -5.104186   -1.552211
     64          1           0      -17.768862   -4.210094   -3.552841
     65          1           0      -18.578541   -6.827777   -1.294358
     66          1           0      -17.085409   -5.832840   -1.149445
     67          1           0      -17.621021   -6.358162   -2.670561
     68          1           0      -20.072789   -5.057100   -4.233808
     69          1           0      -19.770914   -3.455473   -4.957511
     70          1           0      -21.607989   -2.660343   -4.015496
     71          1           0      -21.043897   -3.174030   -2.376645
     72          1           0      -22.043078   -4.267010   -3.259334
     73          1           0      -19.257518    2.050584   -5.524412
     74          1           0      -19.197311    0.357135   -5.601772
     75          1           0      -17.671140    1.192490   -5.864570
     76          1           0      -18.296377    4.639590   -0.980115
     77          1           0      -14.501803    6.691263   -0.994303
     78          1           0      -15.564915    8.062444   -0.711475
     79          1           0      -15.575279    7.378045   -2.328727
     80         12           0       18.127350   -0.740390   -0.071993
     81          6           0       16.401652    2.413022    0.439815
     82          6           0       20.970736    1.065871    0.060163
     83          6           0       19.622316   -3.516494   -0.582978
     84          6           0       14.979395   -2.305501   -0.493519
     85          7           0       18.609256    1.595784    0.265055
     86          6           0       17.766143    2.607724    0.533367
     87          6           0       18.557531    3.876935    0.902669
     88          6           0       19.964632    3.427477    0.289005
     89          6           0       19.872774    1.959798    0.256743
     90          6           0       20.494802    4.174475   -0.923383
     91          6           0       18.498635    4.069967    2.427853
     92          6           0       18.681990    5.555397    2.857404
     93          1           0       18.624406    6.776882    1.828050
     94          7           0       20.083066   -1.214855   -0.201369
     95          6           0       21.143556   -0.329208   -0.212798
     96          6           0       22.364622   -1.094335   -0.446056
     97          6           0       21.992466   -2.456575   -0.560136
     98          6           0       20.506345   -2.423478   -0.452220
     99          6           0       23.701814   -0.506325   -0.541495
    100          6           0       22.912813   -3.775561   -0.731296
    101          8           0       22.451292   -4.879942   -0.637788
    102          6           0       24.449669   -3.691055   -0.717967
    103          7           0       17.376939   -2.586382   -0.748447
    104          6           0       18.219577   -3.615940   -0.726900
    105          6           0       17.567821   -4.956931   -0.932399
    106          6           0       16.125124   -4.594005   -0.503457
    107          6           0       16.149348   -3.046432   -0.751637
    108          6           0       17.620260   -5.490484   -2.439281
    109          6           0       15.703219   -5.021855    0.964607
    110          6           0       16.346406   -6.277315    1.622370
    111          7           0       16.122287   -0.119213   -0.154198
    112          6           0       14.964780   -0.817468   -0.260832
    113          6           0       13.850945   -0.014639   -0.028568
    114          6           0       14.377656    1.226548    0.188458
    115          6           0       15.755636    1.156292    0.132847
    116          6           0       12.400246   -0.485215    0.029667
    117          6           0       13.958009    2.599079    0.509065
    118          8           0       12.873450    3.161893    0.505710
    119          6           0       15.317223    3.387029    0.759638
    120          6           0       15.283204    4.585604   -0.060020
    121          8           0       15.495581    4.661830   -1.274351
    122          8           0       14.720743    5.556567    0.689442
    123          6           0       14.278586    6.687829   -0.106063
    124          1           0       21.866169    1.675491   -0.078298
    125          1           0       20.165795   -4.439044   -0.794814
    126          1           0       14.034479   -2.850827   -0.536438
    127          1           0       18.219386    4.741371    0.331120
    128          1           0       20.704562    3.665129    1.052067
    129          1           0       21.386723    4.755053   -0.689733
    130          1           0       19.730813    4.845219   -1.316027
    131          1           0       20.719215    3.534686   -1.776882
    132          1           0       19.363432    3.558622    2.851233
    133          1           0       17.619766    3.629282    2.898117
    134          1           0       19.560818    5.687209    3.489401
    135          1           0       17.940709    5.646972    3.651144
    136          1           0       23.760515    0.451072   -0.024197
    137          1           0       23.883678   -0.390163   -1.610059
    138          1           0       24.490057   -1.120627   -0.105734
    139          1           0       24.864772   -3.368187    0.236753
    140          1           0       24.696138   -3.096255   -1.597766
    141          1           0       24.875030   -4.661698   -0.974301
    142          1           0       18.143551   -5.606576   -0.273590
    143          1           0       15.364840   -5.019539   -1.157976
    144          1           0       17.926505   -6.525874   -2.291772
    145          1           0       18.351559   -4.985333   -3.071228
    146          1           0       16.670294   -5.499216   -2.972324
    147          1           0       14.618152   -5.107330    1.002132
    148          1           0       16.111830   -4.189203    1.537448
    149          1           0       17.280068   -6.010508    2.116943
    150          1           0       16.415711   -6.984099    0.794739
    151          1           0       15.679891   -6.753184    2.340848
    152          1           0       12.462904   -1.516974    0.376380
    153          1           0       11.921823   -0.526200   -0.948434
    154          1           0       11.862361    0.154830    0.728810
    155          1           0       15.333812    3.638756    1.820790
    156          1           0       13.801381    7.470671    0.482767
    157          1           0       13.732917    6.458031   -1.021383
    158          1           0       15.137124    7.226531   -0.508559
 ---------------------------------------------------------------------

 SCF Done:  E(RwB97XD) =  -4070.59176164     A.U. after   17 cycles

 Excitation energies and oscillator strengths:

 Excited State   1:      Singlet-A      1.6018 eV  774.01 nm  f=0.4013  <S**2>=0.000
     309 -> 315        0.17291
     312 -> 313        0.68565
     309 <- 315        0.11419
 This state for optimization and/or second-order correction.
 Total Energy, E(TD-HF/TD-DFT) =  -4070.53289474
 Copying the excited state density for this state as the 1-particle RhoCI density.

 Excited State   2:      Singlet-A      1.7988 eV  689.27 nm  f=0.3725  <S**2>=0.000
     310 -> 316       -0.19146
     311 -> 314        0.67946
     310 <- 316       -0.11150

 Excited State   3:      Singlet-A      2.1364 eV  580.34 nm  f=0.1486  <S**2>=0.000
     309 -> 313        0.65483
     312 -> 315       -0.24830

 Excited State   4:      Singlet-A      2.1924 eV  565.51 nm  f=0.1530  <S**2>=0.000
     310 -> 314        0.65250
     311 -> 316        0.25640

 Excited State   5:      Singlet-A      3.2953 eV  376.25 nm  f=0.0030  <S**2>=0.000
     306 -> 313        0.52466
     306 -> 315       -0.13566
     306 -> 317        0.34600
     306 -> 319       -0.20387

 The electronic state is 1-A.
 Alpha  occ. eigenvalues --  -46.95654 -46.95208 -19.30062 -19.29426 -19.25561
 Alpha  occ. eigenvalues --  -19.24351 -19.24126 -19.23820 -19.23658 -19.23376
 Alpha  occ. eigenvalues --  -14.47128 -14.46041 -14.45935 -14.45630 -14.44850
 Alpha  occ. eigenvalues --  -14.44529 -14.43906 -14.43166 -10.42901 -10.41990
 Alpha  occ. eigenvalues --  -10.40995 -10.39555 -10.39443 -10.38761 -10.35594
 Alpha  occ. eigenvalues --  -10.35387 -10.35066 -10.34907 -10.34822 -10.34812
 Alpha  occ. eigenvalues --  -10.34748 -10.34718 -10.34663 -10.34500 -10.34294
 Alpha  occ. eigenvalues --  -10.34217 -10.33785 -10.33684 -10.33620 -10.33532
 Alpha  occ. eigenvalues --  -10.33527 -10.33197 -10.33172 -10.32968 -10.32678
 Alpha  occ. eigenvalues --  -10.32321 -10.32274 -10.32253 -10.32148 -10.32058
 Alpha  occ. eigenvalues --  -10.32014 -10.31989 -10.31949 -10.31772 -10.31627
 Alpha  occ. eigenvalues --  -10.31599 -10.31576 -10.31519 -10.31503 -10.31426
 Alpha  occ. eigenvalues --  -10.31417 -10.31399 -10.31372 -10.31271 -10.31247
 Alpha  occ. eigenvalues --  -10.31092 -10.31020 -10.30847 -10.30601 -10.30531
 Alpha  occ. eigenvalues --  -10.30478 -10.30163 -10.30097 -10.30078 -10.30064
 Alpha  occ. eigenvalues --  -10.29916 -10.29837 -10.29422 -10.29390 -10.29388
 Alpha  occ. eigenvalues --  -10.29376 -10.29330 -10.29266 -10.29000 -10.28696
 Alpha  occ. eigenvalues --  -10.27646  -3.21608  -3.21219  -1.95199  -1.94779
 Alpha  occ. eigenvalues --   -1.94748  -1.94558  -1.94342  -1.94199  -1.18610
 Alpha  occ. eigenvalues --   -1.17554  -1.14856  -1.11627  -1.11605  -1.10592
 Alpha  occ. eigenvalues --   -1.09585  -1.08761  -1.07765  -1.07191  -1.06692
 Alpha  occ. eigenvalues --   -1.06307  -1.05429  -1.05383  -1.05183  -1.04077
 Alpha  occ. eigenvalues --   -0.94255  -0.94096  -0.91141  -0.90995  -0.90576
 Alpha  occ. eigenvalues --   -0.90360  -0.90061  -0.89919  -0.89469  -0.89229
 Alpha  occ. eigenvalues --   -0.88791  -0.88733  -0.87447  -0.87198  -0.86261
 Alpha  occ. eigenvalues --   -0.85652  -0.85175  -0.84963  -0.84226  -0.84036
 Alpha  occ. eigenvalues --   -0.83855  -0.82943  -0.82627  -0.82523  -0.82028
 Alpha  occ. eigenvalues --   -0.81917  -0.80621  -0.80593  -0.78804  -0.78697
 Alpha  occ. eigenvalues --   -0.78624  -0.78493  -0.77710  -0.77602  -0.77161
 Alpha  occ. eigenvalues --   -0.76886  -0.74674  -0.74459  -0.73596  -0.72990
 Alpha  occ. eigenvalues --   -0.71776  -0.71560  -0.71068  -0.70676  -0.70274
 Alpha  occ. eigenvalues --   -0.69536  -0.69470  -0.68781  -0.67359  -0.67158
 Alpha  occ. eigenvalues --   -0.67010  -0.66805  -0.66575  -0.66092  -0.66010
 Alpha  occ. eigenvalues --   -0.65624  -0.63738  -0.63575  -0.62886  -0.62840
 Alpha  occ. eigenvalues --   -0.61441  -0.61398  -0.61189  -0.60743  -0.60335
 Alpha  occ. eigenvalues --   -0.59996  -0.59817  -0.59436  -0.59340  -0.58865
 Alpha  occ. eigenvalues --   -0.58552  -0.57846  -0.57622  -0.57362  -0.57108
 Alpha  occ. eigenvalues --   -0.56731  -0.56686  -0.56487  -0.55949  -0.55796
 Alpha  occ. eigenvalues --   -0.55733  -0.55509  -0.55345  -0.54937  -0.54916
 Alpha  occ. eigenvalues --   -0.54819  -0.54632  -0.54440  -0.54225  -0.54146
 Alpha  occ. eigenvalues --   -0.53864  -0.53639  -0.53220  -0.53175  -0.53029
 Alpha  occ. eigenvalues --   -0.52904  -0.52601  -0.52555  -0.52371  -0.51945
 Alpha  occ. eigenvalues --   -0.51897  -0.51611  -0.51443  -0.51106  -0.51062
 Alpha  occ. eigenvalues --   -0.51027  -0.50883  -0.50847  -0.50661  -0.50617
 Alpha  occ. eigenvalues --   -0.50502  -0.50485  -0.50239  -0.50083  -0.49775
 Alpha  occ. eigenvalues --   -0.49759  -0.49618  -0.49384  -0.49302  -0.49279
 Alpha  occ. eigenvalues --   -0.48896  -0.48631  -0.48559  -0.48263  -0.48204
 Alpha  occ. eigenvalues --   -0.48123  -0.47730  -0.47639  -0.47335  -0.47314
 Alpha  occ. eigenvalues --   -0.47090  -0.46777  -0.46618  -0.46517  -0.46407
 Alpha  occ. eigenvalues --   -0.46364  -0.46187  -0.46094  -0.45955  -0.45935
 Alpha  occ. eigenvalues --   -0.45851  -0.45816  -0.45710  -0.45333  -0.45220
 Alpha  occ. eigenvalues --   -0.45148  -0.45061  -0.44915  -0.44861  -0.44551
 Alpha  occ. eigenvalues --   -0.44472  -0.44341  -0.44247  -0.44181  -0.43949
 Alpha  occ. eigenvalues --   -0.43817  -0.43738  -0.43519  -0.43457  -0.43310
 Alpha  occ. eigenvalues --   -0.43186  -0.42593  -0.42469  -0.42252  -0.41934
 Alpha  occ. eigenvalues --   -0.41594  -0.41466  -0.41193  -0.41099  -0.40566
 Alpha  occ. eigenvalues --   -0.40516  -0.40130  -0.39972  -0.39699  -0.39536
 Alpha  occ. eigenvalues --   -0.39376  -0.38848  -0.38622  -0.38212  -0.37915
 Alpha  occ. eigenvalues --   -0.37869  -0.37609  -0.36112  -0.35978  -0.35650
 Alpha  occ. eigenvalues --   -0.35626  -0.35198  -0.34655  -0.33929  -0.33711
 Alpha  occ. eigenvalues --   -0.33628  -0.32915  -0.32801  -0.32712  -0.32273
 Alpha  occ. eigenvalues --   -0.32197  -0.31594  -0.31554  -0.25985  -0.25271
 Alpha  occ. eigenvalues --   -0.23178  -0.23137
 Alpha virt. eigenvalues --   -0.07554  -0.06557   0.00571   0.00870   0.02058
 Alpha virt. eigenvalues --    0.02648   0.04132   0.04724   0.04798   0.05601
 Alpha virt. eigenvalues --    0.06791   0.07429   0.07822   0.07947   0.08655

 Mulliken charges:
               1
     1  Mg   0.971848
     2  C    0.006840
     3  C   -0.061503
     4  C   -0.062993
     5  C   -0.063025
     6  N   -0.337613
     7  C   -0.003150
     8  C   -0.035417
     9  C   -0.097889
    10  C    0.010232
    11  C    0.027392
    12  C   -0.006661
    13  C   -0.129156
    14  H    0.034193
    15  N   -0.494939
    16  C    0.189724
    17  C   -0.136895
    18  C   -0.054425
    19  C    0.137753
    20  C    0.059014
    21  C    0.036194
    22  O   -0.271655
    23  C   -0.006949
    24  N   -0.340776
    25  C    0.077665
    26  C   -0.129614
    27  C   -0.020173
    28  C    0.012720
    29  C    0.021369
    30  C   -0.019489
    31  C   -0.045874
    32  N   -0.428987
    33  C    0.150582
    34  C   -0.205145
    35  C    0.004319
    36  C    0.123029
    37  C    0.072264
    38  C    0.116772
    39  O   -0.207614
    40  C   -0.128503
    41  C    0.274773
    42  O   -0.237446
    43  O   -0.379828
    44  C    0.133584
    45  H   -0.002972
    46  H    0.023009
    47  H   -0.004386
    48  H    0.030810
    49  H    0.033097
    50  H    0.030695
    51  H    0.034870
    52  H    0.058560
    53  H    0.029746
    54  H    0.037204
    55  H    0.054478
    56  H    0.069131
    57  H    0.037163
    58  H    0.051087
    59  H    0.045674
    60  H    0.030918
    61  H    0.073526
    62  H    0.048540
    63  H    0.037161
    64  H    0.038812
    65  H    0.043430
    66  H    0.041901
    67  H    0.022282
    68  H    0.033241
    69  H    0.039384
    70  H    0.046911
    71  H    0.038542
    72  H    0.042951
    73  H    0.057592
    74  H    0.018475
    75  H    0.059463
    76  H    0.065542
    77  H    0.060329
    78  H    0.053707
    79  H    0.064580
    80  Mg   0.963372
    81  C   -0.002524
    82  C   -0.069593
    83  C   -0.087145
    84  C   -0.078710
    85  N   -0.252403
    86  C   -0.062693
    87  C   -0.061982
    88  C   -0.088850
    89  C    0.000089
    90  C    0.039651
    91  C    0.010094
    92  C   -0.092261
    93  H    0.048525
    94  N   -0.472763
    95  C    0.161497
    96  C   -0.161857
    97  C   -0.088207
    98  C    0.122052
    99  C    0.059545
   100  C    0.076654
   101  O   -0.197395
   102  C   -0.024351
   103  N   -0.321733
   104  C    0.065196
   105  C   -0.102374
   106  C   -0.113729
   107  C    0.058348
   108  C    0.030240
   109  C   -0.010563
   110  C   -0.052962
   111  N   -0.410062
   112  C    0.090382
   113  C   -0.219098
   114  C   -0.051337
   115  C    0.154766
   116  C    0.095839
   117  C    0.138601
   118  O   -0.197719
   119  C   -0.093008
   120  C    0.252580
   121  O   -0.272104
   122  O   -0.331247
   123  C    0.153327
   124  H   -0.010579
   125  H    0.011906
   126  H    0.003447
   127  H    0.040497
   128  H    0.017688
   129  H    0.039809
   130  H    0.042838
   131  H    0.036630
   132  H    0.031769
   133  H    0.048028
   134  H    0.038486
   135  H    0.037317
   136  H    0.044122
   137  H    0.065915
   138  H    0.040862
   139  H    0.086402
   140  H    0.045271
   141  H    0.050815
   142  H    0.043735
   143  H    0.017578
   144  H    0.041926
   145  H    0.045905
   146  H    0.042565
   147  H    0.037437
   148  H    0.027766
   149  H    0.050422
   150  H    0.034831
   151  H    0.039869
   152  H    0.025437
   153  H    0.053159
   154  H    0.055832
   155  H    0.073305
   156  H    0.049828
   157  H    0.060950
   158  H    0.024142
 Sum of Mulliken charges =  -0.00000

 Dipole moment (field-independent basis, Debye):
    X=              3.4034    Y=             -0.9834    Z=              6.5135  Tot=              7.4146
 Quadrupole moment (field-independent basis, Debye-Ang):
   XX=           -200.7972   YY=           -503.6648   ZZ=           -483.4971
   XY=             17.4136   XZ=            -41.5375   YZ=             32.7606

 Normal termination of Gaussian 16 at Sun Sep 19 05:28:29 2021.
