 Gaussian 16, Revision A.03,
 Gaussian 16:  ES64L-G16RevA.03 25-Dec-2016

 --------------------------------
 #p wB97XD/Def2SVP td=(nstates=5)
 --------------------------------

 --------------------------------
 TDDFT excited states in gaussian
 --------------------------------
 Symbolic Z-matrix:
 Charge =  0 Multiplicity = 1

                         Standard orientation:
 ---------------------------------------------------------------------
 Center     Atomic      Atomic             Coordinates (Angstroms)
 Number     Number       Type             X           Y           Z
 ---------------------------------------------------------------------
      1         12           0       -9.250600   -1.013027    0.357528
      2          6           0      -10.455144    1.933055   -0.967475
      3          6           0       -7.596741    1.008242    2.808470
      4          6           0       -7.768352   -3.681839    1.512323
      5          6           0      -10.624696   -2.808065   -2.260659
      6          7           0       -8.903964    1.293885    0.707491
      7          6           0       -9.682885    2.217079    0.169072
      8          6           0       -9.673901    3.518691    1.019554
      9          6           0       -8.344013    3.302204    1.822970
     10          6           0       -8.222557    1.769945    1.816165
     11          6           0       -7.113634    4.002623    1.144135
     12          6           0      -10.952442    3.472977    1.885610
     13          6           0      -11.260222    4.724073    2.719552
     14          1           0      -10.219859    5.815991    2.868425
     15          7           0       -7.981142   -1.397249    1.958394
     16          6           0       -7.449773   -0.415777    2.864099
     17          6           0       -6.791220   -1.166186    3.924593
     18          6           0       -6.936279   -2.552234    3.604315
     19          6           0       -7.558754   -2.612646    2.282610
     20          6           0       -6.116043   -0.523968    5.193401
     21          6           0       -6.537845   -3.773245    4.497585
     22          8           0       -6.620378   -4.871801    4.020527
     23          6           0       -6.033113   -3.565227    5.888530
     24          7           0       -9.280168   -3.007148   -0.242007
     25          6           0       -8.578209   -3.967621    0.400643
     26          6           0       -8.676455   -5.337477   -0.269681
     27          6           0       -9.704282   -5.068844   -1.393268
     28          6           0       -9.886616   -3.499794   -1.293936
     29          6           0       -7.322193   -5.933066   -0.803723
     30          6           0      -10.959908   -5.902951   -1.398450
     31          6           0      -11.783204   -6.125469   -0.106847
     32          7           0      -10.312337   -0.615684   -1.311871
     33          6           0      -10.820612   -1.424037   -2.288044
     34          6           0      -11.628402   -0.590884   -3.153596
     35          6           0      -11.567882    0.766296   -2.684210
     36          6           0      -10.720694    0.673329   -1.546170
     37          6           0      -12.379699   -1.100627   -4.343700
     38          6           0      -11.940156    2.121697   -2.914432
     39          8           0      -12.616505    2.679164   -3.806123
     40          6           0      -10.963084    2.946574   -1.911939
     41          6           0      -11.780990    4.126336   -1.383936
     42          8           0      -12.830955    4.052630   -0.869732
     43          8           0      -11.091147    5.272462   -1.659858
     44          6           0      -11.468456    6.479912   -0.954352
     45          1           0       -7.043209    1.634728    3.510369
     46          1           0       -7.258792   -4.595679    1.824947
     47          1           0      -11.068871   -3.312251   -3.120577
     48          1           0       -9.561628    4.412234    0.405663
     49          1           0       -8.583124    3.688683    2.814001
     50          1           0       -6.859230    4.903915    1.700495
     51          1           0       -7.387235    4.229517    0.113538
     52          1           0       -6.204825    3.401094    1.164396
     53          1           0      -10.817673    2.677474    2.618032
     54          1           0      -11.819711    3.135931    1.318684
     55          1           0      -11.787087    4.501889    3.647803
     56          1           0      -12.103759    5.184343    2.204721
     57          1           0       -5.102123   -0.891321    5.354642
     58          1           0       -6.790546   -0.738843    6.022085
     59          1           0       -6.132066    0.562772    5.102304
     60          1           0       -6.338503   -4.491489    6.375737
     61          1           0       -6.570762   -2.779524    6.418056
     62          1           0       -5.027393   -3.182729    6.062454
     63          1           0       -9.081390   -5.996187    0.498259
     64          1           0       -9.275669   -5.155915   -2.391647
     65          1           0       -7.581475   -6.473624   -1.713647
     66          1           0       -7.037307   -6.612419   -0.000073
     67          1           0       -6.566395   -5.151597   -0.881692
     68          1           0      -10.524465   -6.893357   -1.526745
     69          1           0      -11.699950   -5.697888   -2.172732
     70          1           0      -11.892060   -7.142869    0.266508
     71          1           0      -12.834775   -5.882774   -0.259634
     72          1           0      -11.338067   -5.549036    0.704259
     73          1           0      -12.826547   -0.220307   -4.804842
     74          1           0      -13.202335   -1.739557   -4.019751
     75          1           0      -11.807912   -1.736046   -5.019375
     76          1           0      -10.107155    3.225175   -2.526996
     77          1           0      -11.579040    7.023197   -1.892924
     78          1           0      -10.736640    6.804111   -0.214153
     79          1           0      -12.443240    6.432276   -0.468239
     80         12           0        9.803653   -0.420659   -0.158725
     81          6           0        7.809907    2.471975   -0.360253
     82          6           0       12.425165    1.621362    0.865196
     83          6           0       11.726673   -3.124351   -0.298770
     84          6           0        7.304878   -2.203058   -2.021429
     85          7           0       10.087769    1.763949    0.181279
     86          6           0        9.069099    2.726578    0.147647
     87          6           0        9.515136    3.949990    0.926808
     88          6           0       11.055922    3.795676    1.071293
     89          6           0       11.203502    2.292751    0.686225
     90          6           0       11.933190    4.806609    0.268079
     91          6           0        8.759625    4.173845    2.282494
     92          6           0        8.607991    5.702884    2.699353
     93          1           0        9.244015    6.758082    1.790485
     94          7           0       11.702010   -0.717340    0.337285
     95          6           0       12.602331    0.221783    0.810169
     96          6           0       13.839005   -0.402381    1.182707
     97          6           0       13.719193   -1.758647    0.740242
     98          6           0       12.350909   -1.909077    0.278092
     99          6           0       15.059240    0.375184    1.763758
    100          6           0       14.752767   -2.837104    0.738270
    101          8           0       14.549990   -3.938307    0.173283
    102          6           0       16.204159   -2.808454    1.301457
    103          7           0        9.683733   -2.304341   -1.262980
    104          6           0       10.573372   -3.293419   -1.055249
    105          6           0       10.017943   -4.641365   -1.579847
    106          6           0        8.623918   -4.355322   -2.149619
    107          6           0        8.505298   -2.823263   -1.732700
    108          6           0       11.004280   -5.347703   -2.459158
    109          6           0        7.459705   -5.228670   -1.634637
    110          6           0        7.219930   -5.177864   -0.105550
    111          7           0        7.932546    0.001739   -1.103220
    112          6           0        7.022177   -0.840069   -1.645780
    113          6           0        5.782756   -0.078526   -1.792705
    114          6           0        5.984340    1.236560   -1.287867
    115          6           0        7.349828    1.263381   -0.913524
    116          6           0        4.445347   -0.637933   -2.270514
    117          6           0        5.379262    2.508234   -1.050880
    118          8           0        4.230436    2.934490   -1.133764
    119          6           0        6.626728    3.439924   -0.461633
    120          6           0        6.751383    4.695708   -1.303717
    121          8           0        7.313283    4.729996   -2.380890
    122          8           0        6.238548    5.785475   -0.637475
    123          6           0        5.912515    6.988156   -1.396958
    124          1           0       13.132321    2.331876    1.297844
    125          1           0       12.373222   -4.001315   -0.229512
    126          1           0        6.543865   -2.847459   -2.465803
    127          1           0        9.310362    4.844893    0.339352
    128          1           0       11.286403    3.903755    2.130758
    129          1           0       12.564054    4.145575   -0.325233
    130          1           0       12.604926    5.347942    0.935370
    131          1           0       11.458113    5.516787   -0.408674
    132          1           0        9.308665    3.744237    3.119830
    133          1           0        7.795079    3.670636    2.228801
    134          1           0        9.161367    5.840814    3.628381
    135          1           0        7.542753    5.900809    2.815977
    136          1           0       15.960906   -0.059326    1.330408
    137          1           0       15.146317    0.271023    2.844745
    138          1           0       15.149290    1.455479    1.650933
    139          1           0       16.201635   -2.533014    2.356458
    140          1           0       16.863446   -2.160545    0.723890
    141          1           0       16.638829   -3.792796    1.471255
    142          1           0       10.020671   -5.308658   -0.718936
    143          1           0        8.771596   -4.312108   -3.229281
    144          1           0       11.518609   -6.162387   -1.949054
    145          1           0       11.712532   -4.630081   -2.873594
    146          1           0       10.568629   -5.784683   -3.358379
    147          1           0        7.777036   -6.239214   -1.892747
    148          1           0        6.541145   -4.983615   -2.168656
    149          1           0        6.200495   -4.810453    0.010436
    150          1           0        7.954103   -4.484071    0.304110
    151          1           0        7.414016   -6.117746    0.411454
    152          1           0        3.606219   -0.289100   -1.669288
    153          1           0        4.393233   -1.717821   -2.134848
    154          1           0        4.356485   -0.434411   -3.338005
    155          1           0        6.285150    3.744923    0.527838
    156          1           0        6.709258    7.115851   -2.130232
    157          1           0        5.861740    7.902983   -0.806421
    158          1           0        4.918305    6.811078   -1.807263
 ---------------------------------------------------------------------

 SCF Done:  E(RwB97XD) =  -4070.61265300     A.U. after   19 cycles

 Excitation energies and oscillator strengths:

 Excited State   1:      Singlet-A      1.6018 eV  774.04 nm  f=0.4343  <S**2>=0.000
     309 -> 316        0.17270
     311 -> 313        0.68516
     309 <- 316        0.11409
 This state for optimization and/or second-order correction.
 Total Energy, E(TD-HF/TD-DFT) =  -4070.55378887
 Copying the excited state density for this state as the 1-particle RhoCI density.

 Excited State   2:      Singlet-A      1.6761 eV  739.74 nm  f=0.3490  <S**2>=0.000
     310 -> 315        0.20159
     312 -> 314        0.67825
     310 <- 315        0.12027

 Excited State   3:      Singlet-A      2.1362 eV  580.39 nm  f=0.1350  <S**2>=0.000
     309 -> 313        0.65415
     311 -> 316       -0.24805

 Excited State   4:      Singlet-A      2.1627 eV  573.30 nm  f=0.0975  <S**2>=0.000
     310 -> 314        0.63260
     312 -> 315       -0.30121

 Excited State   5:      Singlet-A      3.3673 eV  368.20 nm  f=0.0000  <S**2>=0.000
     312 -> 313        0.70676

 The electronic state is 1-A.
 Alpha  occ. eigenvalues --  -46.95298 -46.94510 -19.29543 -19.29533 -19.25096
 Alpha  occ. eigenvalues --  -19.24454 -19.24237 -19.24033 -19.23991 -19.23463
 Alpha  occ. eigenvalues --  -14.47223 -14.46222 -14.46192 -14.46027 -14.44942
 Alpha  occ. eigenvalues --  -14.44000 -14.43800 -14.43796 -10.43013 -10.42678
 Alpha  occ. eigenvalues --  -10.39659 -10.39529 -10.39122 -10.39044 -10.35685
 Alpha  occ. eigenvalues --  -10.35189 -10.35111 -10.35004 -10.34845 -10.34808
 Alpha  occ. eigenvalues --  -10.34640 -10.34594 -10.34538 -10.34489 -10.34381
 Alpha  occ. eigenvalues --  -10.34334 -10.34207 -10.33875 -10.33775 -10.33582
 Alpha  occ. eigenvalues --  -10.33317 -10.33275 -10.33063 -10.32862 -10.32698
 Alpha  occ. eigenvalues --  -10.32655 -10.32481 -10.32372 -10.32359 -10.32250
 Alpha  occ. eigenvalues --  -10.32149 -10.32081 -10.32043 -10.31860 -10.31724
 Alpha  occ. eigenvalues --  -10.31723 -10.31669 -10.31665 -10.31628 -10.31624
 Alpha  occ. eigenvalues --  -10.31596 -10.31539 -10.31507 -10.31486 -10.31450
 Alpha  occ. eigenvalues --  -10.30928 -10.30676 -10.30619 -10.30608 -10.30487
 Alpha  occ. eigenvalues --  -10.30426 -10.30317 -10.30244 -10.30169 -10.30166
 Alpha  occ. eigenvalues --  -10.30053 -10.29990 -10.29955 -10.29752 -10.29614
 Alpha  occ. eigenvalues --  -10.29470 -10.29450 -10.29360 -10.29008 -10.28833
 Alpha  occ. eigenvalues --  -10.28773  -3.21310  -3.20574  -1.94870  -1.94433
 Alpha  occ. eigenvalues --   -1.94289  -1.94166  -1.93717  -1.93534  -1.19689
 Alpha  occ. eigenvalues --   -1.17669  -1.13623  -1.11921  -1.11732  -1.10677
 Alpha  occ. eigenvalues --   -1.10193  -1.09698  -1.07128  -1.06400  -1.05982
 Alpha  occ. eigenvalues --   -1.05523  -1.05273  -1.05010  -1.04170  -1.03992
 Alpha  occ. eigenvalues --   -0.94940  -0.94194  -0.91132  -0.91076  -0.90497
 Alpha  occ. eigenvalues --   -0.90465  -0.90282  -0.90153  -0.89320  -0.89145
 Alpha  occ. eigenvalues --   -0.88824  -0.88302  -0.87502  -0.87289  -0.85884
 Alpha  occ. eigenvalues --   -0.85746  -0.85525  -0.85267  -0.84220  -0.84137
 Alpha  occ. eigenvalues --   -0.83574  -0.83281  -0.83038  -0.82622  -0.82151
 Alpha  occ. eigenvalues --   -0.82003  -0.80711  -0.79846  -0.79180  -0.78894
 Alpha  occ. eigenvalues --   -0.78726  -0.78626  -0.77810  -0.77720  -0.77345
 Alpha  occ. eigenvalues --   -0.76977  -0.74581  -0.74550  -0.73882  -0.73082
 Alpha  occ. eigenvalues --   -0.72092  -0.71860  -0.71161  -0.70763  -0.70374
 Alpha  occ. eigenvalues --   -0.69982  -0.69570  -0.68092  -0.67255  -0.67055
 Alpha  occ. eigenvalues --   -0.66906  -0.66773  -0.66188  -0.66183  -0.66093
 Alpha  occ. eigenvalues --   -0.66029  -0.64252  -0.63684  -0.62975  -0.62391
 Alpha  occ. eigenvalues --   -0.61530  -0.61495  -0.61040  -0.60839  -0.60723
 Alpha  occ. eigenvalues --   -0.60087  -0.60061  -0.59786  -0.59440  -0.58963
 Alpha  occ. eigenvalues --   -0.58034  -0.58005  -0.57935  -0.57712  -0.57540
 Alpha  occ. eigenvalues --   -0.57194  -0.56834  -0.56779  -0.56102  -0.55904
 Alpha  occ. eigenvalues --   -0.55531  -0.55450  -0.55354  -0.55034  -0.54798
 Alpha  occ. eigenvalues --   -0.54719  -0.54535  -0.54319  -0.54218  -0.54114
 Alpha  occ. eigenvalues --   -0.53961  -0.53918  -0.53615  -0.53315  -0.52998
 Alpha  occ. eigenvalues --   -0.52648  -0.52616  -0.52549  -0.52035  -0.51976
 Alpha  occ. eigenvalues --   -0.51815  -0.51538  -0.51533  -0.51403  -0.51205
 Alpha  occ. eigenvalues --   -0.51155  -0.51152  -0.51125  -0.50969  -0.50708
 Alpha  occ. eigenvalues --   -0.50653  -0.50600  -0.50179  -0.50081  -0.49989
 Alpha  occ. eigenvalues --   -0.49865  -0.49792  -0.49713  -0.49462  -0.49393
 Alpha  occ. eigenvalues --   -0.48728  -0.48652  -0.48448  -0.48363  -0.48354
 Alpha  occ. eigenvalues --   -0.48297  -0.47824  -0.47823  -0.47664  -0.47442
 Alpha  occ. eigenvalues --   -0.47431  -0.47181  -0.47068  -0.46838  -0.46722
 Alpha  occ. eigenvalues --   -0.46531  -0.46449  -0.46196  -0.46025  -0.45937
 Alpha  occ. eigenvalues --   -0.45689  -0.45434  -0.45196  -0.45163  -0.45109
 Alpha  occ. eigenvalues --   -0.45003  -0.44813  -0.44756  -0.44556  -0.44538
 Alpha  occ. eigenvalues --   -0.44340  -0.44172  -0.43953  -0.43900  -0.43875
 Alpha  occ. eigenvalues --   -0.43836  -0.43705  -0.43606  -0.43544  -0.43481
 Alpha  occ. eigenvalues --   -0.43230  -0.42763  -0.42694  -0.42573  -0.42033
 Alpha  occ. eigenvalues --   -0.42004  -0.41548  -0.41399  -0.41246  -0.41208
 Alpha  occ. eigenvalues --   -0.40599  -0.40210  -0.39806  -0.39755  -0.39631
 Alpha  occ. eigenvalues --   -0.39463  -0.39069  -0.38945  -0.38307  -0.38281
 Alpha  occ. eigenvalues --   -0.38030  -0.37661  -0.37080  -0.36079  -0.35848
 Alpha  occ. eigenvalues --   -0.35743  -0.35472  -0.35295  -0.33721  -0.33576
 Alpha  occ. eigenvalues --   -0.33006  -0.32934  -0.32816  -0.32408  -0.32283
 Alpha  occ. eigenvalues --   -0.31922  -0.31688  -0.31414  -0.26078  -0.25630
 Alpha  occ. eigenvalues --   -0.23230  -0.22804
 Alpha virt. eigenvalues --   -0.07647  -0.06691   0.00124   0.00477   0.01964
 Alpha virt. eigenvalues --    0.02333   0.04038   0.04629   0.04806   0.06194
 Alpha virt. eigenvalues --    0.07319   0.07720   0.08097   0.08319   0.08547

 Mulliken charges:
               1
     1  Mg   0.966242
     2  C   -0.025689
     3  C   -0.076940
     4  C   -0.087951
     5  C   -0.117791
     6  N   -0.288347
     7  C   -0.035607
     8  C   -0.084364
     9  C   -0.089720
    10  C    0.019894
    11  C    0.040411
    12  C    0.000547
    13  C   -0.089365
    14  H    0.044246
    15  N   -0.478844
    16  C    0.176020
    17  C   -0.189203
    18  C   -0.081279
    19  C    0.188948
    20  C    0.062582
    21  C    0.064868
    22  O   -0.213954
    23  C   -0.007383
    24  N   -0.342150
    25  C    0.014443
    26  C   -0.099217
    27  C   -0.054369
    28  C    0.091369
    29  C    0.035509
    30  C   -0.009889
    31  C   -0.072510
    32  N   -0.486578
    33  C    0.144537
    34  C   -0.184419
    35  C   -0.031053
    36  C    0.180570
    37  C    0.067943
    38  C    0.153335
    39  O   -0.233820
    40  C   -0.147642
    41  C    0.242944
    42  O   -0.186072
    43  O   -0.368463
    44  C    0.110576
    45  H    0.004035
    46  H    0.009357
    47  H   -0.005636
    48  H    0.019725
    49  H    0.022687
    50  H    0.039862
    51  H    0.044113
    52  H    0.041353
    53  H    0.025621
    54  H    0.065715
    55  H    0.042488
    56  H    0.038026
    57  H    0.059082
    58  H    0.057387
    59  H    0.030399
    60  H    0.057822
    61  H    0.020553
    62  H    0.069177
    63  H    0.047689
    64  H    0.031268
    65  H    0.046160
    66  H    0.047598
    67  H    0.054486
    68  H    0.029026
    69  H    0.040653
    70  H    0.032555
    71  H    0.032801
    72  H    0.039624
    73  H    0.062233
    74  H    0.042724
    75  H    0.047427
    76  H    0.086122
    77  H    0.070106
    78  H    0.062689
    79  H    0.062707
    80  Mg   0.971729
    81  C    0.006803
    82  C   -0.061630
    83  C   -0.062938
    84  C   -0.062880
    85  N   -0.337789
    86  C   -0.003186
    87  C   -0.035428
    88  C   -0.097871
    89  C    0.010283
    90  C    0.027382
    91  C   -0.006629
    92  C   -0.129163
    93  H    0.034264
    94  N   -0.494950
    95  C    0.189728
    96  C   -0.136942
    97  C   -0.054354
    98  C    0.137702
    99  C    0.059050
   100  C    0.036233
   101  O   -0.271543
   102  C   -0.007123
   103  N   -0.340600
   104  C    0.077613
   105  C   -0.129620
   106  C   -0.020097
   107  C    0.012672
   108  C    0.021337
   109  C   -0.019718
   110  C   -0.045871
   111  N   -0.428852
   112  C    0.150646
   113  C   -0.205211
   114  C    0.004273
   115  C    0.123044
   116  C    0.072289
   117  C    0.116702
   118  O   -0.207884
   119  C   -0.128436
   120  C    0.274784
   121  O   -0.237370
   122  O   -0.379934
   123  C    0.133597
   124  H   -0.003011
   125  H    0.023117
   126  H   -0.004246
   127  H    0.030744
   128  H    0.033070
   129  H    0.030750
   130  H    0.034882
   131  H    0.058488
   132  H    0.029739
   133  H    0.037045
   134  H    0.054474
   135  H    0.068878
   136  H    0.037238
   137  H    0.051109
   138  H    0.045657
   139  H    0.030970
   140  H    0.073608
   141  H    0.048673
   142  H    0.037229
   143  H    0.038859
   144  H    0.043517
   145  H    0.041873
   146  H    0.022391
   147  H    0.033379
   148  H    0.039566
   149  H    0.046974
   150  H    0.038402
   151  H    0.043075
   152  H    0.057527
   153  H    0.018652
   154  H    0.059576
   155  H    0.065212
   156  H    0.060408
   157  H    0.053557
   158  H    0.064506
 Sum of Mulliken charges =  -0.00000

 Dipole moment (field-independent basis, Debye):
    X=              5.3860    Y=             -0.1525    Z=              7.9020  Tot=              9.5642
 Quadrupole moment (field-independent basis, Debye-Ang):
   XX=           -524.6325   YY=           -473.4087   ZZ=           -503.4321
   XY=             52.3328   XZ=             13.2837   YZ=             43.0944

 Normal termination of Gaussian 16 at Sat Sep 18 23:29:42 2021.
