 Gaussian 16, Revision A.03,
 Gaussian 16:  ES64L-G16RevA.03 25-Dec-2016

 --------------------------------
 #p wB97XD/Def2SVP td=(nstates=5)
 --------------------------------

 --------------------------------
 TDDFT excited states in gaussian
 --------------------------------
 Symbolic Z-matrix:
 Charge =  0 Multiplicity = 1

                         Standard orientation:
 ---------------------------------------------------------------------
 Center     Atomic      Atomic             Coordinates (Angstroms)
 Number     Number       Type             X           Y           Z
 ---------------------------------------------------------------------
      1         12           0       11.670324   -0.010391    0.101771
      2          6           0        9.286444   -1.557042   -1.984748
      3          6           0       10.735324    2.971686   -1.254751
      4          6           0       13.392639    1.536372    2.616250
      5          6           0       12.039413   -3.188765    1.670761
      6          7           0       10.048751    0.651833   -1.372603
      7          6           0        9.299313   -0.115620   -2.217477
      8          6           0        8.350559    0.729004   -3.085439
      9          6           0        9.188835    2.098608   -3.022184
     10          6           0       10.054918    1.900300   -1.803098
     11          6           0       10.044037    2.423633   -4.276184
     12          6           0        6.887618    0.917850   -2.479207
     13          6           0        5.735949    1.232564   -3.421395
     14          1           0        5.035581    2.608018   -3.433019
     15          7           0       12.099582    2.019455    0.666620
     16          6           0       11.717122    3.059664   -0.129563
     17          6           0       12.325214    4.250135    0.272331
     18          6           0       13.149061    3.883862    1.402507
     19          6           0       12.902577    2.436152    1.656144
     20          6           0       12.137645    5.602289   -0.405094
     21          6           0       14.026152    4.880277    2.126344
     22          8           0       14.058545    6.076248    1.737351
     23          6           0       15.006157    4.493877    3.289533
     24          7           0       12.549964   -0.764319    1.830178
     25          6           0       13.252696    0.095325    2.717305
     26          6           0       14.089082   -0.718840    3.664876
     27          6           0       13.450920   -2.124437    3.628712
     28          6           0       12.692180   -2.084571    2.270193
     29          6           0       15.600815   -0.897192    3.397964
     30          6           0       12.404220   -2.356505    4.841416
     31          6           0       12.944228   -2.804126    6.191331
     32          7           0       10.956213   -2.010721   -0.249352
     33          6           0       11.198819   -3.180320    0.455206
     34          6           0       10.463668   -4.239146   -0.043600
     35          6           0        9.703451   -3.665061   -1.076899
     36          6           0       10.027350   -2.299268   -1.139930
     37          6           0       10.522434   -5.645643    0.463163
     38          6           0        8.845030   -3.948080   -2.102296
     39          8           0        8.446945   -5.018258   -2.518280
     40          6           0        8.349189   -2.559737   -2.558442
     41          6           0        6.937210   -2.472549   -2.060956
     42          8           0        6.624506   -2.581319   -0.916203
     43          8           0        6.055945   -2.326466   -3.133743
     44          6           0        4.695505   -2.407656   -2.729286
     45          1           0       10.622447    3.913153   -1.796816
     46          1           0       14.116416    1.948509    3.323112
     47          1           0       12.310934   -4.150392    2.110710
     48          1           0        8.366888    0.430121   -4.133002
     49          1           0        8.456649    2.901327   -2.939254
     50          1           0        9.407795    3.123945   -4.818079
     51          1           0       10.204975    1.548363   -4.905437
     52          1           0       10.975788    2.922218   -4.008562
     53          1           0        6.872148    1.752768   -1.778592
     54          1           0        6.690966    0.033926   -1.872099
     55          1           0        4.994510    0.466013   -3.191452
     56          1           0        6.086198    1.031712   -4.433733
     57          1           0       12.977955    6.294044   -0.472767
     58          1           0       11.297564    5.954476    0.193058
     59          1           0       11.912639    5.459606   -1.462052
     60          1           0       15.758986    3.801477    2.913768
     61          1           0       14.328479    4.065621    4.027820
     62          1           0       15.458705    5.323465    3.832588
     63          1           0       13.920875   -0.299639    4.656353
     64          1           0       14.197035   -2.918662    3.656154
     65          1           0       15.909659   -1.910155    3.140450
     66          1           0       16.197458   -0.270602    4.061241
     67          1           0       15.758341   -0.374790    2.454498
     68          1           0       11.772127   -3.123452    4.394265
     69          1           0       11.812988   -1.458187    5.020100
     70          1           0       12.573274   -2.131943    6.964593
     71          1           0       14.033750   -2.765887    6.172578
     72          1           0       12.583114   -3.798837    6.453856
     73          1           0        9.487576   -5.951162    0.614783
     74          1           0       11.001339   -5.721220    1.440182
     75          1           0       10.981054   -6.333796   -0.247126
     76          1           0        8.370906   -2.536366   -3.647431
     77          1           0        4.348623   -3.436770   -2.818465
     78          1           0        4.009186   -1.900671   -3.408611
     79          1           0        4.546115   -2.074983   -1.703518
     80         12           0      -11.029127    0.238178    0.623121
     81          6           0       -8.537161    0.287717   -1.797235
     82          6           0      -11.231797   -3.158401    0.181170
     83          6           0      -13.682675    0.201803    2.830441
     84          6           0      -11.169721    3.721103    0.616732
     85          7           0       -9.923857   -1.250258   -0.596778
     86          6           0       -8.885210   -1.039441   -1.423215
     87          6           0       -8.209854   -2.323603   -1.958428
     88          6           0       -9.252907   -3.428307   -1.494168
     89          6           0      -10.262987   -2.572502   -0.589393
     90          6           0       -9.891743   -4.095364   -2.764166
     91          6           0       -6.762135   -2.426293   -1.251454
     92          6           0       -5.535628   -2.585448   -2.197472
     93          1           0       -5.896027   -3.130104   -3.626879
     94          7           0      -12.349430   -1.217107    1.368503
     95          6           0      -12.194186   -2.595562    1.114614
     96          6           0      -13.075974   -3.331683    1.995239
     97          6           0      -13.821465   -2.396019    2.723592
     98          6           0      -13.245763   -1.041647    2.386227
     99          6           0      -13.310533   -4.837552    1.809449
    100          6           0      -14.978118   -2.664037    3.722698
    101          8           0      -15.602728   -1.786918    4.348102
    102          6           0      -15.344594   -4.125507    4.033237
    103          7           0      -12.274977    1.784643    1.501348
    104          6           0      -13.290493    1.456131    2.450258
    105          6           0      -14.087274    2.718178    2.841659
    106          6           0      -13.084900    3.861133    2.343784
    107          6           0      -12.080439    3.072814    1.462864
    108          6           0      -15.469357    2.660818    2.212143
    109          6           0      -12.336649    4.549690    3.562003
    110          6           0      -11.543166    3.792774    4.680954
    111          7           0      -10.144109    1.717471   -0.405238
    112          6           0      -10.293249    3.105915   -0.333768
    113          6           0       -9.386851    3.719165   -1.249468
    114          6           0       -8.656888    2.684862   -1.806815
    115          6           0       -9.210020    1.462269   -1.352225
    116          6           0       -9.279464    5.190979   -1.592395
    117          6           0       -7.608268    2.393332   -2.701821
    118          8           0       -7.019510    3.160546   -3.394809
    119          6           0       -7.573405    0.813049   -2.815572
    120          6           0       -7.996371    0.489258   -4.221789
    121          8           0       -9.082995    0.037022   -4.516450
    122          8           0       -6.985844    0.826594   -5.031763
    123          6           0       -7.397826    0.995178   -6.403797
    124          1           0      -11.249343   -4.247605    0.108361
    125          1           0      -14.655008    0.184239    3.325803
    126          1           0      -11.209118    4.812640    0.594456
    127          1           0       -8.037810   -2.342586   -3.034427
    128          1           0       -8.840400   -4.207150   -0.852396
    129          1           0      -10.969900   -4.249076   -2.713027
    130          1           0       -9.340355   -5.035070   -2.749261
    131          1           0       -9.540917   -3.527526   -3.625569
    132          1           0       -6.833761   -3.199812   -0.487125
    133          1           0       -6.627808   -1.504165   -0.685469
    134          1           0       -4.932068   -3.294807   -1.632274
    135          1           0       -4.948173   -1.679943   -2.346410
    136          1           0      -14.382209   -4.977252    1.665453
    137          1           0      -13.060231   -5.358072    2.734822
    138          1           0      -12.719682   -5.204113    0.970599
    139          1           0      -15.857426   -4.514488    3.152606
    140          1           0      -16.103133   -4.075998    4.814254
    141          1           0      -14.485224   -4.631171    4.472882
    142          1           0      -14.071095    2.725078    3.931907
    143          1           0      -13.648498    4.670874    1.881752
    144          1           0      -15.828556    1.642959    2.059469
    145          1           0      -15.472307    3.167015    1.247086
    146          1           0      -16.212762    3.109476    2.870727
    147          1           0      -13.047457    5.217083    4.049383
    148          1           0      -11.548023    5.113028    3.063119
    149          1           0      -12.241236    3.532773    5.476818
    150          1           0      -10.801397    4.507082    5.040142
    151          1           0      -10.936271    2.948364    4.352665
    152          1           0       -9.037353    5.801096   -0.722013
    153          1           0      -10.277959    5.446904   -1.946227
    154          1           0       -8.450894    5.464846   -2.247023
    155          1           0       -6.614699    0.314109   -2.672861
    156          1           0       -6.814085    1.733364   -6.953229
    157          1           0       -8.447563    1.099126   -6.677928
    158          1           0       -7.240733    0.106585   -7.015592
 ---------------------------------------------------------------------

 SCF Done:  E(RwB97XD) =  -4070.58871842     A.U. after   19 cycles

 Excitation energies and oscillator strengths:

 Excited State   1:      Singlet-A      1.6461 eV  753.22 nm  f=0.3793  <S**2>=0.000
     309 -> 315       -0.19110
     311 -> 313        0.68022
     309 <- 315       -0.11793
 This state for optimization and/or second-order correction.
 Total Energy, E(TD-HF/TD-DFT) =  -4070.52822693
 Copying the excited state density for this state as the 1-particle RhoCI density.

 Excited State   2:      Singlet-A      1.6509 eV  750.99 nm  f=0.4050  <S**2>=0.000
     310 -> 316        0.18075
     312 -> 314        0.68392
     310 <- 316        0.11554

 Excited State   3:      Singlet-A      2.0912 eV  592.87 nm  f=0.1268  <S**2>=0.000
     309 -> 313        0.64852
     311 -> 315        0.26296

 Excited State   4:      Singlet-A      2.1704 eV  571.24 nm  f=0.1250  <S**2>=0.000
     310 -> 314        0.64458
     312 -> 316       -0.27778

 Excited State   5:      Singlet-A      3.3921 eV  365.51 nm  f=0.0000  <S**2>=0.000
     312 -> 313        0.70704

 The electronic state is 1-A.
 Alpha  occ. eigenvalues --  -46.96686 -46.94405 -19.31405 -19.30680 -19.25891
 Alpha  occ. eigenvalues --  -19.25023 -19.24448 -19.23569 -19.23205 -19.22953
 Alpha  occ. eigenvalues --  -14.47810 -14.47306 -14.46826 -14.46014 -14.44440
 Alpha  occ. eigenvalues --  -14.44108 -14.43849 -14.43693 -10.43606 -10.43172
 Alpha  occ. eigenvalues --  -10.39049 -10.39037 -10.38866 -10.37393 -10.36506
 Alpha  occ. eigenvalues --  -10.36396 -10.35721 -10.35660 -10.35120 -10.35026
 Alpha  occ. eigenvalues --  -10.34801 -10.34758 -10.34682 -10.34320 -10.34320
 Alpha  occ. eigenvalues --  -10.34268 -10.34010 -10.33886 -10.33814 -10.33605
 Alpha  occ. eigenvalues --  -10.33596 -10.33345 -10.33090 -10.32955 -10.32606
 Alpha  occ. eigenvalues --  -10.32506 -10.32430 -10.32409 -10.32400 -10.32340
 Alpha  occ. eigenvalues --  -10.32205 -10.32131 -10.32122 -10.32068 -10.31934
 Alpha  occ. eigenvalues --  -10.31900 -10.31900 -10.31748 -10.31744 -10.31698
 Alpha  occ. eigenvalues --  -10.31683 -10.31622 -10.31562 -10.31535 -10.31324
 Alpha  occ. eigenvalues --  -10.31066 -10.31028 -10.30770 -10.30739 -10.30557
 Alpha  occ. eigenvalues --  -10.30492 -10.30472 -10.30467 -10.30380 -10.30259
 Alpha  occ. eigenvalues --  -10.30194 -10.30004 -10.29818 -10.29642 -10.29603
 Alpha  occ. eigenvalues --  -10.29501 -10.29411 -10.29170 -10.29071 -10.28773
 Alpha  occ. eigenvalues --  -10.28228  -3.22456  -3.20438  -1.96036  -1.95566
 Alpha  occ. eigenvalues --   -1.95414  -1.94031  -1.93541  -1.93430  -1.20373
 Alpha  occ. eigenvalues --   -1.19848  -1.14307  -1.12307  -1.11785  -1.11287
 Alpha  occ. eigenvalues --   -1.10471  -1.09557  -1.07810  -1.06747  -1.06176
 Alpha  occ. eigenvalues --   -1.06012  -1.05319  -1.04734  -1.03939  -1.03128
 Alpha  occ. eigenvalues --   -0.96409  -0.94820  -0.90894  -0.90661  -0.90595
 Alpha  occ. eigenvalues --   -0.90422  -0.89977  -0.89617  -0.89560  -0.89061
 Alpha  occ. eigenvalues --   -0.89014  -0.88419  -0.87911  -0.87898  -0.86331
 Alpha  occ. eigenvalues --   -0.85880  -0.85570  -0.85252  -0.84864  -0.84145
 Alpha  occ. eigenvalues --   -0.83852  -0.83156  -0.82793  -0.82688  -0.82335
 Alpha  occ. eigenvalues --   -0.81861  -0.80053  -0.79631  -0.79345  -0.79010
 Alpha  occ. eigenvalues --   -0.78922  -0.78649  -0.77948  -0.77779  -0.77678
 Alpha  occ. eigenvalues --   -0.76876  -0.75643  -0.74956  -0.74275  -0.73133
 Alpha  occ. eigenvalues --   -0.71510  -0.70812  -0.70625  -0.70455  -0.70416
 Alpha  occ. eigenvalues --   -0.69927  -0.69196  -0.68317  -0.68283  -0.67807
 Alpha  occ. eigenvalues --   -0.67356  -0.66747  -0.66538  -0.66447  -0.66274
 Alpha  occ. eigenvalues --   -0.65857  -0.64852  -0.64365  -0.62536  -0.62195
 Alpha  occ. eigenvalues --   -0.61978  -0.61622  -0.61407  -0.61226  -0.61068
 Alpha  occ. eigenvalues --   -0.60898  -0.60385  -0.60121  -0.59988  -0.59233
 Alpha  occ. eigenvalues --   -0.58529  -0.58208  -0.57736  -0.57652  -0.57329
 Alpha  occ. eigenvalues --   -0.57110  -0.56905  -0.56357  -0.55884  -0.55841
 Alpha  occ. eigenvalues --   -0.55541  -0.55310  -0.55158  -0.55053  -0.54775
 Alpha  occ. eigenvalues --   -0.54560  -0.54425  -0.54249  -0.54091  -0.53888
 Alpha  occ. eigenvalues --   -0.53822  -0.53822  -0.53672  -0.53384  -0.53182
 Alpha  occ. eigenvalues --   -0.52856  -0.52823  -0.52578  -0.52577  -0.52107
 Alpha  occ. eigenvalues --   -0.51844  -0.51814  -0.51758  -0.51704  -0.51448
 Alpha  occ. eigenvalues --   -0.51372  -0.51049  -0.50964  -0.50776  -0.50729
 Alpha  occ. eigenvalues --   -0.50472  -0.50451  -0.50213  -0.49901  -0.49840
 Alpha  occ. eigenvalues --   -0.49650  -0.49385  -0.49309  -0.49185  -0.49085
 Alpha  occ. eigenvalues --   -0.49002  -0.48577  -0.48572  -0.48376  -0.48292
 Alpha  occ. eigenvalues --   -0.48174  -0.48080  -0.48005  -0.47754  -0.47745
 Alpha  occ. eigenvalues --   -0.47476  -0.47262  -0.47136  -0.47041  -0.46888
 Alpha  occ. eigenvalues --   -0.46705  -0.46550  -0.46513  -0.46432  -0.46245
 Alpha  occ. eigenvalues --   -0.45854  -0.45747  -0.45671  -0.45566  -0.45366
 Alpha  occ. eigenvalues --   -0.45321  -0.45202  -0.44990  -0.44935  -0.44902
 Alpha  occ. eigenvalues --   -0.44594  -0.44561  -0.44476  -0.44276  -0.44187
 Alpha  occ. eigenvalues --   -0.43787  -0.43693  -0.43478  -0.43321  -0.43255
 Alpha  occ. eigenvalues --   -0.43202  -0.42943  -0.42683  -0.42592  -0.42431
 Alpha  occ. eigenvalues --   -0.42238  -0.42173  -0.41440  -0.41378  -0.41032
 Alpha  occ. eigenvalues --   -0.40472  -0.39856  -0.39657  -0.39612  -0.39385
 Alpha  occ. eigenvalues --   -0.39175  -0.39102  -0.38970  -0.38921  -0.38672
 Alpha  occ. eigenvalues --   -0.38433  -0.38143  -0.37536  -0.37093  -0.36756
 Alpha  occ. eigenvalues --   -0.36075  -0.35706  -0.34922  -0.33802  -0.33689
 Alpha  occ. eigenvalues --   -0.33048  -0.32500  -0.32476  -0.32297  -0.32194
 Alpha  occ. eigenvalues --   -0.32011  -0.31682  -0.31668  -0.26270  -0.25676
 Alpha  occ. eigenvalues --   -0.23870  -0.22769
 Alpha virt. eigenvalues --   -0.07988  -0.06891  -0.00615   0.00618   0.01972
 Alpha virt. eigenvalues --    0.02622   0.04532   0.04610   0.04663   0.05634
 Alpha virt. eigenvalues --    0.06726   0.07114   0.07399   0.07982   0.08324

 Mulliken charges:
               1
     1  Mg   0.948216
     2  C    0.000409
     3  C   -0.064843
     4  C   -0.087360
     5  C   -0.085887
     6  N   -0.297930
     7  C   -0.037850
     8  C   -0.036676
     9  C   -0.151876
    10  C    0.082394
    11  C    0.029861
    12  C   -0.001012
    13  C   -0.097990
    14  H    0.044482
    15  N   -0.425938
    16  C    0.122617
    17  C   -0.157765
    18  C   -0.085096
    19  C    0.169031
    20  C    0.086324
    21  C    0.032030
    22  O   -0.271572
    23  C   -0.011407
    24  N   -0.428207
    25  C    0.087152
    26  C   -0.091950
    27  C   -0.113487
    28  C    0.082543
    29  C    0.055254
    30  C   -0.033208
    31  C   -0.022696
    32  N   -0.388399
    33  C    0.120930
    34  C   -0.174935
    35  C    0.038925
    36  C    0.121327
    37  C    0.098404
    38  C    0.025810
    39  O   -0.206560
    40  C   -0.074283
    41  C    0.254002
    42  O   -0.209899
    43  O   -0.357995
    44  C    0.118773
    45  H   -0.004206
    46  H   -0.015920
    47  H    0.009923
    48  H    0.028230
    49  H    0.041630
    50  H    0.039317
    51  H    0.042951
    52  H    0.043390
    53  H    0.044084
    54  H    0.047509
    55  H    0.049508
    56  H    0.043115
    57  H    0.069696
    58  H    0.065554
    59  H    0.029219
    60  H    0.067714
    61  H    0.050321
    62  H    0.051492
    63  H    0.031768
    64  H    0.027929
    65  H    0.049156
    66  H    0.044427
    67  H    0.015846
    68  H    0.024833
    69  H    0.036976
    70  H    0.036015
    71  H    0.032898
    72  H    0.043030
    73  H    0.055525
    74  H    0.023733
    75  H    0.063682
    76  H    0.047937
    77  H    0.048554
    78  H    0.048624
    79  H    0.061879
    80  Mg   0.964180
    81  C   -0.022358
    82  C   -0.067064
    83  C   -0.064439
    84  C   -0.108206
    85  N   -0.333450
    86  C    0.014019
    87  C   -0.076098
    88  C   -0.120628
    89  C    0.066926
    90  C    0.027364
    91  C   -0.000146
    92  C   -0.127247
    93  H    0.035007
    94  N   -0.460878
    95  C    0.133533
    96  C   -0.174162
    97  C   -0.090038
    98  C    0.138187
    99  C    0.086403
   100  C    0.051286
   101  O   -0.252394
   102  C   -0.016370
   103  N   -0.338824
   104  C    0.022045
   105  C   -0.061262
   106  C   -0.072450
   107  C    0.097110
   108  C    0.041985
   109  C   -0.059391
   110  C   -0.054450
   111  N   -0.488568
   112  C    0.148215
   113  C   -0.184054
   114  C   -0.008211
   115  C    0.148420
   116  C    0.079490
   117  C    0.095047
   118  O   -0.163080
   119  C   -0.097306
   120  C    0.245632
   121  O   -0.236925
   122  O   -0.309877
   123  C    0.140925
   124  H   -0.012827
   125  H    0.030867
   126  H    0.003239
   127  H    0.039813
   128  H    0.038977
   129  H    0.052171
   130  H    0.033017
   131  H    0.049420
   132  H    0.033458
   133  H    0.042306
   134  H    0.057220
   135  H    0.069637
   136  H    0.044616
   137  H    0.039453
   138  H    0.041600
   139  H    0.061826
   140  H    0.044485
   141  H    0.064042
   142  H    0.035120
   143  H    0.030257
   144  H    0.046255
   145  H    0.035055
   146  H    0.037268
   147  H    0.038896
   148  H    0.021472
   149  H    0.047737
   150  H    0.037271
   151  H    0.043677
   152  H    0.037569
   153  H    0.056845
   154  H    0.057270
   155  H    0.056271
   156  H    0.057838
   157  H    0.054803
   158  H    0.025183
 Sum of Mulliken charges =  -0.00000

 Dipole moment (field-independent basis, Debye):
    X=              3.3943    Y=             -1.4800    Z=              0.8147  Tot=              3.7914
 Quadrupole moment (field-independent basis, Debye-Ang):
   XX=           -509.0253   YY=           -520.0957   ZZ=           -496.5914
   XY=            -21.8460   XZ=             25.9746   YZ=            -16.3988

 Normal termination of Gaussian 16 at Sun Sep 19 12:22:16 2021.
