 Gaussian 16, Revision A.03,
 Gaussian 16:  ES64L-G16RevA.03 25-Dec-2016

 --------------------------------
 #p wB97XD/Def2SVP td=(nstates=5)
 --------------------------------

 --------------------------------
 TDDFT excited states in gaussian
 --------------------------------
 Symbolic Z-matrix:
 Charge =  0 Multiplicity = 1

                         Standard orientation:
 ---------------------------------------------------------------------
 Center     Atomic      Atomic             Coordinates (Angstroms)
 Number     Number       Type             X           Y           Z
 ---------------------------------------------------------------------
      1         12           0      -22.379491    0.461391    0.429324
      2          6           0      -21.632273   -2.098579   -1.676315
      3          6           0      -22.625187   -1.593309    3.189924
      4          6           0      -23.311668    3.165047    2.312050
      5          6           0      -22.585457    2.643167   -2.449620
      6          7           0      -22.356340   -1.619631    0.657488
      7          6           0      -21.765597   -2.497054   -0.312582
      8          6           0      -21.414131   -3.795888    0.295072
      9          6           0      -22.132522   -3.682414    1.713960
     10          6           0      -22.413511   -2.209523    1.912018
     11          6           0      -23.491522   -4.540746    1.806566
     12          6           0      -19.895237   -4.147641    0.252568
     13          6           0      -19.576127   -5.548179   -0.161111
     14          1           0      -20.530709   -6.673573    0.402044
     15          7           0      -22.827394    0.757873    2.489433
     16          6           0      -22.873613   -0.249872    3.406319
     17          6           0      -23.189380    0.331941    4.665692
     18          6           0      -23.318164    1.764927    4.489094
     19          6           0      -23.077166    2.004942    3.026844
     20          6           0      -23.435528   -0.523082    5.927976
     21          6           0      -23.576630    2.893949    5.437171
     22          8           0      -23.775135    4.085975    5.176916
     23          6           0      -23.539543    2.506892    6.964010
     24          7           0      -22.996793    2.636751   -0.016889
     25          6           0      -23.221188    3.511316    0.931949
     26          6           0      -23.233246    4.946768    0.410442
     27          6           0      -22.998807    4.757646   -1.115556
     28          6           0      -22.865716    3.239782   -1.222263
     29          6           0      -24.598936    5.741311    0.733652
     30          6           0      -21.662291    5.519340   -1.526367
     31          6           0      -20.280887    5.040764   -1.015288
     32          7           0      -22.316885    0.292005   -1.667958
     33          6           0      -22.362080    1.256649   -2.656711
     34          6           0      -22.001051    0.576797   -3.917365
     35          6           0      -21.687060   -0.721580   -3.648723
     36          6           0      -21.904851   -0.841512   -2.228217
     37          6           0      -22.132456    1.195185   -5.266481
     38          6           0      -21.252234   -2.009949   -4.187738
     39          8           0      -20.989738   -2.356885   -5.327108
     40          6           0      -21.217338   -2.942908   -2.898658
     41          6           0      -22.215715   -4.011126   -3.107977
     42          8           0      -23.428373   -3.888254   -3.353604
     43          8           0      -21.489868   -5.177864   -2.978673
     44          6           0      -22.303458   -6.400595   -2.962904
     45          1           0      -22.660543   -2.200706    4.096553
     46          1           0      -23.495002    4.001779    2.990308
     47          1           0      -22.566199    3.301856   -3.319655
     48          1           0      -21.919612   -4.531297   -0.332120
     49          1           0      -21.426502   -4.017718    2.473094
     50          1           0      -23.604805   -5.267770    1.002386
     51          1           0      -24.302946   -3.838289    1.616700
     52          1           0      -23.483934   -4.913196    2.830090
     53          1           0      -19.456330   -3.997865    1.239032
     54          1           0      -19.510720   -3.448620   -0.490008
     55          1           0      -18.604781   -5.887541    0.196485
     56          1           0      -19.475256   -5.824739   -1.210697
     57          1           0      -22.544464   -0.921682    6.412835
     58          1           0      -24.118105   -1.288158    5.558417
     59          1           0      -23.851513    0.050656    6.755878
     60          1           0      -24.440748    1.944040    7.207297
     61          1           0      -23.299099    3.405448    7.531944
     62          1           0      -22.674131    1.904457    7.240880
     63          1           0      -22.383723    5.476939    0.840282
     64          1           0      -23.805828    5.151141   -1.733669
     65          1           0      -24.351193    6.446628    1.527718
     66          1           0      -25.357919    5.049722    1.100801
     67          1           0      -25.063247    6.353764   -0.038223
     68          1           0      -21.670129    6.594200   -1.346220
     69          1           0      -21.641641    5.330521   -2.600183
     70          1           0      -19.784149    4.733730   -1.935763
     71          1           0      -20.358420    4.245100   -0.275397
     72          1           0      -19.695065    5.820755   -0.529003
     73          1           0      -21.321962    0.724256   -5.821890
     74          1           0      -22.040142    2.281246   -5.246562
     75          1           0      -23.007444    0.751932   -5.740101
     76          1           0      -20.216024   -3.357522   -3.012095
     77          1           0      -21.540978   -7.179985   -2.973645
     78          1           0      -22.825667   -6.422052   -3.919433
     79          1           0      -23.069371   -6.450990   -2.188718
     80         12           0       21.830488    0.775777   -0.161983
     81          6           0       23.693126   -1.697832    1.639867
     82          6           0       19.981336   -1.915451   -1.496711
     83          6           0       20.521959    2.781129   -2.391440
     84          6           0       23.973987    3.155812    0.979644
     85          7           0       21.832514   -1.521807    0.111014
     86          6           0       22.620841   -2.202521    0.977308
     87          6           0       22.152651   -3.647585    1.026549
     88          6           0       20.940753   -3.792883    0.063556
     89          6           0       20.875331   -2.343477   -0.455213
     90          6           0       21.148262   -4.935017   -1.082966
     91          6           0       21.734165   -4.108913    2.488012
     92          6           0       22.298517   -5.445196    2.971541
     93          1           0       22.553368   -6.635458    1.962001
     94          7           0       20.467720    0.458512   -1.778131
     95          6           0       19.846799   -0.655229   -2.104325
     96          6           0       19.013603   -0.365466   -3.237140
     97          6           0       18.995495    1.031605   -3.478975
     98          6           0       20.029091    1.468647   -2.577417
     99          6           0       18.052096   -1.389393   -3.838172
    100          6           0       18.132753    1.952710   -4.327283
    101          8           0       18.346431    3.146203   -4.436528
    102          6           0       16.941552    1.317638   -4.990356
    103          7           0       22.455634    2.596566   -0.862558
    104          6           0       21.589801    3.327031   -1.678555
    105          6           0       21.889865    4.850662   -1.674979
    106          6           0       22.887261    4.906321   -0.457006
    107          6           0       23.132995    3.448614   -0.067867
    108          6           0       22.457002    5.299925   -3.029408
    109          6           0       22.286637    5.647942    0.829278
    110          6           0       22.779819    7.017713    1.155625
    111          7           0       23.391457    0.791237    1.117261
    112          6           0       24.197945    1.853968    1.462981
    113          6           0       25.328275    1.458742    2.299285
    114          6           0       25.173170    0.030848    2.409912
    115          6           0       24.078582   -0.324791    1.586943
    116          6           0       26.222781    2.414833    3.001914
    117          6           0       25.662924   -1.172534    3.064551
    118          8           0       26.599601   -1.255571    3.879760
    119          6           0       24.714187   -2.401085    2.556648
    120          6           0       25.616795   -3.304543    1.860798
    121          8           0       26.317052   -2.971619    0.929805
    122          8           0       25.563377   -4.540675    2.370791
    123          6           0       26.437221   -5.648932    1.872878
    124          1           0       19.329412   -2.700323   -1.885622
    125          1           0       19.880171    3.578480   -2.773673
    126          1           0       24.583101    3.965833    1.385551
    127          1           0       22.970162   -4.260115    0.646276
    128          1           0       20.050495   -4.152894    0.579523
    129          1           0       21.890205   -5.669413   -0.769316
    130          1           0       21.456044   -4.382942   -1.971367
    131          1           0       20.196698   -5.424743   -1.289191
    132          1           0       20.662352   -4.116091    2.681388
    133          1           0       22.114702   -3.388705    3.212199
    134          1           0       21.696539   -5.867748    3.776287
    135          1           0       23.229886   -5.148734    3.454008
    136          1           0       17.027908   -1.307835   -3.473803
    137          1           0       18.448103   -2.402890   -3.767365
    138          1           0       18.046961   -1.201085   -4.911533
    139          1           0       16.396207    0.599486   -4.377276
    140          1           0       17.160951    0.793201   -5.919323
    141          1           0       16.158706    2.068157   -5.100101
    142          1           0       20.947829    5.364731   -1.486143
    143          1           0       23.786868    5.426143   -0.786803
    144          1           0       22.389035    4.551277   -3.818595
    145          1           0       23.517747    5.538897   -2.961730
    146          1           0       21.936902    6.201804   -3.353884
    147          1           0       22.424860    5.115752    1.770414
    148          1           0       21.199232    5.709674    0.807275
    149          1           0       21.967342    7.738947    1.077062
    150          1           0       23.539794    7.190670    0.393411
    151          1           0       23.172145    7.050203    2.172008
    152          1           0       26.536934    2.026414    3.970102
    153          1           0       25.697230    3.369502    3.014699
    154          1           0       27.108978    2.527729    2.375911
    155          1           0       24.255087   -2.928827    3.391517
    156          1           0       27.472558   -5.308555    1.847065
    157          1           0       26.169153   -5.975285    0.867722
    158          1           0       26.314458   -6.583298    2.419895
 ---------------------------------------------------------------------

 SCF Done:  E(RwB97XD) =  -4070.60077866     A.U. after   20 cycles

 Excitation energies and oscillator strengths:

 Excited State   1:      Singlet-A      1.6236 eV  763.66 nm  f=0.3953  <S**2>=0.000
     310 -> 316       -0.17885
     312 -> 313        0.68441
     310 <- 316       -0.11639
 This state for optimization and/or second-order correction.
 Total Energy, E(TD-HF/TD-DFT) =  -4070.54111414
 Copying the excited state density for this state as the 1-particle RhoCI density.

 Excited State   2:      Singlet-A      1.6460 eV  753.22 nm  f=0.3865  <S**2>=0.000
     309 -> 315       -0.19179
     311 -> 314        0.68156
     309 <- 315       -0.11819

 Excited State   3:      Singlet-A      2.1424 eV  578.72 nm  f=0.1282  <S**2>=0.000
     310 -> 313        0.64798
     312 -> 316        0.26647

 Excited State   4:      Singlet-A      2.2139 eV  560.03 nm  f=0.0445  <S**2>=0.000
     309 -> 314        0.60812
     311 -> 315        0.34954

 Excited State   5:      Singlet-A      3.3489 eV  370.22 nm  f=0.0016  <S**2>=0.000
     306 -> 313        0.11144
     308 -> 313        0.67183

 The electronic state is 1-A.
 Alpha  occ. eigenvalues --  -46.95637 -46.94989 -19.30906 -19.30480 -19.25243
 Alpha  occ. eigenvalues --  -19.24628 -19.24619 -19.24568 -19.24127 -19.23466
 Alpha  occ. eigenvalues --  -14.46942 -14.46828 -14.46507 -14.46323 -14.44155
 Alpha  occ. eigenvalues --  -14.44108 -14.44018 -14.43674 -10.43411 -10.42326
 Alpha  occ. eigenvalues --  -10.39776 -10.39767 -10.39552 -10.39464 -10.36296
 Alpha  occ. eigenvalues --  -10.36109 -10.35857 -10.35616 -10.35391 -10.34934
 Alpha  occ. eigenvalues --  -10.34808 -10.34522 -10.34470 -10.34289 -10.34183
 Alpha  occ. eigenvalues --  -10.34008 -10.33693 -10.33627 -10.33604 -10.33491
 Alpha  occ. eigenvalues --  -10.33226 -10.33099 -10.33038 -10.32823 -10.32761
 Alpha  occ. eigenvalues --  -10.32647 -10.32492 -10.32435 -10.32351 -10.32281
 Alpha  occ. eigenvalues --  -10.32215 -10.32180 -10.32050 -10.32010 -10.31990
 Alpha  occ. eigenvalues --  -10.31872 -10.31855 -10.31846 -10.31695 -10.31694
 Alpha  occ. eigenvalues --  -10.31575 -10.31537 -10.31468 -10.31445 -10.31440
 Alpha  occ. eigenvalues --  -10.31169 -10.30986 -10.30674 -10.30625 -10.30508
 Alpha  occ. eigenvalues --  -10.30477 -10.30384 -10.30325 -10.30274 -10.29966
 Alpha  occ. eigenvalues --  -10.29943 -10.29796 -10.29760 -10.29758 -10.29665
 Alpha  occ. eigenvalues --  -10.29639 -10.29462 -10.29347 -10.29324 -10.28828
 Alpha  occ. eigenvalues --  -10.28780  -3.21495  -3.21054  -1.95084  -1.94608
 Alpha  occ. eigenvalues --   -1.94605  -1.94463  -1.94186  -1.94031  -1.18741
 Alpha  occ. eigenvalues --   -1.18165  -1.13075  -1.12462  -1.11906  -1.10713
 Alpha  occ. eigenvalues --   -1.09692  -1.09574  -1.07171  -1.06701  -1.05821
 Alpha  occ. eigenvalues --   -1.05539  -1.05161  -1.04995  -1.03947  -1.03773
 Alpha  occ. eigenvalues --   -0.94373  -0.94158  -0.91076  -0.90708  -0.90526
 Alpha  occ. eigenvalues --   -0.90173  -0.89986  -0.89942  -0.89243  -0.89075
 Alpha  occ. eigenvalues --   -0.88970  -0.88886  -0.88381  -0.88271  -0.86621
 Alpha  occ. eigenvalues --   -0.86169  -0.86029  -0.85319  -0.84578  -0.84334
 Alpha  occ. eigenvalues --   -0.83765  -0.83514  -0.83245  -0.83221  -0.82677
 Alpha  occ. eigenvalues --   -0.81971  -0.80243  -0.80089  -0.79621  -0.79324
 Alpha  occ. eigenvalues --   -0.79174  -0.78819  -0.78200  -0.77768  -0.76957
 Alpha  occ. eigenvalues --   -0.76806  -0.74500  -0.74485  -0.74211  -0.73417
 Alpha  occ. eigenvalues --   -0.71832  -0.71262  -0.70765  -0.70364  -0.69771
 Alpha  occ. eigenvalues --   -0.69628  -0.69489  -0.68943  -0.67492  -0.67298
 Alpha  occ. eigenvalues --   -0.67117  -0.66990  -0.66715  -0.66647  -0.66509
 Alpha  occ. eigenvalues --   -0.66410  -0.64549  -0.64429  -0.62511  -0.62366
 Alpha  occ. eigenvalues --   -0.61426  -0.61194  -0.60950  -0.60841  -0.60811
 Alpha  occ. eigenvalues --   -0.60484  -0.60051  -0.59975  -0.59526  -0.59481
 Alpha  occ. eigenvalues --   -0.58107  -0.57947  -0.57685  -0.57517  -0.57165
 Alpha  occ. eigenvalues --   -0.56985  -0.56947  -0.56409  -0.56305  -0.55501
 Alpha  occ. eigenvalues --   -0.55463  -0.55274  -0.55193  -0.55162  -0.54958
 Alpha  occ. eigenvalues --   -0.54869  -0.54562  -0.54349  -0.54271  -0.54240
 Alpha  occ. eigenvalues --   -0.54127  -0.54021  -0.53950  -0.53494  -0.53228
 Alpha  occ. eigenvalues --   -0.53129  -0.53028  -0.52880  -0.52557  -0.52485
 Alpha  occ. eigenvalues --   -0.52016  -0.51946  -0.51867  -0.51613  -0.51267
 Alpha  occ. eigenvalues --   -0.51189  -0.51023  -0.50933  -0.50721  -0.50533
 Alpha  occ. eigenvalues --   -0.50508  -0.50506  -0.50439  -0.50344  -0.50125
 Alpha  occ. eigenvalues --   -0.50049  -0.49690  -0.49659  -0.49374  -0.49352
 Alpha  occ. eigenvalues --   -0.49217  -0.48844  -0.48744  -0.48675  -0.48549
 Alpha  occ. eigenvalues --   -0.48180  -0.48167  -0.48066  -0.47842  -0.47814
 Alpha  occ. eigenvalues --   -0.47553  -0.47243  -0.47157  -0.47055  -0.46743
 Alpha  occ. eigenvalues --   -0.46530  -0.46476  -0.46208  -0.45896  -0.45771
 Alpha  occ. eigenvalues --   -0.45558  -0.45460  -0.45282  -0.45210  -0.44990
 Alpha  occ. eigenvalues --   -0.44983  -0.44917  -0.44771  -0.44708  -0.44618
 Alpha  occ. eigenvalues --   -0.44460  -0.44343  -0.44107  -0.44052  -0.43913
 Alpha  occ. eigenvalues --   -0.43786  -0.43650  -0.43500  -0.43485  -0.43357
 Alpha  occ. eigenvalues --   -0.43214  -0.42927  -0.42733  -0.42451  -0.42446
 Alpha  occ. eigenvalues --   -0.42203  -0.41729  -0.41630  -0.41444  -0.41280
 Alpha  occ. eigenvalues --   -0.40301  -0.39888  -0.39871  -0.39565  -0.39140
 Alpha  occ. eigenvalues --   -0.39072  -0.38755  -0.38551  -0.38395  -0.38313
 Alpha  occ. eigenvalues --   -0.38244  -0.38138  -0.36666  -0.36466  -0.36242
 Alpha  occ. eigenvalues --   -0.35757  -0.35719  -0.35252  -0.33711  -0.33464
 Alpha  occ. eigenvalues --   -0.33419  -0.33166  -0.33007  -0.32801  -0.32565
 Alpha  occ. eigenvalues --   -0.32285  -0.32129  -0.31600  -0.26391  -0.25769
 Alpha  occ. eigenvalues --   -0.22803  -0.22782
 Alpha virt. eigenvalues --   -0.07097  -0.06873  -0.00505   0.00783   0.01764
 Alpha virt. eigenvalues --    0.02195   0.04138   0.04185   0.04915   0.05015
 Alpha virt. eigenvalues --    0.06897   0.07349   0.07403   0.07763   0.07848

 Mulliken charges:
               1
     1  Mg   0.932426
     2  C   -0.005133
     3  C   -0.105956
     4  C   -0.037133
     5  C   -0.077828
     6  N   -0.442484
     7  C   -0.001004
     8  C   -0.039760
     9  C   -0.136027
    10  C    0.130711
    11  C    0.033358
    12  C    0.069998
    13  C   -0.138371
    14  H    0.000502
    15  N   -0.460807
    16  C    0.169039
    17  C   -0.150544
    18  C   -0.078114
    19  C    0.134167
    20  C    0.056650
    21  C    0.061907
    22  O   -0.237545
    23  C   -0.054787
    24  N   -0.260652
    25  C    0.017988
    26  C   -0.075314
    27  C   -0.047556
    28  C    0.027404
    29  C   -0.001709
    30  C   -0.063239
    31  C   -0.056300
    32  N   -0.406449
    33  C    0.141325
    34  C   -0.240988
    35  C   -0.006279
    36  C    0.120042
    37  C    0.082696
    38  C    0.139136
    39  O   -0.194713
    40  C   -0.109405
    41  C    0.275682
    42  O   -0.259055
    43  O   -0.369986
    44  C    0.139914
    45  H    0.001505
    46  H    0.024242
    47  H    0.003059
    48  H    0.030701
    49  H    0.027159
    50  H    0.043614
    51  H    0.045685
    52  H    0.050286
    53  H    0.039564
    54  H    0.041731
    55  H    0.043857
    56  H    0.061543
    57  H    0.055345
    58  H    0.062233
    59  H    0.016812
    60  H    0.079320
    61  H    0.051770
    62  H    0.041970
    63  H    0.050154
    64  H    0.039095
    65  H    0.042705
    66  H    0.048652
    67  H    0.040756
    68  H    0.041677
    69  H    0.020591
    70  H    0.044554
    71  H    0.039773
    72  H    0.038677
    73  H    0.047119
    74  H    0.040288
    75  H    0.066267
    76  H    0.068408
    77  H    0.059469
    78  H    0.056235
    79  H    0.059378
    80  Mg   0.966318
    81  C   -0.049113
    82  C   -0.089655
    83  C   -0.059786
    84  C   -0.106166
    85  N   -0.317462
    86  C    0.011266
    87  C   -0.040463
    88  C   -0.105301
    89  C    0.050223
    90  C   -0.005191
    91  C   -0.008592
    92  C   -0.109773
    93  H    0.017147
    94  N   -0.388056
    95  C    0.163954
    96  C   -0.188133
    97  C   -0.059193
    98  C    0.115184
    99  C    0.051792
   100  C    0.080709
   101  O   -0.219423
   102  C   -0.036734
   103  N   -0.403338
   104  C    0.019037
   105  C   -0.074880
   106  C   -0.053940
   107  C    0.103370
   108  C    0.032751
   109  C   -0.056544
   110  C   -0.031319
   111  N   -0.481581
   112  C    0.161707
   113  C   -0.187102
   114  C   -0.019220
   115  C    0.159843
   116  C    0.089881
   117  C    0.119875
   118  O   -0.226471
   119  C   -0.061744
   120  C    0.257975
   121  O   -0.245652
   122  O   -0.357580
   123  C    0.146441
   124  H   -0.009413
   125  H    0.024576
   126  H    0.001003
   127  H    0.044144
   128  H    0.046785
   129  H    0.047919
   130  H    0.045203
   131  H    0.037805
   132  H    0.030158
   133  H    0.028302
   134  H    0.044344
   135  H    0.052408
   136  H    0.066436
   137  H    0.038113
   138  H    0.031181
   139  H    0.035994
   140  H    0.074648
   141  H    0.049246
   142  H    0.043684
   143  H    0.035677
   144  H    0.053050
   145  H    0.026353
   146  H    0.041776
   147  H    0.029347
   148  H    0.020472
   149  H    0.036572
   150  H    0.025300
   151  H    0.038913
   152  H    0.066621
   153  H    0.037255
   154  H    0.055630
   155  H    0.057918
   156  H    0.070431
   157  H    0.046842
   158  H    0.060248
 Sum of Mulliken charges =  -0.00000

 Dipole moment (field-independent basis, Debye):
    X=             -2.5595    Y=             -2.3327    Z=              4.0615  Tot=              5.3375
 Quadrupole moment (field-independent basis, Debye-Ang):
   XX=           -831.2582   YY=           -453.8737   ZZ=           -532.4762
   XY=              3.9923   XZ=            -88.8159   YZ=            -19.9255

 Normal termination of Gaussian 16 at Sat Sep 18 08:11:40 2021.
