 Gaussian 16, Revision A.03,
 Gaussian 16:  ES64L-G16RevA.03 25-Dec-2016

 --------------------------------
 #p wB97XD/Def2SVP td=(nstates=5)
 --------------------------------

 --------------------------------
 TDDFT excited states in gaussian
 --------------------------------
 Symbolic Z-matrix:
 Charge =  0 Multiplicity = 1

                         Standard orientation:
 ---------------------------------------------------------------------
 Center     Atomic      Atomic             Coordinates (Angstroms)
 Number     Number       Type             X           Y           Z
 ---------------------------------------------------------------------
      1         12           0       25.007640   -0.200036   -0.694765
      2          6           0       23.927590    1.283133    2.330074
      3          6           0       25.234065   -3.228538    0.944924
      4          6           0       26.316633   -1.531153   -3.522536
      5          6           0       24.966268    2.936520   -2.259920
      6          7           0       24.700852   -0.766896    1.423386
      7          6           0       24.052363   -0.064263    2.436209
      8          6           0       23.804100   -0.977292    3.705917
      9          6           0       24.491850   -2.302754    3.283231
     10          6           0       24.894064   -2.102248    1.804914
     11          6           0       25.720723   -2.804315    4.130250
     12          6           0       22.318004   -1.052982    4.247666
     13          6           0       22.129040   -0.589503    5.660410
     14          1           0       21.068407   -1.388246    6.516889
     15          7           0       25.661474   -2.079323   -1.152777
     16          6           0       25.623813   -3.229144   -0.390386
     17          6           0       26.195061   -4.331146   -1.148651
     18          6           0       26.525707   -3.890543   -2.461411
     19          6           0       26.147292   -2.429654   -2.443582
     20          6           0       26.253782   -5.786994   -0.643948
     21          6           0       27.083415   -4.668833   -3.648730
     22          8           0       27.242915   -4.193166   -4.754024
     23          6           0       27.422203   -6.215565   -3.619969
     24          7           0       25.656791    0.628308   -2.609440
     25          6           0       26.149747   -0.122694   -3.585592
     26          6           0       26.460601    0.717202   -4.875575
     27          6           0       25.836916    2.124992   -4.521490
     28          6           0       25.426866    1.899312   -3.034812
     29          6           0       27.968561    0.665088   -5.256086
     30          6           0       24.719583    2.510798   -5.470517
     31          6           0       24.744355    3.976816   -5.899356
     32          7           0       24.690833    1.783704   -0.143652
     33          6           0       24.609282    2.942212   -0.892226
     34          6           0       24.345406    4.016990    0.014267
     35          6           0       24.025621    3.446558    1.271275
     36          6           0       24.254052    2.047301    1.151803
     37          6           0       24.313485    5.458102   -0.328604
     38          6           0       23.514971    3.737950    2.622210
     39          8           0       23.295194    4.786002    3.222362
     40          6           0       23.403317    2.198667    3.369069
     41          6           0       24.181917    2.188147    4.568054
     42          8           0       25.258326    1.644078    4.686808
     43          8           0       23.486364    2.762735    5.607777
     44          6           0       24.278763    2.825167    6.861135
     45          1           0       25.202714   -4.226445    1.387678
     46          1           0       26.779471   -1.895150   -4.441612
     47          1           0       24.897301    3.855551   -2.846762
     48          1           0       24.494431   -0.584961    4.451880
     49          1           0       23.778749   -3.127069    3.296792
     50          1           0       25.613207   -3.885551    4.222136
     51          1           0       25.698767   -2.304127    5.098149
     52          1           0       26.691661   -2.600661    3.678258
     53          1           0       22.005839   -2.088536    4.111741
     54          1           0       21.722599   -0.389511    3.620219
     55          1           0       21.795446    0.449018    5.664584
     56          1           0       23.129647   -0.662444    6.085579
     57          1           0       25.564177   -6.334254   -1.285659
     58          1           0       25.797563   -5.837317    0.344989
     59          1           0       27.229077   -6.271888   -0.701581
     60          1           0       26.518440   -6.750452   -3.326078
     61          1           0       28.363204   -6.433196   -3.113875
     62          1           0       27.769282   -6.433737   -4.629494
     63          1           0       25.917449    0.376919   -5.756990
     64          1           0       26.671007    2.826973   -4.523740
     65          1           0       28.320178    1.686968   -5.401125
     66          1           0       28.177767    0.019045   -6.109081
     67          1           0       28.537554    0.233637   -4.434188
     68          1           0       23.735580    2.286626   -5.060014
     69          1           0       24.685703    1.918875   -6.386483
     70          1           0       25.461734    4.551609   -5.313535
     71          1           0       23.748714    4.370313   -5.692598
     72          1           0       24.873496    4.094427   -6.975386
     73          1           0       24.528378    5.732858   -1.361239
     74          1           0       24.855324    5.969237    0.468081
     75          1           0       23.245011    5.674134   -0.347792
     76          1           0       22.358688    1.996583    3.607451
     77          1           0       25.183209    3.411600    6.697845
     78          1           0       24.442558    1.791093    7.164275
     79          1           0       23.755540    3.334917    7.669203
     80         12           0      -25.414367    0.401298    0.291148
     81          6           0      -23.282171   -2.248066    0.241985
     82          6           0      -22.610762    2.551259    0.452251
     83          6           0      -27.386684    2.895297   -0.730675
     84          6           0      -28.164975   -1.828533   -0.419225
     85          7           0      -23.257108    0.132144    0.364354
     86          6           0      -22.571744   -0.962208    0.327055
     87          6           0      -21.052909   -0.756073    0.667321
     88          6           0      -20.928242    0.775250    1.019003
     89          6           0      -22.372994    1.241932    0.628926
     90          6           0      -20.371772    1.112093    2.403096
     91          6           0      -20.069854   -1.293405   -0.533423
     92          6           0      -20.630196   -1.400015   -1.942470
     93          1           0      -19.693623   -1.458978   -3.149210
     94          7           0      -25.032487    2.439782   -0.092337
     95          6           0      -23.866881    3.144183    0.090889
     96          6           0      -24.058179    4.477058   -0.286256
     97          6           0      -25.442562    4.626981   -0.684323
     98          6           0      -26.029310    3.267377   -0.552220
     99          6           0      -22.970324    5.512325   -0.066704
    100          6           0      -26.069539    5.953464   -1.150330
    101          8           0      -25.332663    6.964370   -1.188839
    102          6           0      -27.434194    6.139050   -1.551228
    103          7           0      -27.506691    0.503358   -0.644359
    104          6           0      -28.054007    1.680725   -0.751602
    105          6           0      -29.580416    1.617844   -1.042970
    106          6           0      -29.851589    0.104947   -0.892686
    107          6           0      -28.428871   -0.525954   -0.607933
    108          6           0      -30.420251    2.417568   -0.113548
    109          6           0      -30.591589   -0.523420   -2.165878
    110          6           0      -32.087841   -0.992736   -1.942093
    111          7           0      -25.767938   -1.618500    0.078660
    112          6           0      -26.899913   -2.405953   -0.166181
    113          6           0      -26.494372   -3.845778   -0.137626
    114          6           0      -25.098049   -3.787240   -0.024675
    115          6           0      -24.687721   -2.424345    0.070400
    116          6           0      -27.316743   -5.033456   -0.268947
    117          6           0      -23.987878   -4.624953   -0.020437
    118          8           0      -23.840665   -5.854994   -0.069067
    119          6           0      -22.772916   -3.691162    0.244872
    120          6           0      -22.052006   -4.190356    1.519617
    121          8           0      -20.872602   -4.473882    1.642773
    122          8           0      -22.908217   -4.295086    2.594435
    123          6           0      -22.355124   -4.796431    3.858156
    124          1           0      -21.684579    3.129463    0.454399
    125          1           0      -28.115665    3.687574   -0.912139
    126          1           0      -29.028741   -2.495013   -0.463366
    127          1           0      -20.887069   -1.254513    1.622761
    128          1           0      -20.301428    1.311048    0.305497
    129          1           0      -21.144612    1.594839    3.000922
    130          1           0      -19.532595    1.806819    2.352313
    131          1           0      -19.952045    0.274924    2.960912
    132          1           0      -19.730452   -2.242246   -0.117291
    133          1           0      -19.201776   -0.666751   -0.739113
    134          1           0      -21.262992   -0.516200   -2.019034
    135          1           0      -21.298670   -2.260787   -1.917195
    136          1           0      -23.177869    6.399182    0.532618
    137          1           0      -22.562375    5.797481   -1.036711
    138          1           0      -22.127131    5.036382    0.433529
    139          1           0      -28.212613    5.943925   -0.813816
    140          1           0      -27.709308    5.405686   -2.308579
    141          1           0      -27.620040    7.093277   -2.043205
    142          1           0      -29.942537    1.965975   -2.010236
    143          1           0      -30.399352   -0.146065    0.015715
    144          1           0      -30.811591    3.346338   -0.528394
    145          1           0      -29.814976    2.825223    0.696910
    146          1           0      -31.249500    1.815030    0.256761
    147          1           0      -30.070182   -1.442579   -2.436480
    148          1           0      -30.697998    0.159540   -3.007611
    149          1           0      -32.708775   -0.636832   -2.763251
    150          1           0      -32.473962   -0.469378   -1.067294
    151          1           0      -32.047123   -2.081314   -1.984316
    152          1           0      -28.276087   -4.744637    0.161041
    153          1           0      -26.894860   -5.858947    0.305481
    154          1           0      -27.288588   -5.307350   -1.323184
    155          1           0      -21.938720   -3.868560   -0.433521
    156          1           0      -23.170247   -5.223709    4.442510
    157          1           0      -21.900895   -4.079388    4.541795
    158          1           0      -21.538529   -5.507577    3.730061
 ---------------------------------------------------------------------

 SCF Done:  E(RwB97XD) =  -4070.57702477     A.U. after   19 cycles

 Excitation energies and oscillator strengths:

 Excited State   1:      Singlet-A      1.6547 eV  749.27 nm  f=0.4300  <S**2>=0.000
     309 -> 315        0.16632
     311 -> 313        0.68664
     309 <- 315        0.11152
 This state for optimization and/or second-order correction.
 Total Energy, E(TD-HF/TD-DFT) =  -4070.51621425
 Copying the excited state density for this state as the 1-particle RhoCI density.

 Excited State   2:      Singlet-A      1.7609 eV  704.11 nm  f=0.3739  <S**2>=0.000
     310 -> 316        0.17860
     312 -> 314        0.68334
     310 <- 316        0.10772

 Excited State   3:      Singlet-A      2.1980 eV  564.07 nm  f=0.1161  <S**2>=0.000
     309 -> 313        0.64043
     311 -> 315       -0.27515

 Excited State   4:      Singlet-A      2.2096 eV  561.13 nm  f=0.1119  <S**2>=0.000
     310 -> 314        0.63747
     312 -> 316       -0.28424

 Excited State   5:      Singlet-A      3.2249 eV  384.46 nm  f=0.0080  <S**2>=0.000
     303 -> 313        0.15852
     307 -> 313        0.66810
     307 -> 317        0.10504

 The electronic state is 1-A.
 Alpha  occ. eigenvalues --  -46.96682 -46.94569 -19.30182 -19.29475 -19.25108
 Alpha  occ. eigenvalues --  -19.24954 -19.24347 -19.24133 -19.24069 -19.22400
 Alpha  occ. eigenvalues --  -14.47820 -14.46888 -14.46509 -14.46325 -14.45193
 Alpha  occ. eigenvalues --  -14.45005 -14.44389 -14.43267 -10.43645 -10.42060
 Alpha  occ. eigenvalues --  -10.40445 -10.39957 -10.38815 -10.38171 -10.37087
 Alpha  occ. eigenvalues --  -10.36657 -10.36161 -10.35927 -10.35349 -10.35343
 Alpha  occ. eigenvalues --  -10.35293 -10.35275 -10.34950 -10.34760 -10.34707
 Alpha  occ. eigenvalues --  -10.34627 -10.34493 -10.34451 -10.34137 -10.33878
 Alpha  occ. eigenvalues --  -10.33735 -10.33534 -10.33377 -10.33069 -10.32958
 Alpha  occ. eigenvalues --  -10.32934 -10.32654 -10.32578 -10.32565 -10.32407
 Alpha  occ. eigenvalues --  -10.32375 -10.32354 -10.32079 -10.32002 -10.31898
 Alpha  occ. eigenvalues --  -10.31845 -10.31745 -10.31655 -10.31629 -10.31608
 Alpha  occ. eigenvalues --  -10.31385 -10.31157 -10.31156 -10.31138 -10.31083
 Alpha  occ. eigenvalues --  -10.31070 -10.30873 -10.30855 -10.30808 -10.30751
 Alpha  occ. eigenvalues --  -10.30682 -10.30646 -10.30582 -10.30291 -10.30267
 Alpha  occ. eigenvalues --  -10.30120 -10.30006 -10.29867 -10.29865 -10.29746
 Alpha  occ. eigenvalues --  -10.29674 -10.29471 -10.29071 -10.28906 -10.28833
 Alpha  occ. eigenvalues --  -10.28781  -3.22555  -3.20534  -1.96115  -1.95705
 Alpha  occ. eigenvalues --   -1.95485  -1.94132  -1.93650  -1.93512  -1.18365
 Alpha  occ. eigenvalues --   -1.17945  -1.13785  -1.11424  -1.11379  -1.09770
 Alpha  occ. eigenvalues --   -1.09618  -1.09545  -1.07070  -1.06527  -1.06071
 Alpha  occ. eigenvalues --   -1.05735  -1.04531  -1.04244  -1.03953  -1.02930
 Alpha  occ. eigenvalues --   -0.95066  -0.93744  -0.91625  -0.91299  -0.90974
 Alpha  occ. eigenvalues --   -0.90924  -0.90343  -0.90283  -0.90000  -0.89699
 Alpha  occ. eigenvalues --   -0.89249  -0.88812  -0.87461  -0.87205  -0.86573
 Alpha  occ. eigenvalues --   -0.86268  -0.86077  -0.85489  -0.84840  -0.84419
 Alpha  occ. eigenvalues --   -0.84403  -0.83460  -0.82987  -0.82650  -0.82279
 Alpha  occ. eigenvalues --   -0.82044  -0.80458  -0.80440  -0.79354  -0.78884
 Alpha  occ. eigenvalues --   -0.78818  -0.78343  -0.78310  -0.77645  -0.77230
 Alpha  occ. eigenvalues --   -0.76668  -0.75421  -0.74201  -0.73956  -0.73278
 Alpha  occ. eigenvalues --   -0.71631  -0.71083  -0.70854  -0.70728  -0.70357
 Alpha  occ. eigenvalues --   -0.69418  -0.69135  -0.68835  -0.67958  -0.67645
 Alpha  occ. eigenvalues --   -0.67517  -0.66841  -0.66732  -0.66592  -0.66555
 Alpha  occ. eigenvalues --   -0.66337  -0.65369  -0.63113  -0.62903  -0.62078
 Alpha  occ. eigenvalues --   -0.62001  -0.61144  -0.60935  -0.60758  -0.60538
 Alpha  occ. eigenvalues --   -0.60023  -0.59931  -0.59737  -0.59243  -0.58996
 Alpha  occ. eigenvalues --   -0.58305  -0.57934  -0.57653  -0.57618  -0.57607
 Alpha  occ. eigenvalues --   -0.56754  -0.56704  -0.56498  -0.56119  -0.55855
 Alpha  occ. eigenvalues --   -0.55605  -0.55444  -0.55224  -0.55213  -0.55156
 Alpha  occ. eigenvalues --   -0.54938  -0.54800  -0.54607  -0.54485  -0.54176
 Alpha  occ. eigenvalues --   -0.54037  -0.53601  -0.53421  -0.53303  -0.53266
 Alpha  occ. eigenvalues --   -0.53030  -0.52851  -0.52764  -0.52616  -0.52491
 Alpha  occ. eigenvalues --   -0.52265  -0.52033  -0.51909  -0.51509  -0.51486
 Alpha  occ. eigenvalues --   -0.51441  -0.51343  -0.51173  -0.50934  -0.50761
 Alpha  occ. eigenvalues --   -0.50621  -0.50551  -0.50484  -0.50261  -0.49950
 Alpha  occ. eigenvalues --   -0.49901  -0.49663  -0.49573  -0.49461  -0.49350
 Alpha  occ. eigenvalues --   -0.49133  -0.48814  -0.48748  -0.48679  -0.48320
 Alpha  occ. eigenvalues --   -0.48115  -0.48111  -0.47903  -0.47861  -0.47669
 Alpha  occ. eigenvalues --   -0.47453  -0.47195  -0.47086  -0.46978  -0.46839
 Alpha  occ. eigenvalues --   -0.46740  -0.46645  -0.46547  -0.46401  -0.46397
 Alpha  occ. eigenvalues --   -0.45949  -0.45863  -0.45755  -0.45582  -0.45464
 Alpha  occ. eigenvalues --   -0.45179  -0.45143  -0.44969  -0.44714  -0.44557
 Alpha  occ. eigenvalues --   -0.44287  -0.44184  -0.44178  -0.44074  -0.43900
 Alpha  occ. eigenvalues --   -0.43879  -0.43426  -0.43392  -0.43121  -0.42881
 Alpha  occ. eigenvalues --   -0.42763  -0.42622  -0.42450  -0.42189  -0.41982
 Alpha  occ. eigenvalues --   -0.41923  -0.41768  -0.41551  -0.41297  -0.40986
 Alpha  occ. eigenvalues --   -0.40680  -0.40587  -0.40115  -0.39809  -0.39638
 Alpha  occ. eigenvalues --   -0.39193  -0.38882  -0.38823  -0.38519  -0.38412
 Alpha  occ. eigenvalues --   -0.38212  -0.37824  -0.36821  -0.36326  -0.36253
 Alpha  occ. eigenvalues --   -0.36152  -0.35769  -0.35318  -0.33902  -0.33802
 Alpha  occ. eigenvalues --   -0.33482  -0.33203  -0.33147  -0.32869  -0.32168
 Alpha  occ. eigenvalues --   -0.32025  -0.31141  -0.30738  -0.26876  -0.26005
 Alpha  occ. eigenvalues --   -0.23483  -0.23141
 Alpha virt. eigenvalues --   -0.07890  -0.06824   0.00023   0.00165   0.01988
 Alpha virt. eigenvalues --    0.02106   0.03803   0.04226   0.04352   0.06031
 Alpha virt. eigenvalues --    0.06935   0.07186   0.07602   0.07925   0.08019

 Mulliken charges:
               1
     1  Mg   0.955395
     2  C    0.013554
     3  C   -0.100359
     4  C   -0.065558
     5  C   -0.066933
     6  N   -0.380793
     7  C   -0.011805
     8  C   -0.051932
     9  C   -0.156872
    10  C    0.113149
    11  C    0.022932
    12  C    0.049686
    13  C   -0.135209
    14  H    0.029594
    15  N   -0.510040
    16  C    0.184374
    17  C   -0.167995
    18  C   -0.051432
    19  C    0.184738
    20  C    0.065767
    21  C    0.037438
    22  O   -0.218197
    23  C   -0.019004
    24  N   -0.317858
    25  C    0.037699
    26  C   -0.121230
    27  C   -0.060561
    28  C    0.021167
    29  C    0.018084
    30  C    0.000728
    31  C   -0.057030
    32  N   -0.463889
    33  C    0.166502
    34  C   -0.208610
    35  C   -0.042171
    36  C    0.161264
    37  C    0.091200
    38  C    0.152399
    39  O   -0.199082
    40  C   -0.162628
    41  C    0.269394
    42  O   -0.250508
    43  O   -0.372307
    44  C    0.150460
    45  H   -0.008642
    46  H    0.020399
    47  H   -0.018276
    48  H    0.051695
    49  H    0.032790
    50  H    0.036886
    51  H    0.043458
    52  H    0.050783
    53  H    0.038841
    54  H    0.034440
    55  H    0.065970
    56  H    0.050555
    57  H    0.052567
    58  H    0.034061
    59  H    0.066433
    60  H    0.061601
    61  H    0.055614
    62  H    0.047368
    63  H    0.040352
    64  H    0.034385
    65  H    0.035212
    66  H    0.050596
    67  H    0.041471
    68  H    0.030961
    69  H    0.027961
    70  H    0.041053
    71  H    0.031104
    72  H    0.041234
    73  H    0.019064
    74  H    0.070159
    75  H    0.044841
    76  H    0.079901
    77  H    0.060079
    78  H    0.049478
    79  H    0.052083
    80  Mg   0.957032
    81  C    0.004006
    82  C   -0.071995
    83  C   -0.044089
    84  C   -0.099282
    85  N   -0.349435
    86  C    0.011242
    87  C   -0.050950
    88  C   -0.100614
    89  C    0.039601
    90  C    0.023927
    91  C   -0.030525
    92  C   -0.101665
    93  H    0.062354
    94  N   -0.458766
    95  C    0.154340
    96  C   -0.150841
    97  C   -0.094563
    98  C    0.205599
    99  C    0.091847
   100  C    0.063032
   101  O   -0.267796
   102  C    0.000211
   103  N   -0.297866
   104  C    0.010911
   105  C   -0.080692
   106  C   -0.046023
   107  C    0.048339
   108  C    0.002554
   109  C   -0.042800
   110  C   -0.065007
   111  N   -0.464659
   112  C    0.133709
   113  C   -0.171298
   114  C   -0.013200
   115  C    0.155532
   116  C    0.081425
   117  C    0.117874
   118  O   -0.220297
   119  C   -0.107987
   120  C    0.242750
   121  O   -0.244096
   122  O   -0.368857
   123  C    0.139734
   124  H    0.011728
   125  H   -0.042739
   126  H    0.000682
   127  H    0.052504
   128  H    0.038604
   129  H    0.039482
   130  H    0.034771
   131  H    0.041349
   132  H    0.057291
   133  H    0.041168
   134  H    0.052225
   135  H    0.036568
   136  H    0.060627
   137  H    0.046871
   138  H    0.000142
   139  H    0.063414
   140  H    0.040847
   141  H    0.054663
   142  H    0.045300
   143  H    0.032489
   144  H    0.028515
   145  H    0.031385
   146  H    0.039486
   147  H    0.036133
   148  H    0.041012
   149  H    0.033303
   150  H    0.036192
   151  H    0.047798
   152  H    0.043719
   153  H    0.066861
   154  H    0.074591
   155  H    0.058559
   156  H    0.052713
   157  H    0.037457
   158  H    0.061575
 Sum of Mulliken charges =  -0.00000

 Dipole moment (field-independent basis, Debye):
    X=             -4.6954    Y=             -4.6269    Z=              1.0002  Tot=              6.6675
 Quadrupole moment (field-independent basis, Debye-Ang):
   XX=           -256.2956   YY=           -559.1458   ZZ=           -488.5529
   XY=           -112.3905   XZ=            -82.5569   YZ=            -25.8575

 Normal termination of Gaussian 16 at Mon Sep 20 12:46:15 2021.
