 Gaussian 16, Revision A.03,
 Gaussian 16:  ES64L-G16RevA.03 25-Dec-2016

 --------------------------------
 #p wB97XD/Def2SVP td=(nstates=5)
 --------------------------------

 --------------------------------
 TDDFT excited states in gaussian
 --------------------------------
 Symbolic Z-matrix:
 Charge =  0 Multiplicity = 1

                         Standard orientation:
 ---------------------------------------------------------------------
 Center     Atomic      Atomic             Coordinates (Angstroms)
 Number     Number       Type             X           Y           Z
 ---------------------------------------------------------------------
      1         12           0        0.722600   -0.066789   -0.482949
      2          6           0       -2.828971    0.404962   -0.367204
      3          6           0        0.245201   -3.314871   -0.422659
      4          6           0        3.955395   -0.266331    0.219657
      5          6           0        0.962385    3.589480   -0.162108
      6          7           0       -1.098413   -1.299334   -0.450883
      7          6           0       -2.455851   -0.929453   -0.372813
      8          6           0       -3.447014   -2.153374   -0.330985
      9          6           0       -2.326487   -3.360644   -0.423438
     10          6           0       -0.970175   -2.663007   -0.450349
     11          6           0       -2.417648   -4.363439    0.805606
     12          6           0       -4.560234   -2.169434   -1.435721
     13          6           0       -5.246786   -3.510593   -1.665050
     14          1           0       -6.736072   -3.545198   -1.275934
     15          7           0        1.949427   -1.599096   -0.245531
     16          6           0        1.629934   -2.936403   -0.266646
     17          6           0        2.793040   -3.784296   -0.111388
     18          6           0        3.885233   -2.845290    0.064702
     19          6           0        3.266352   -1.477624   -0.059698
     20          6           0        2.832106   -5.237544   -0.194584
     21          6           0        5.368421   -3.100286    0.269656
     22          8           0        6.202520   -2.239054    0.286321
     23          6           0        5.727839   -4.536097    0.545729
     24          7           0        2.240416    1.450752    0.030311
     25          6           0        3.523869    1.064455    0.241559
     26          6           0        4.449150    2.294866    0.439185
     27          6           0        3.473578    3.493832    0.174095
     28          6           0        2.136192    2.815792   -0.053166
     29          6           0        5.213337    2.434829    1.799709
     30          6           0        3.831907    4.421805   -1.039860
     31          6           0        4.978480    5.411431   -0.736187
     32          7           0       -0.570871    1.661253   -0.279047
     33          6           0       -0.346406    3.018182   -0.242104
     34          6           0       -1.584426    3.688798   -0.290689
     35          6           0       -2.568688    2.772985   -0.283152
     36          6           0       -1.928740    1.496905   -0.253395
     37          6           0       -1.656138    5.205812   -0.406725
     38          6           0       -4.004445    2.478356   -0.237611
     39          8           0       -4.954497    3.217048   -0.200870
     40          6           0       -4.202710    0.888171   -0.267824
     41          6           0       -4.733528    0.482671    1.070146
     42          8           0       -4.177018    0.205890    2.108763
     43          8           0       -6.102563    0.425571    0.899537
     44          6           0       -6.911361    0.022211    2.074437
     45          1           0        0.189372   -4.402975   -0.351033
     46          1           0        4.972901   -0.402338    0.593932
     47          1           0        1.209509    4.653568   -0.173670
     48          1           0       -3.864412   -2.205516    0.674716
     49          1           0       -2.537305   -3.943576   -1.320317
     50          1           0       -2.344204   -5.388013    0.441306
     51          1           0       -3.267187   -4.293792    1.484444
     52          1           0       -1.527755   -4.277631    1.428411
     53          1           0       -3.985428   -1.789856   -2.281485
     54          1           0       -5.363672   -1.435124   -1.373615
     55          1           0       -4.732555   -4.276437   -1.085086
     56          1           0       -5.286316   -3.701609   -2.737098
     57          1           0        3.434970   -5.345110   -1.096268
     58          1           0        1.827277   -5.655181   -0.259662
     59          1           0        3.338311   -5.782622    0.601868
     60          1           0        5.997672   -5.025807   -0.389843
     61          1           0        5.098880   -5.007073    1.301728
     62          1           0        6.548262   -4.446240    1.257165
     63          1           0        5.071756    2.323520   -0.455539
     64          1           0        3.323847    4.040122    1.105622
     65          1           0        5.015521    3.340190    2.374279
     66          1           0        6.260893    2.556711    1.525163
     67          1           0        5.077709    1.609908    2.499137
     68          1           0        2.960583    5.019755   -1.304615
     69          1           0        4.051374    3.736293   -1.859583
     70          1           0        5.078526    5.559559    0.339232
     71          1           0        4.732722    6.324705   -1.277937
     72          1           0        5.964076    5.061714   -1.044885
     73          1           0       -2.579968    5.520862   -0.892012
     74          1           0       -0.775669    5.557720   -0.944440
     75          1           0       -1.543148    5.666887    0.574721
     76          1           0       -4.856546    0.578416   -1.083431
     77          1           0       -7.793703    0.661700    2.052673
     78          1           0       -6.400733    0.133523    3.030862
     79          1           0       -7.119004   -1.011397    1.795868
 ---------------------------------------------------------------------

 SCF Done:  E(RwB97XD) =  -2035.31315157     A.U. after   19 cycles

 Excitation energies and oscillator strengths:

 Excited State   1:      Singlet-A      1.6367 eV  757.52 nm  f=0.3961  <S**2>=0.000
     155 ->158        -0.18402
     156 ->157         0.68416
     155 <-158        -0.11744
 This state for optimization and/or second-order correction.
 Total Energy, E(TD-HF/TD-DFT) =  -2035.25300315
 Copying the excited state density for this state as the 1-particle RhoCI density.

 Excited State   2:      Singlet-A      2.1546 eV  575.45 nm  f=0.1353  <S**2>=0.000
     155 ->157         0.64888
     156 ->158         0.26857

 Excited State   3:      Singlet-A      3.4571 eV  358.63 nm  f=0.0012  <S**2>=0.000
     153 ->157         0.14291
     154 ->157         0.67101

 Excited State   4:      Singlet-A      3.5849 eV  345.85 nm  f=0.0004  <S**2>=0.000
     152 ->157         0.54603
     152 ->159         0.29297
     152 ->160        -0.20930
     153 ->157        -0.17541

 Excited State   5:      Singlet-A      3.5938 eV  345.00 nm  f=0.2869  <S**2>=0.000
     152 ->157        -0.10108
     153 ->157        -0.39106
     154 ->157         0.13761
     155 ->157        -0.17644
     156 ->158         0.51442

 The electronic state is 1-A.
 Alpha  occ. eigenvalues --  -46.94902 -19.29087 -19.24848 -19.24170 -19.23971
 Alpha  occ. eigenvalues --  -14.46824 -14.45902 -14.44219 -14.43456 -10.42818
 Alpha  occ. eigenvalues --  -10.39303 -10.38725 -10.34968 -10.34939 -10.34888
 Alpha  occ. eigenvalues --  -10.34385 -10.34242 -10.34142 -10.34112 -10.33359
 Alpha  occ. eigenvalues --  -10.33113 -10.32978 -10.32948 -10.32910 -10.32518
 Alpha  occ. eigenvalues --  -10.31806 -10.31700 -10.31146 -10.31046 -10.30928
 Alpha  occ. eigenvalues --  -10.30890 -10.30860 -10.30853 -10.30849 -10.30788
 Alpha  occ. eigenvalues --  -10.30654 -10.30040 -10.29733 -10.29599 -10.29594
 Alpha  occ. eigenvalues --  -10.29482 -10.29383 -10.28753  -3.20892  -1.94478
 Alpha  occ. eigenvalues --   -1.93994  -1.93881  -1.17858  -1.13587  -1.13050
 Alpha  occ. eigenvalues --   -1.09664  -1.05823  -1.05343  -1.04501  -1.03617
 Alpha  occ. eigenvalues --   -0.95003  -0.90831  -0.90143  -0.89972  -0.89100
 Alpha  occ. eigenvalues --   -0.88765  -0.87977  -0.85824  -0.85086  -0.84072
 Alpha  occ. eigenvalues --   -0.83964  -0.82662  -0.82042  -0.80082  -0.78886
 Alpha  occ. eigenvalues --   -0.78570  -0.77475  -0.76762  -0.74763  -0.73281
 Alpha  occ. eigenvalues --   -0.71571  -0.70671  -0.69728  -0.68969  -0.67010
 Alpha  occ. eigenvalues --   -0.66570  -0.66357  -0.65898  -0.63469  -0.62076
 Alpha  occ. eigenvalues --   -0.61470  -0.60810  -0.60264  -0.59831  -0.58904
 Alpha  occ. eigenvalues --   -0.58098  -0.57670  -0.56990  -0.56377  -0.56201
 Alpha  occ. eigenvalues --   -0.56061  -0.55613  -0.54622  -0.54310  -0.53899
 Alpha  occ. eigenvalues --   -0.53562  -0.53289  -0.52940  -0.52453  -0.52102
 Alpha  occ. eigenvalues --   -0.51729  -0.51618  -0.51421  -0.51067  -0.50769
 Alpha  occ. eigenvalues --   -0.50347  -0.49919  -0.49744  -0.49665  -0.48969
 Alpha  occ. eigenvalues --   -0.48679  -0.48289  -0.47830  -0.47671  -0.47362
 Alpha  occ. eigenvalues --   -0.47221  -0.47120  -0.46967  -0.46786  -0.46657
 Alpha  occ. eigenvalues --   -0.45963  -0.45783  -0.45463  -0.45105  -0.44681
 Alpha  occ. eigenvalues --   -0.44482  -0.43998  -0.43800  -0.43586  -0.43052
 Alpha  occ. eigenvalues --   -0.42814  -0.42699  -0.42398  -0.41226  -0.40709
 Alpha  occ. eigenvalues --   -0.39993  -0.39680  -0.38998  -0.38515  -0.38461
 Alpha  occ. eigenvalues --   -0.37739  -0.36571  -0.35932  -0.34875  -0.33480
 Alpha  occ. eigenvalues --   -0.32838  -0.32578  -0.32296  -0.31928  -0.25506
 Alpha  occ. eigenvalues --   -0.22768
 Alpha virt. eigenvalues --   -0.06896   0.00795   0.02934   0.04721   0.05650
 Alpha virt. eigenvalues --    0.07489   0.08136   0.08817   0.10284   0.10844
 Alpha virt. eigenvalues --    0.11775   0.12551   0.12957   0.13682   0.14109

 Mulliken charges:
               1
     1  Mg   0.977000
     2  C   -0.038661
     3  C   -0.071964
     4  C   -0.068504
     5  C   -0.096332
     6  N   -0.383128
     7  C   -0.009804
     8  C   -0.026907
     9  C   -0.121264
    10  C    0.109311
    11  C   -0.013776
    12  C   -0.019314
    13  C   -0.123161
    14  H    0.029484
    15  N   -0.491587
    16  C    0.111775
    17  C   -0.136145
    18  C   -0.128091
    19  C    0.164643
    20  C    0.081662
    21  C    0.041143
    22  O   -0.208216
    23  C   -0.027515
    24  N   -0.338866
    25  C    0.031176
    26  C   -0.031745
    27  C   -0.109730
    28  C    0.026897
    29  C    0.019861
    30  C   -0.035786
    31  C   -0.029303
    32  N   -0.401382
    33  C    0.165396
    34  C   -0.241978
    35  C    0.013952
    36  C    0.138255
    37  C    0.096270
    38  C    0.119947
    39  O   -0.173067
    40  C   -0.118293
    41  C    0.285148
    42  O   -0.233265
    43  O   -0.386710
    44  C    0.128149
    45  H   -0.028685
    46  H    0.025177
    47  H    0.001813
    48  H    0.050860
    49  H    0.047767
    50  H    0.031107
    51  H    0.050479
    52  H    0.042805
    53  H    0.033676
    54  H    0.059769
    55  H    0.061124
    56  H    0.063942
    57  H    0.057823
    58  H    0.039862
    59  H    0.047083
    60  H    0.079759
    61  H    0.047363
    62  H    0.039943
    63  H    0.038797
    64  H    0.032544
    65  H    0.032688
    66  H    0.039122
    67  H    0.051687
    68  H    0.028456
    69  H    0.032737
    70  H    0.031901
    71  H    0.042767
    72  H    0.037471
    73  H    0.058702
    74  H    0.027626
    75  H    0.045774
    76  H    0.081014
    77  H    0.063688
    78  H    0.072798
    79  H    0.054984
 Sum of Mulliken charges =  -0.00000

 Dipole moment (field-independent basis, Debye):
    X=              1.0337    Y=             -3.2714    Z=             -1.2599  Tot=              3.6548
 Quadrupole moment (field-independent basis, Debye-Ang):
   XX=           -265.4655   YY=           -226.6018   ZZ=           -252.9060
   XY=             22.6890   XZ=             -0.7204   YZ=             -0.2863

 Normal termination of Gaussian 16 at Sun Sep 19 07:10:22 2021.
