 Gaussian 16, Revision A.03,
 Gaussian 16:  ES64L-G16RevA.03 25-Dec-2016

 --------------------------------
 #p wB97XD/Def2SVP td=(nstates=5)
 --------------------------------

 --------------------------------
 TDDFT excited states in gaussian
 --------------------------------
 Symbolic Z-matrix:
 Charge =  0 Multiplicity = 1

                         Standard orientation:
 ---------------------------------------------------------------------
 Center     Atomic      Atomic             Coordinates (Angstroms)
 Number     Number       Type             X           Y           Z
 ---------------------------------------------------------------------
      1         12           0       -0.721465    0.083827    0.271087
      2          6           0        2.776786    0.265344    0.189044
      3          6           0       -0.444416   -3.420093   -0.155274
      4          6           0       -4.101628   -0.087705   -0.001969
      5          6           0       -0.839268    3.518800   -0.057708
      6          7           0        0.965991   -1.351960    0.217015
      7          6           0        2.311061   -1.010956    0.385829
      8          6           0        3.126041   -2.301278    0.759386
      9          6           0        2.097614   -3.417995    0.545808
     10          6           0        0.774056   -2.689968    0.123170
     11          6           0        2.588404   -4.403900   -0.548428
     12          6           0        3.666673   -2.142131    2.175150
     13          6           0        4.949496   -2.872852    2.536539
     14          1           0        5.460237   -3.971892    1.577557
     15          7           0       -2.122708   -1.498682   -0.021537
     16          6           0       -1.803942   -2.857762   -0.204180
     17          6           0       -3.008227   -3.640320   -0.420282
     18          6           0       -4.136315   -2.734302   -0.319397
     19          6           0       -3.471896   -1.374552   -0.125376
     20          6           0       -3.038745   -5.170751   -0.520739
     21          6           0       -5.628890   -2.995230   -0.385549
     22          8           0       -6.423369   -2.073438   -0.255915
     23          6           0       -6.104151   -4.397304   -0.394217
     24          7           0       -2.248696    1.558569    0.073989
     25          6           0       -3.570113    1.228018    0.074507
     26          6           0       -4.431391    2.515057    0.162590
     27          6           0       -3.385897    3.695949    0.211477
     28          6           0       -2.048256    2.912091    0.184385
     29          6           0       -5.403095    2.591750   -1.028639
     30          6           0       -3.453816    4.576945    1.487152
     31          6           0       -4.180613    5.877666    1.159732
     32          7           0        0.627990    1.657240   -0.013494
     33          6           0        0.475543    2.990035   -0.204284
     34          6           0        1.806222    3.541272   -0.558114
     35          6           0        2.732270    2.568550   -0.318944
     36          6           0        1.948417    1.421889   -0.031989
     37          6           0        1.991754    5.010571   -0.897926
     38          6           0        4.158823    2.224650   -0.250950
     39          8           0        5.135894    2.924898   -0.487227
     40          6           0        4.200642    0.765958    0.161652
     41          6           0        5.093628    0.109321   -0.806092
     42          8           0        4.883634   -0.252063   -1.971871
     43          8           0        6.335257    0.000402   -0.214022
     44          6           0        7.395029   -0.560724   -1.023435
     45          1           0       -0.318353   -4.503463   -0.204493
     46          1           0       -5.182730   -0.241308    0.010189
     47          1           0       -0.964422    4.586777   -0.248407
     48          1           0        3.895199   -2.276202   -0.013487
     49          1           0        2.114012   -4.014231    1.458079
     50          1           0        2.019245   -4.379338   -1.477860
     51          1           0        2.308798   -5.398808   -0.203063
     52          1           0        3.634064   -4.242470   -0.809692
     53          1           0        2.824880   -2.413592    2.812895
     54          1           0        3.791959   -1.080618    2.385403
     55          1           0        4.844615   -3.281516    3.540665
     56          1           0        5.653556   -2.042073    2.595215
     57          1           0       -2.051693   -5.630326   -0.575346
     58          1           0       -3.588488   -5.472511   -1.413268
     59          1           0       -3.636800   -5.559816    0.302466
     60          1           0       -5.836663   -4.859619    0.556276
     61          1           0       -5.816089   -4.903724   -1.315414
     62          1           0       -7.192626   -4.455720   -0.391611
     63          1           0       -5.046791    2.436222    1.058494
     64          1           0       -3.515579    4.226824   -0.732539
     65          1           0       -5.336704    3.479881   -1.656395
     66          1           0       -6.342610    2.640868   -0.478601
     67          1           0       -5.294705    1.787389   -1.755666
     68          1           0       -2.465886    4.971386    1.725538
     69          1           0       -3.935389    4.087974    2.334180
     70          1           0       -4.892393    5.985581    1.978017
     71          1           0       -4.833350    5.819278    0.289078
     72          1           0       -3.547390    6.761917    1.082217
     73          1           0        1.072441    5.564781   -1.088946
     74          1           0        2.647412    5.163243   -1.754316
     75          1           0        2.351383    5.522145   -0.004448
     76          1           0        4.592346    0.721452    1.177346
     77          1           0        7.408051   -0.018817   -1.969439
     78          1           0        7.266969   -1.622788   -1.233680
     79          1           0        8.310925   -0.163636   -0.587081
 ---------------------------------------------------------------------

 SCF Done:  E(RwB97XD) =  -2035.29939996     A.U. after   20 cycles

 Excitation energies and oscillator strengths:

 Excited State   1:      Singlet-A      1.6258 eV  762.60 nm  f=0.3929  <S**2>=0.000
     155 ->158        -0.17896
     156 ->157         0.68465
     155 <-158        -0.11346
 This state for optimization and/or second-order correction.
 Total Energy, E(TD-HF/TD-DFT) =  -2035.23965263
 Copying the excited state density for this state as the 1-particle RhoCI density.

 Excited State   2:      Singlet-A      2.1420 eV  578.82 nm  f=0.1181  <S**2>=0.000
     155 ->157         0.64311
     156 ->158         0.27655

 Excited State   3:      Singlet-A      3.4350 eV  360.95 nm  f=0.0956  <S**2>=0.000
     153 ->157        -0.35751
     154 ->157         0.46979
     155 ->157        -0.10449
     156 ->158         0.35026

 Excited State   4:      Singlet-A      3.5852 eV  345.82 nm  f=0.5338  <S**2>=0.000
     154 ->157        -0.40475
     155 ->157        -0.24440
     156 ->158         0.51276

 Excited State   5:      Singlet-A      3.6697 eV  337.86 nm  f=0.0126  <S**2>=0.000
     150 ->157         0.53587
     150 ->158        -0.18449
     150 ->159        -0.26749
     150 ->160         0.25730

 The electronic state is 1-A.
 Alpha  occ. eigenvalues --  -46.95456 -19.29674 -19.24729 -19.24313 -19.24283
 Alpha  occ. eigenvalues --  -14.46791 -14.46334 -14.44759 -14.43748 -10.43204
 Alpha  occ. eigenvalues --  -10.39484 -10.39383 -10.36081 -10.35313 -10.35274
 Alpha  occ. eigenvalues --  -10.35114 -10.34683 -10.34661 -10.34043 -10.33782
 Alpha  occ. eigenvalues --  -10.33294 -10.33005 -10.32537 -10.32419 -10.32291
 Alpha  occ. eigenvalues --  -10.32246 -10.31828 -10.31811 -10.31761 -10.31642
 Alpha  occ. eigenvalues --  -10.31610 -10.31598 -10.31442 -10.30716 -10.30525
 Alpha  occ. eigenvalues --  -10.30398 -10.30332 -10.30207 -10.29402 -10.29324
 Alpha  occ. eigenvalues --  -10.29126 -10.28805 -10.28754  -3.21306  -1.94906
 Alpha  occ. eigenvalues --   -1.94385  -1.94306  -1.17947  -1.12719  -1.12209
 Alpha  occ. eigenvalues --   -1.09043  -1.06300  -1.04796  -1.04642  -1.03700
 Alpha  occ. eigenvalues --   -0.95324  -0.91117  -0.90630  -0.89908  -0.89039
 Alpha  occ. eigenvalues --   -0.88801  -0.87516  -0.86253  -0.85752  -0.84622
 Alpha  occ. eigenvalues --   -0.84337  -0.82837  -0.81992  -0.80099  -0.79188
 Alpha  occ. eigenvalues --   -0.78708  -0.77854  -0.76486  -0.74511  -0.72988
 Alpha  occ. eigenvalues --   -0.71039  -0.70401  -0.69871  -0.69083  -0.67325
 Alpha  occ. eigenvalues --   -0.66831  -0.66649  -0.65886  -0.64107  -0.62155
 Alpha  occ. eigenvalues --   -0.61601  -0.61057  -0.60749  -0.60338  -0.59646
 Alpha  occ. eigenvalues --   -0.57851  -0.57716  -0.57019  -0.56720  -0.55564
 Alpha  occ. eigenvalues --   -0.55491  -0.55319  -0.55241  -0.54855  -0.54755
 Alpha  occ. eigenvalues --   -0.53811  -0.53662  -0.53317  -0.52696  -0.52324
 Alpha  occ. eigenvalues --   -0.51833  -0.51555  -0.51221  -0.51195  -0.50957
 Alpha  occ. eigenvalues --   -0.50562  -0.50073  -0.49790  -0.49346  -0.49108
 Alpha  occ. eigenvalues --   -0.48643  -0.48305  -0.47957  -0.47825  -0.47165
 Alpha  occ. eigenvalues --   -0.46900  -0.46700  -0.46383  -0.46313  -0.46133
 Alpha  occ. eigenvalues --   -0.45528  -0.45357  -0.45141  -0.44975  -0.44801
 Alpha  occ. eigenvalues --   -0.44618  -0.44250  -0.43751  -0.43430  -0.43193
 Alpha  occ. eigenvalues --   -0.42997  -0.42311  -0.41868  -0.40822  -0.40347
 Alpha  occ. eigenvalues --   -0.39912  -0.39886  -0.39675  -0.38612  -0.38306
 Alpha  occ. eigenvalues --   -0.37764  -0.36302  -0.36053  -0.34875  -0.33557
 Alpha  occ. eigenvalues --   -0.33510  -0.33388  -0.32459  -0.32174  -0.25728
 Alpha  occ. eigenvalues --   -0.22740
 Alpha virt. eigenvalues --   -0.07018   0.00459   0.02231   0.03988   0.05530
 Alpha virt. eigenvalues --    0.07384   0.07785   0.08213   0.09615   0.10458
 Alpha virt. eigenvalues --    0.11499   0.12458   0.12590   0.13017   0.13651

 Mulliken charges:
               1
     1  Mg   0.955735
     2  C   -0.016188
     3  C   -0.071956
     4  C   -0.061429
     5  C   -0.075414
     6  N   -0.370254
     7  C   -0.076356
     8  C   -0.019349
     9  C   -0.128245
    10  C    0.112480
    11  C    0.004210
    12  C    0.005704
    13  C   -0.087411
    14  H    0.044132
    15  N   -0.442780
    16  C    0.155633
    17  C   -0.170656
    18  C   -0.084751
    19  C    0.094733
    20  C    0.080008
    21  C    0.058836
    22  O   -0.231351
    23  C   -0.015398
    24  N   -0.372820
    25  C    0.091419
    26  C   -0.107444
    27  C   -0.062942
    28  C    0.055559
    29  C    0.009036
    30  C    0.009710
    31  C   -0.064271
    32  N   -0.405660
    33  C    0.114582
    34  C   -0.207908
    35  C   -0.016062
    36  C    0.137588
    37  C    0.069688
    38  C    0.119922
    39  O   -0.196958
    40  C   -0.032964
    41  C    0.261256
    42  O   -0.260794
    43  O   -0.368887
    44  C    0.150896
    45  H   -0.002612
    46  H    0.022743
    47  H   -0.005016
    48  H    0.035179
    49  H    0.041293
    50  H    0.033192
    51  H    0.028443
    52  H    0.050197
    53  H    0.018843
    54  H    0.026429
    55  H    0.050757
    56  H    0.056873
    57  H    0.044931
    58  H    0.041689
    59  H    0.050637
    60  H    0.068842
    61  H    0.058580
    62  H    0.044853
    63  H    0.042178
    64  H    0.041185
    65  H    0.028407
    66  H    0.042389
    67  H    0.055140
    68  H    0.035733
    69  H    0.040895
    70  H    0.024677
    71  H    0.026462
    72  H    0.047219
    73  H    0.017821
    74  H    0.060226
    75  H    0.049676
    76  H    0.082126
    77  H    0.044811
    78  H    0.059114
    79  H    0.053207
 Sum of Mulliken charges =  -0.00000

 Dipole moment (field-independent basis, Debye):
    X=             -2.0489    Y=             -3.3417    Z=              3.2049  Tot=              5.0633
 Quadrupole moment (field-independent basis, Debye-Ang):
   XX=           -266.9765   YY=           -224.1209   ZZ=           -256.5842
   XY=            -15.5340   XZ=              7.0695   YZ=              1.5434

 Normal termination of Gaussian 16 at Mon Sep 20 01:09:30 2021.
