 Gaussian 16, Revision A.03,
 Gaussian 16:  ES64L-G16RevA.03 25-Dec-2016

 --------------------------------
 #p wB97XD/Def2SVP td=(nstates=5)
 --------------------------------

 --------------------------------
 TDDFT excited states in gaussian
 --------------------------------
 Symbolic Z-matrix:
 Charge =  0 Multiplicity = 1

                         Standard orientation:
 ---------------------------------------------------------------------
 Center     Atomic      Atomic             Coordinates (Angstroms)
 Number     Number       Type             X           Y           Z
 ---------------------------------------------------------------------
      1         12           0       -0.714159    0.251769    0.021574
      2          6           0        2.803975    0.285946    0.257656
      3          6           0       -0.583187   -3.173416   -0.228166
      4          6           0       -4.056551    0.138705   -0.288512
      5          6           0       -0.750421    3.735701   -0.301056
      6          7           0        0.937024   -1.175130    0.158814
      7          6           0        2.256807   -1.043144    0.256490
      8          6           0        3.078639   -2.348052    0.305241
      9          6           0        1.899260   -3.335541   -0.153172
     10          6           0        0.653244   -2.484812   -0.116321
     11          6           0        2.118007   -3.952677   -1.513182
     12          6           0        3.670465   -2.713139    1.776982
     13          6           0        4.936791   -3.572502    1.718989
     14          1           0        6.185394   -2.905498    2.351417
     15          7           0       -2.187168   -1.322027   -0.064103
     16          6           0       -1.880226   -2.697686   -0.208806
     17          6           0       -3.117785   -3.421073   -0.022020
     18          6           0       -4.148500   -2.485588   -0.012598
     19          6           0       -3.503512   -1.138175   -0.103500
     20          6           0       -3.231727   -4.932495   -0.085757
     21          6           0       -5.644730   -2.642745    0.133544
     22          8           0       -6.340756   -1.671591    0.194655
     23          6           0       -6.292639   -3.983188    0.281751
     24          7           0       -2.181047    1.683238   -0.451945
     25          6           0       -3.517314    1.407362   -0.453246
     26          6           0       -4.244240    2.769988   -0.625251
     27          6           0       -3.301624    3.823751   -0.072091
     28          6           0       -1.959413    3.087151   -0.292686
     29          6           0       -4.479881    3.033148   -2.111878
     30          6           0       -3.564942    4.216056    1.334596
     31          6           0       -3.795171    3.139176    2.365814
     32          7           0        0.689945    1.758793    0.011607
     33          6           0        0.559810    3.126978   -0.135415
     34          6           0        1.893664    3.741575   -0.050454
     35          6           0        2.775954    2.661743    0.127323
     36          6           0        2.020916    1.521145    0.157882
     37          6           0        2.205777    5.169444   -0.183571
     38          6           0        4.130110    2.283947    0.431341
     39          8           0        5.165554    2.989015    0.614928
     40          6           0        4.160982    0.687466    0.555229
     41          6           0        5.102389    0.196790   -0.514030
     42          8           0        5.051731    0.574374   -1.646975
     43          8           0        6.028792   -0.800263   -0.104652
     44          6           0        6.729243   -1.511163   -1.217222
     45          1           0       -0.559488   -4.256503   -0.361031
     46          1           0       -5.129824    0.143644   -0.491593
     47          1           0       -0.702271    4.823850   -0.219817
     48          1           0        3.944960   -2.268311   -0.352625
     49          1           0        1.897109   -4.110467    0.614364
     50          1           0        2.534654   -4.943265   -1.331570
     51          1           0        2.708485   -3.319657   -2.175882
     52          1           0        1.108687   -4.155144   -1.871338
     53          1           0        2.925426   -3.268363    2.347688
     54          1           0        3.852246   -1.805741    2.353257
     55          1           0        5.020875   -3.759517    0.648251
     56          1           0        4.782282   -4.561310    2.150407
     57          1           0       -2.214781   -5.283685    0.084984
     58          1           0       -3.473952   -5.110280   -1.133139
     59          1           0       -3.901421   -5.332566    0.675799
     60          1           0       -5.967309   -4.225504    1.293600
     61          1           0       -5.919692   -4.746294   -0.400854
     62          1           0       -7.376242   -3.891776    0.199743
     63          1           0       -5.232050    2.830857   -0.169808
     64          1           0       -3.317276    4.781876   -0.590503
     65          1           0       -3.831858    3.726362   -2.648280
     66          1           0       -5.505213    3.387024   -2.218929
     67          1           0       -4.436658    2.075603   -2.632107
     68          1           0       -4.385777    4.929533    1.411019
     69          1           0       -2.664959    4.757479    1.625536
     70          1           0       -2.927518    3.174534    3.025249
     71          1           0       -3.929197    2.085220    2.120468
     72          1           0       -4.649084    3.433976    2.975547
     73          1           0        2.045166    5.455255   -1.223044
     74          1           0        3.238744    5.240096    0.156956
     75          1           0        1.522752    5.784269    0.404116
     76          1           0        4.463638    0.501044    1.585806
     77          1           0        7.527575   -0.888182   -1.620414
     78          1           0        6.061975   -1.798425   -2.031109
     79          1           0        7.275646   -2.411815   -0.938739
 ---------------------------------------------------------------------

 SCF Done:  E(RwB97XD) =  -2035.30052511     A.U. after   19 cycles

 Excitation energies and oscillator strengths:

 Excited State   1:      Singlet-A      1.6527 eV  750.17 nm  f=0.3695  <S**2>=0.000
     155 ->158        -0.17789
     156 ->157         0.68543
     155 <-158        -0.11381
 This state for optimization and/or second-order correction.
 Total Energy, E(TD-HF/TD-DFT) =  -2035.23978769
 Copying the excited state density for this state as the 1-particle RhoCI density.

 Excited State   2:      Singlet-A      2.1347 eV  580.81 nm  f=0.1156  <S**2>=0.000
     155 ->157         0.64476
     156 ->158         0.27138

 Excited State   3:      Singlet-A      3.3779 eV  367.05 nm  f=0.0300  <S**2>=0.000
     150 ->157         0.15967
     152 ->157         0.38289
     153 ->157        -0.36777
     154 ->157        -0.34713
     156 ->158        -0.19112

 Excited State   4:      Singlet-A      3.4764 eV  356.65 nm  f=0.0583  <S**2>=0.000
     150 ->157         0.15766
     152 ->157         0.30276
     153 ->157         0.12994
     153 ->159         0.14982
     153 ->160        -0.10284
     154 ->157         0.43113
     156 ->158        -0.32396

 Excited State   5:      Singlet-A      3.4992 eV  354.32 nm  f=0.0074  <S**2>=0.000
     152 ->157         0.24203
     152 ->159         0.17681
     152 ->160        -0.12639
     153 ->157         0.39412
     153 ->159         0.22099
     153 ->160        -0.17810
     154 ->157        -0.33014
     156 ->158         0.13923

 The electronic state is 1-A.
 Alpha  occ. eigenvalues --  -46.94958 -19.29715 -19.24937 -19.24149 -19.23276
 Alpha  occ. eigenvalues --  -14.48035 -14.45931 -14.44343 -14.43626 -10.43238
 Alpha  occ. eigenvalues --  -10.39185 -10.38755 -10.35948 -10.35451 -10.35367
 Alpha  occ. eigenvalues --  -10.35101 -10.35065 -10.34755 -10.34518 -10.33663
 Alpha  occ. eigenvalues --  -10.33345 -10.32958 -10.32781 -10.32520 -10.32322
 Alpha  occ. eigenvalues --  -10.32321 -10.32313 -10.32251 -10.32190 -10.31705
 Alpha  occ. eigenvalues --  -10.31178 -10.31150 -10.31142 -10.30705 -10.30618
 Alpha  occ. eigenvalues --  -10.30501 -10.30303 -10.29666 -10.29295 -10.28961
 Alpha  occ. eigenvalues --  -10.28921 -10.28391 -10.28274  -3.20891  -1.94503
 Alpha  occ. eigenvalues --   -1.93991  -1.93877  -1.17733  -1.14382  -1.09569
 Alpha  occ. eigenvalues --   -1.08847  -1.07321  -1.05635  -1.04922  -1.03762
 Alpha  occ. eigenvalues --   -0.94919  -0.91996  -0.91323  -0.90773  -0.89813
 Alpha  occ. eigenvalues --   -0.88851  -0.88110  -0.86615  -0.85424  -0.84589
 Alpha  occ. eigenvalues --   -0.84429  -0.83047  -0.81870  -0.80931  -0.79258
 Alpha  occ. eigenvalues --   -0.79006  -0.78213  -0.76942  -0.74432  -0.73312
 Alpha  occ. eigenvalues --   -0.71610  -0.70849  -0.69822  -0.69099  -0.67785
 Alpha  occ. eigenvalues --   -0.66964  -0.66207  -0.65338  -0.63757  -0.62421
 Alpha  occ. eigenvalues --   -0.61912  -0.61155  -0.60959  -0.60542  -0.59597
 Alpha  occ. eigenvalues --   -0.58425  -0.57760  -0.56707  -0.56447  -0.56008
 Alpha  occ. eigenvalues --   -0.55945  -0.55679  -0.55603  -0.54990  -0.54360
 Alpha  occ. eigenvalues --   -0.53814  -0.53629  -0.53452  -0.52749  -0.52627
 Alpha  occ. eigenvalues --   -0.52202  -0.51916  -0.51629  -0.51546  -0.51085
 Alpha  occ. eigenvalues --   -0.51033  -0.50274  -0.50158  -0.49686  -0.49590
 Alpha  occ. eigenvalues --   -0.49092  -0.48673  -0.48276  -0.47802  -0.47463
 Alpha  occ. eigenvalues --   -0.47335  -0.47115  -0.46920  -0.46240  -0.46090
 Alpha  occ. eigenvalues --   -0.45650  -0.45444  -0.45137  -0.45041  -0.44779
 Alpha  occ. eigenvalues --   -0.44468  -0.44404  -0.43750  -0.43496  -0.42958
 Alpha  occ. eigenvalues --   -0.42899  -0.42290  -0.42163  -0.41655  -0.41426
 Alpha  occ. eigenvalues --   -0.40313  -0.39686  -0.39289  -0.39093  -0.38384
 Alpha  occ. eigenvalues --   -0.38229  -0.36629  -0.36508  -0.35411  -0.33914
 Alpha  occ. eigenvalues --   -0.33379  -0.32341  -0.32151  -0.31456  -0.26083
 Alpha  occ. eigenvalues --   -0.23213
 Alpha virt. eigenvalues --   -0.07303   0.00179   0.02474   0.04290   0.06256
 Alpha virt. eigenvalues --    0.07140   0.07711   0.08087   0.08888   0.10236
 Alpha virt. eigenvalues --    0.11175   0.11901   0.12600   0.12731   0.13336

 Mulliken charges:
               1
     1  Mg   0.953893
     2  C   -0.042943
     3  C   -0.110356
     4  C   -0.074507
     5  C   -0.071302
     6  N   -0.321059
     7  C   -0.004079
     8  C   -0.076451
     9  C   -0.141377
    10  C    0.116728
    11  C    0.056684
    12  C    0.009027
    13  C   -0.101666
    14  H    0.060716
    15  N   -0.444603
    16  C    0.147166
    17  C   -0.177214
    18  C   -0.058208
    19  C    0.148257
    20  C    0.068256
    21  C    0.023118
    22  O   -0.209937
    23  C   -0.009767
    24  N   -0.406344
    25  C    0.080483
    26  C   -0.094131
    27  C   -0.044079
    28  C    0.108023
    29  C    0.034242
    30  C    0.007528
    31  C   -0.069546
    32  N   -0.442724
    33  C    0.083800
    34  C   -0.209090
    35  C    0.006999
    36  C    0.127393
    37  C    0.079120
    38  C    0.099155
    39  O   -0.251492
    40  C   -0.045871
    41  C    0.263491
    42  O   -0.210408
    43  O   -0.401540
    44  C    0.135678
    45  H    0.006478
    46  H    0.021248
    47  H   -0.000368
    48  H    0.038166
    49  H    0.035964
    50  H    0.032104
    51  H    0.057752
    52  H    0.022856
    53  H    0.027420
    54  H    0.042870
    55  H    0.027444
    56  H    0.044590
    57  H    0.032544
    58  H    0.076098
    59  H    0.059625
    60  H    0.059852
    61  H    0.052676
    62  H    0.061960
    63  H    0.025014
    64  H    0.018256
    65  H    0.044999
    66  H    0.032948
    67  H    0.031279
    68  H    0.032133
    69  H    0.016187
    70  H    0.030681
    71  H    0.056731
    72  H    0.029941
    73  H    0.053936
    74  H    0.066202
    75  H    0.035067
    76  H    0.077696
    77  H    0.056931
    78  H    0.049876
    79  H    0.051782
 Sum of Mulliken charges =  -0.00000

 Dipole moment (field-independent basis, Debye):
    X=             -3.7581    Y=             -6.1836    Z=              0.4536  Tot=              7.2502
 Quadrupole moment (field-independent basis, Debye-Ang):
   XX=           -279.4150   YY=           -221.5969   ZZ=           -257.4200
   XY=            -25.2496   XZ=             -1.3937   YZ=              1.9858

 Normal termination of Gaussian 16 at Sat Sep 18 13:44:32 2021.
