 Gaussian 16, Revision A.03,
 Gaussian 16:  ES64L-G16RevA.03 25-Dec-2016

 --------------------------------
 #p wB97XD/Def2SVP td=(nstates=5)
 --------------------------------

 --------------------------------
 TDDFT excited states in gaussian
 --------------------------------
 Symbolic Z-matrix:
 Charge =  0 Multiplicity = 1

                         Standard orientation:
 ---------------------------------------------------------------------
 Center     Atomic      Atomic             Coordinates (Angstroms)
 Number     Number       Type             X           Y           Z
 ---------------------------------------------------------------------
      1         12           0      -12.760220   -0.455203    0.349350
      2          6           0      -13.138420    2.551028   -1.196818
      3          6           0      -11.435628    1.070978    3.133792
      4          6           0      -12.276680   -3.526815    1.688064
      5          6           0      -13.670910   -2.006767   -2.692861
      6          7           0      -12.129849    1.579931    0.813079
      7          6           0      -12.689925    2.634962    0.163255
      8          6           0      -12.605160    3.914155    0.924830
      9          6           0      -11.799507    3.397135    2.226614
     10          6           0      -11.773340    1.911897    2.071942
     11          6           0      -10.328624    4.007865    2.324286
     12          6           0      -14.086141    4.399222    1.285728
     13          6           0      -14.284888    5.887945    1.578669
     14          1           0      -13.133300    6.886639    1.854271
     15          7           0      -12.066896   -1.179825    2.184731
     16          6           0      -11.537008   -0.366929    3.200067
     17          6           0      -11.127563   -1.244081    4.272288
     18          6           0      -11.392761   -2.572053    3.880471
     19          6           0      -11.980761   -2.438915    2.554670
     20          6           0      -10.570079   -0.678441    5.599344
     21          6           0      -11.027330   -3.929500    4.680734
     22          8           0      -11.426620   -5.044575    4.322067
     23          6           0      -10.201443   -3.974279    5.955739
     24          7           0      -13.027748   -2.513559   -0.419796
     25          6           0      -12.708902   -3.578459    0.354098
     26          6           0      -12.687635   -4.872303   -0.458089
     27          6           0      -13.474279   -4.417395   -1.818505
     28          6           0      -13.512932   -2.891543   -1.639903
     29          6           0      -11.261354   -5.568645   -0.635423
     30          6           0      -15.013786   -4.878988   -1.946630
     31          6           0      -15.499798   -5.539819   -3.223441
     32          7           0      -13.358181    0.077213   -1.579851
     33          6           0      -13.675415   -0.615119   -2.687938
     34          6           0      -14.112483    0.326444   -3.765919
     35          6           0      -13.951018    1.589737   -3.149082
     36          6           0      -13.373506    1.352268   -1.877845
     37          6           0      -14.639889    0.069282   -5.133130
     38          6           0      -14.125865    2.965088   -3.431365
     39          8           0      -14.547739    3.530192   -4.461245
     40          6           0      -13.601726    3.659310   -2.176833
     41          6           0      -12.490730    4.507658   -2.543130
     42          8           0      -11.475337    4.257976   -3.113881
     43          8           0      -12.755212    5.754316   -1.983896
     44          6           0      -11.785794    6.910786   -2.094264
     45          1           0      -11.223310    1.487479    4.120258
     46          1           0      -12.027562   -4.511362    2.090249
     47          1           0      -13.771466   -2.402706   -3.704973
     48          1           0      -12.107206    4.792046    0.513662
     49          1           0      -12.323693    3.657383    3.146160
     50          1           0       -9.971089    4.229153    3.329654
     51          1           0      -10.247201    4.851381    1.638927
     52          1           0       -9.654753    3.241016    1.940876
     53          1           0      -14.488067    3.854413    2.140199
     54          1           0      -14.690340    4.129256    0.419237
     55          1           0      -14.975736    5.928664    2.421744
     56          1           0      -14.856560    6.327033    0.761940
     57          1           0      -10.571129    0.409855    5.658817
     58          1           0       -9.562371   -1.078293    5.707278
     59          1           0      -11.171252   -1.103112    6.403632
     60          1           0      -10.840028   -3.512770    6.708036
     61          1           0       -9.385553   -3.251230    5.950844
     62          1           0       -9.770879   -4.965532    6.096152
     63          1           0      -13.331256   -5.590765    0.050920
     64          1           0      -12.947152   -4.763383   -2.707839
     65          1           0      -11.000371   -5.674394   -1.688686
     66          1           0      -11.256173   -6.540914   -0.144029
     67          1           0      -10.473305   -4.941585   -0.217758
     68          1           0      -15.701288   -4.070305   -1.699125
     69          1           0      -15.183636   -5.582525   -1.132149
     70          1           0      -16.332470   -4.937018   -3.584243
     71          1           0      -15.786721   -6.581394   -3.081574
     72          1           0      -14.728876   -5.464261   -3.991576
     73          1           0      -14.793161   -0.982102   -5.375880
     74          1           0      -13.960286    0.458783   -5.891551
     75          1           0      -15.596343    0.582148   -5.232454
     76          1           0      -14.365658    4.269152   -1.693666
     77          1           0      -10.876387    6.596126   -2.606647
     78          1           0      -11.480648    7.228018   -1.096196
     79          1           0      -12.318425    7.681423   -2.651446
     80         12           0       12.351873   -0.738969   -0.341320
     81          6           0       14.272488    2.116488   -0.201593
     82          6           0        9.601417    1.174268    0.900774
     83          6           0       10.559802   -3.476567   -0.103186
     84          6           0       15.111365   -2.595299   -1.391454
     85          7           0       12.062727    1.402036    0.246972
     86          6           0       12.970668    2.380676    0.187953
     87          6           0       12.283289    3.732074    0.569928
     88          6           0       10.813293    3.325250    1.044119
     89          6           0       10.826082    1.811543    0.756107
     90          6           0       10.502529    3.465058    2.521962
     91          6           0       12.332822    4.811951   -0.521432
     92          6           0       12.858537    6.128664    0.024998
     93          1           0       12.461541    7.467139   -0.614529
     94          7           0       10.332081   -1.068475    0.236821
     95          6           0        9.367195   -0.197520    0.653932
     96          6           0        8.141321   -0.826616    0.869293
     97          6           0        8.390580   -2.233962    0.706258
     98          6           0        9.818688   -2.321336    0.243191
     99          6           0        6.865134   -0.097409    1.263600
    100          6           0        7.462632   -3.407232    0.975884
    101          8           0        7.935458   -4.559561    0.932032
    102          6           0        6.063984   -3.215816    1.400725
    103          7           0       12.790398   -2.686993   -0.727215
    104          6           0       11.857613   -3.698119   -0.620842
    105          6           0       12.406130   -5.133649   -0.960520
    106          6           0       13.786686   -4.726538   -1.632090
    107          6           0       13.927008   -3.251201   -1.214704
    108          6           0       12.602451   -6.229346    0.160344
    109          6           0       14.020353   -5.081290   -3.170564
    110          6           0       13.337283   -4.171826   -4.157477
    111          7           0       14.301073   -0.425293   -0.598626
    112          6           0       15.340373   -1.231527   -1.022278
    113          6           0       16.554820   -0.530297   -1.119098
    114          6           0       16.154723    0.781825   -0.841138
    115          6           0       14.764676    0.821921   -0.528329
    116          6           0       17.794587   -1.168403   -1.582508
    117          6           0       16.736340    2.055303   -0.655599
    118          8           0       17.932267    2.350926   -0.697928
    119          6           0       15.528362    3.048400   -0.243863
    120          6           0       15.835103    3.663907    1.035308
    121          8           0       15.781942    3.139504    2.124239
    122          8           0       16.307168    4.891435    0.856012
    123          6           0       16.785621    5.625345    1.988385
    124          1           0        8.782446    1.755318    1.328872
    125          1           0       10.094451   -4.463662   -0.073159
    126          1           0       15.949585   -3.213823   -1.719122
    127          1           0       12.871649    4.001820    1.446372
    128          1           0       10.147976    4.032880    0.548171
    129          1           0       11.291737    3.936090    3.108716
    130          1           0       10.371328    2.481929    2.973210
    131          1           0        9.520107    3.920146    2.651401
    132          1           0       11.386372    4.996476   -1.029947
    133          1           0       12.987766    4.448274   -1.312846
    134          1           0       13.937039    6.106391   -0.135473
    135          1           0       12.576346    6.148678    1.077478
    136          1           0        6.965963    0.981924    1.149233
    137          1           0        6.709463   -0.220377    2.335622
    138          1           0        5.995714   -0.534781    0.774191
    139          1           0        5.685083   -4.107873    1.900767
    140          1           0        5.472529   -3.094960    0.492629
    141          1           0        5.985689   -2.363109    2.074727
    142          1           0       11.874361   -5.593501   -1.794113
    143          1           0       14.576654   -5.329170   -1.185624
    144          1           0       12.277083   -5.796752    1.105618
    145          1           0       13.669628   -6.347577    0.352267
    146          1           0       12.146754   -7.208877    0.012701
    147          1           0       13.563101   -6.058557   -3.323446
    148          1           0       15.067014   -5.212659   -3.442391
    149          1           0       13.968557   -4.140892   -5.044844
    150          1           0       13.052274   -3.156823   -3.883487
    151          1           0       12.377613   -4.635292   -4.386294
    152          1           0       17.725853   -1.989537   -2.295581
    153          1           0       18.530714   -1.399601   -0.813541
    154          1           0       18.276169   -0.331524   -2.087649
    155          1           0       15.456232    3.817674   -1.012461
    156          1           0       15.997484    6.205134    2.470145
    157          1           0       17.506693    6.350350    1.611312
    158          1           0       17.208152    4.939320    2.722665
 ---------------------------------------------------------------------

 SCF Done:  E(RwB97XD) =  -4070.62218561     A.U. after   19 cycles

 Excitation energies and oscillator strengths:

 Excited State   1:      Singlet-A      1.6474 eV  752.61 nm  f=0.4221  <S**2>=0.000
     309 -> 316       -0.17768
     311 -> 313        0.68288
     309 <- 316       -0.11414
 This state for optimization and/or second-order correction.
 Total Energy, E(TD-HF/TD-DFT) =  -4070.56164483
 Copying the excited state density for this state as the 1-particle RhoCI density.

 Excited State   2:      Singlet-A      1.6819 eV  737.16 nm  f=0.3889  <S**2>=0.000
     310 -> 315        0.19732
     312 -> 314        0.67907
     310 <- 315        0.11907

 Excited State   3:      Singlet-A      2.1650 eV  572.68 nm  f=0.1385  <S**2>=0.000
     309 -> 313        0.64985
     311 -> 316        0.25653

 Excited State   4:      Singlet-A      2.1740 eV  570.30 nm  f=0.1130  <S**2>=0.000
     310 -> 314        0.63544
     312 -> 315       -0.29809

 Excited State   5:      Singlet-A      3.6518 eV  339.51 nm  f=0.0000  <S**2>=0.000
     312 -> 313        0.70699

 The electronic state is 1-A.
 Alpha  occ. eigenvalues --  -46.95806 -46.94042 -19.30019 -19.29016 -19.24611
 Alpha  occ. eigenvalues --  -19.24283 -19.23977 -19.23656 -19.23543 -19.23301
 Alpha  occ. eigenvalues --  -14.47125 -14.46902 -14.46792 -14.46357 -14.44329
 Alpha  occ. eigenvalues --  -14.44209 -14.44059 -14.43564 -10.42569 -10.42098
 Alpha  occ. eigenvalues --  -10.40294 -10.38850 -10.38609 -10.38531 -10.35877
 Alpha  occ. eigenvalues --  -10.35747 -10.35567 -10.35247 -10.35165 -10.34935
 Alpha  occ. eigenvalues --  -10.34810 -10.34749 -10.34742 -10.34285 -10.34144
 Alpha  occ. eigenvalues --  -10.34118 -10.33968 -10.33801 -10.33419 -10.33139
 Alpha  occ. eigenvalues --  -10.33065 -10.33055 -10.32984 -10.32877 -10.32616
 Alpha  occ. eigenvalues --  -10.32490 -10.32466 -10.32442 -10.32420 -10.32410
 Alpha  occ. eigenvalues --  -10.32401 -10.32366 -10.32310 -10.32101 -10.32088
 Alpha  occ. eigenvalues --  -10.32025 -10.31948 -10.31747 -10.31675 -10.31648
 Alpha  occ. eigenvalues --  -10.31640 -10.31629 -10.31507 -10.31482 -10.31395
 Alpha  occ. eigenvalues --  -10.31392 -10.31239 -10.30718 -10.30595 -10.30547
 Alpha  occ. eigenvalues --  -10.30527 -10.30299 -10.30264 -10.30191 -10.30177
 Alpha  occ. eigenvalues --  -10.30118 -10.30112 -10.30034 -10.30027 -10.29989
 Alpha  occ. eigenvalues --  -10.29626 -10.29436 -10.29226 -10.28913 -10.28763
 Alpha  occ. eigenvalues --  -10.28671  -3.21663  -3.20234  -1.95273  -1.94766
 Alpha  occ. eigenvalues --   -1.94642  -1.93829  -1.93381  -1.93212  -1.20102
 Alpha  occ. eigenvalues --   -1.17871  -1.11792  -1.11088  -1.10730  -1.10672
 Alpha  occ. eigenvalues --   -1.09964  -1.09501  -1.07700  -1.06610  -1.06551
 Alpha  occ. eigenvalues --   -1.05759  -1.05664  -1.05336  -1.04725  -1.04586
 Alpha  occ. eigenvalues --   -0.95592  -0.94051  -0.91283  -0.90652  -0.90618
 Alpha  occ. eigenvalues --   -0.90210  -0.90209  -0.89585  -0.89511  -0.89449
 Alpha  occ. eigenvalues --   -0.89067  -0.88865  -0.88733  -0.88237  -0.86526
 Alpha  occ. eigenvalues --   -0.86354  -0.85755  -0.85430  -0.84836  -0.84330
 Alpha  occ. eigenvalues --   -0.84325  -0.83596  -0.83206  -0.83151  -0.82571
 Alpha  occ. eigenvalues --   -0.82346  -0.80447  -0.80319  -0.79481  -0.79256
 Alpha  occ. eigenvalues --   -0.79139  -0.78837  -0.78205  -0.77887  -0.77220
 Alpha  occ. eigenvalues --   -0.77184  -0.75441  -0.74683  -0.74037  -0.73427
 Alpha  occ. eigenvalues --   -0.71559  -0.71356  -0.70833  -0.70639  -0.70233
 Alpha  occ. eigenvalues --   -0.69751  -0.69092  -0.68039  -0.67345  -0.67323
 Alpha  occ. eigenvalues --   -0.67242  -0.66923  -0.66591  -0.66573  -0.66355
 Alpha  occ. eigenvalues --   -0.66326  -0.64305  -0.63918  -0.62543  -0.62425
 Alpha  occ. eigenvalues --   -0.61991  -0.61967  -0.61254  -0.60997  -0.60879
 Alpha  occ. eigenvalues --   -0.60517  -0.60498  -0.60308  -0.59814  -0.59670
 Alpha  occ. eigenvalues --   -0.58508  -0.58100  -0.58095  -0.57589  -0.57315
 Alpha  occ. eigenvalues --   -0.57100  -0.56590  -0.56298  -0.56223  -0.55784
 Alpha  occ. eigenvalues --   -0.55458  -0.55135  -0.55036  -0.54971  -0.54782
 Alpha  occ. eigenvalues --   -0.54704  -0.54454  -0.54236  -0.54189  -0.54156
 Alpha  occ. eigenvalues --   -0.54022  -0.53677  -0.53669  -0.53620  -0.53427
 Alpha  occ. eigenvalues --   -0.53286  -0.52836  -0.52560  -0.52276  -0.52219
 Alpha  occ. eigenvalues --   -0.51933  -0.51799  -0.51686  -0.51608  -0.51444
 Alpha  occ. eigenvalues --   -0.51422  -0.51160  -0.51145  -0.51082  -0.50902
 Alpha  occ. eigenvalues --   -0.50874  -0.50330  -0.50320  -0.50167  -0.50069
 Alpha  occ. eigenvalues --   -0.49962  -0.49713  -0.49629  -0.49318  -0.49291
 Alpha  occ. eigenvalues --   -0.48946  -0.48813  -0.48581  -0.48473  -0.48457
 Alpha  occ. eigenvalues --   -0.48313  -0.48220  -0.48167  -0.47950  -0.47590
 Alpha  occ. eigenvalues --   -0.47444  -0.47350  -0.47207  -0.47059  -0.46864
 Alpha  occ. eigenvalues --   -0.46714  -0.46520  -0.46344  -0.46309  -0.46299
 Alpha  occ. eigenvalues --   -0.45980  -0.45904  -0.45843  -0.45723  -0.45564
 Alpha  occ. eigenvalues --   -0.45439  -0.45204  -0.45148  -0.44670  -0.44613
 Alpha  occ. eigenvalues --   -0.44488  -0.44398  -0.43924  -0.43756  -0.43646
 Alpha  occ. eigenvalues --   -0.43528  -0.43425  -0.43373  -0.43335  -0.43141
 Alpha  occ. eigenvalues --   -0.43015  -0.42999  -0.42909  -0.42830  -0.42385
 Alpha  occ. eigenvalues --   -0.42179  -0.41725  -0.41417  -0.41112  -0.40861
 Alpha  occ. eigenvalues --   -0.40393  -0.40107  -0.39824  -0.39662  -0.39604
 Alpha  occ. eigenvalues --   -0.39172  -0.38843  -0.38649  -0.38632  -0.38338
 Alpha  occ. eigenvalues --   -0.38200  -0.38116  -0.36548  -0.36301  -0.36232
 Alpha  occ. eigenvalues --   -0.35801  -0.35485  -0.35386  -0.33675  -0.33464
 Alpha  occ. eigenvalues --   -0.33211  -0.33093  -0.32721  -0.32556  -0.32439
 Alpha  occ. eigenvalues --   -0.32305  -0.32224  -0.31947  -0.26048  -0.25829
 Alpha  occ. eigenvalues --   -0.23291  -0.23015
 Alpha virt. eigenvalues --   -0.07467  -0.06940   0.00114   0.00495   0.01964
 Alpha virt. eigenvalues --    0.02531   0.04366   0.04579   0.05752   0.06217
 Alpha virt. eigenvalues --    0.07241   0.07920   0.07933   0.08244   0.08286

 Mulliken charges:
               1
     1  Mg   0.951044
     2  C   -0.080277
     3  C   -0.065373
     4  C   -0.054644
     5  C   -0.099672
     6  N   -0.357920
     7  C    0.029381
     8  C   -0.079467
     9  C   -0.109733
    10  C    0.090115
    11  C    0.022839
    12  C   -0.013575
    13  C   -0.098906
    14  H    0.035518
    15  N   -0.438933
    16  C    0.108707
    17  C   -0.179386
    18  C   -0.083502
    19  C    0.122466
    20  C    0.062382
    21  C    0.076005
    22  O   -0.249545
    23  C    0.010334
    24  N   -0.332133
    25  C    0.030822
    26  C   -0.062600
    27  C   -0.122873
    28  C    0.110980
    29  C    0.017305
    30  C   -0.023537
    31  C   -0.037703
    32  N   -0.390471
    33  C    0.092478
    34  C   -0.157172
    35  C   -0.058428
    36  C    0.195073
    37  C    0.082433
    38  C    0.129074
    39  O   -0.229445
    40  C   -0.055354
    41  C    0.260445
    42  O   -0.202836
    43  O   -0.416546
    44  C    0.130328
    45  H   -0.007834
    46  H    0.015315
    47  H    0.000114
    48  H    0.042177
    49  H    0.032330
    50  H    0.044358
    51  H    0.032914
    52  H    0.038296
    53  H    0.033316
    54  H    0.032527
    55  H    0.043099
    56  H    0.053532
    57  H    0.042640
    58  H    0.051209
    59  H    0.048600
    60  H    0.054988
    61  H    0.026175
    62  H    0.075658
    63  H    0.037608
    64  H    0.035317
    65  H    0.033683
    66  H    0.050560
    67  H    0.045313
    68  H    0.038441
    69  H    0.020935
    70  H    0.037156
    71  H    0.048443
    72  H    0.024407
    73  H    0.023703
    74  H    0.065340
    75  H    0.063835
    76  H    0.069710
    77  H    0.065804
    78  H    0.053314
    79  H    0.069324
    80  Mg   0.992433
    81  C   -0.044629
    82  C   -0.105153
    83  C   -0.051612
    84  C   -0.104035
    85  N   -0.349850
    86  C   -0.028277
    87  C   -0.021390
    88  C   -0.162746
    89  C    0.116104
    90  C    0.006248
    91  C    0.037895
    92  C   -0.145925
    93  H    0.028861
    94  N   -0.425458
    95  C    0.160235
    96  C   -0.175078
    97  C   -0.074128
    98  C    0.171437
    99  C    0.066421
   100  C    0.038145
   101  O   -0.260168
   102  C    0.004613
   103  N   -0.396222
   104  C    0.027615
   105  C   -0.070144
   106  C   -0.076114
   107  C    0.087057
   108  C    0.029264
   109  C   -0.031237
   110  C   -0.058241
   111  N   -0.470252
   112  C    0.132114
   113  C   -0.134417
   114  C   -0.037970
   115  C    0.195284
   116  C    0.072376
   117  C    0.096089
   118  O   -0.219393
   119  C   -0.078186
   120  C    0.235444
   121  O   -0.251518
   122  O   -0.328045
   123  C    0.135863
   124  H   -0.002189
   125  H    0.021886
   126  H   -0.004692
   127  H    0.033149
   128  H    0.042999
   129  H    0.043765
   130  H    0.040358
   131  H    0.035115
   132  H    0.039618
   133  H    0.030084
   134  H    0.063233
   135  H    0.056065
   136  H    0.042440
   137  H    0.056892
   138  H    0.056495
   139  H    0.055814
   140  H    0.067191
   141  H    0.044868
   142  H    0.038471
   143  H    0.027403
   144  H    0.039833
   145  H    0.027313
   146  H    0.056794
   147  H    0.029209
   148  H    0.032962
   149  H    0.037828
   150  H    0.047637
   151  H    0.028810
   152  H    0.046038
   153  H    0.055571
   154  H    0.045413
   155  H    0.065586
   156  H    0.042509
   157  H    0.055551
   158  H    0.066672
 Sum of Mulliken charges =  -0.00000

 Dipole moment (field-independent basis, Debye):
    X=             -4.0282    Y=              0.5746    Z=              2.7544  Tot=              4.9135
 Quadrupole moment (field-independent basis, Debye-Ang):
   XX=           -617.4435   YY=           -484.9033   ZZ=           -508.6600
   XY=            -19.2985   XZ=            -66.1044   YZ=             52.0508

 Normal termination of Gaussian 16 at Sun Sep 19 13:33:22 2021.
