 Gaussian 16, Revision A.03,
 Gaussian 16:  ES64L-G16RevA.03 25-Dec-2016

 --------------------------------
 #p wB97XD/Def2SVP td=(nstates=5)
 --------------------------------

 --------------------------------
 TDDFT excited states in gaussian
 --------------------------------
 Symbolic Z-matrix:
 Charge =  0 Multiplicity = 1

                         Standard orientation:
 ---------------------------------------------------------------------
 Center     Atomic      Atomic             Coordinates (Angstroms)
 Number     Number       Type             X           Y           Z
 ---------------------------------------------------------------------
      1         12           0       10.956030   -0.025474   -0.277732
      2          6           0        8.006316    0.664347    1.563480
      3          6           0       10.269548   -3.329913    0.092460
      4          6           0       13.269057   -0.628417   -2.695530
      5          6           0       11.185459    3.360756   -0.980265
      6          7           0        9.177677   -1.091869    0.620503
      7          6           0        8.140652   -0.662373    1.405483
      8          6           0        7.357284   -1.793076    1.961176
      9          6           0        8.323527   -3.049405    1.736030
     10          6           0        9.300162   -2.487170    0.760383
     11          6           0        8.948166   -3.524726    3.037907
     12          6           0        6.000544   -1.806580    1.239583
     13          6           0        4.691537   -1.777826    2.136013
     14          1           0        3.585858   -2.866382    1.990336
     15          7           0       11.740315   -1.705119   -1.180084
     16          6           0       11.366039   -3.002276   -0.802832
     17          6           0       12.263864   -3.916708   -1.442108
     18          6           0       13.147751   -3.179339   -2.300392
     19          6           0       12.784364   -1.764050   -2.022095
     20          6           0       12.191597   -5.410841   -1.154462
     21          6           0       14.222672   -3.697495   -3.229540
     22          8           0       14.412791   -4.944550   -3.133694
     23          6           0       15.015452   -2.929331   -4.324636
     24          7           0       12.107031    1.195480   -1.671465
     25          6           0       13.016832    0.705899   -2.542375
     26          6           0       13.677015    1.803640   -3.418068
     27          6           0       13.077529    3.102578   -2.776935
     28          6           0       11.997087    2.500535   -1.760527
     29          6           0       15.188112    1.697761   -3.316481
     30          6           0       12.431372    4.053946   -3.737221
     31          6           0       13.170906    5.354677   -3.895694
     32          7           0       10.012621    1.682352    0.274720
     33          6           0       10.207349    3.037593   -0.020523
     34          6           0        9.445546    3.854076    0.778905
     35          6           0        8.582766    2.965859    1.452924
     36          6           0        8.916533    1.674018    1.052705
     37          6           0        9.677930    5.343286    0.922438
     38          6           0        7.519797    2.898076    2.490730
     39          8           0        7.018694    3.779917    3.116616
     40          6           0        7.107372    1.377560    2.476100
     41          6           0        6.875832    0.969790    3.914764
     42          8           0        5.767985    0.812226    4.427885
     43          8           0        8.112206    0.745353    4.567648
     44          6           0        7.940305    0.227437    5.924647
     45          1           0       10.191062   -4.379529    0.384190
     46          1           0       14.086351   -0.770607   -3.406488
     47          1           0       11.055583    4.390001   -1.319328
     48          1           0        7.185972   -1.627078    3.024829
     49          1           0        7.727648   -3.866187    1.329601
     50          1           0        9.205681   -2.710361    3.713713
     51          1           0        9.902794   -3.997932    2.805578
     52          1           0        8.358760   -4.279237    3.558830
     53          1           0        5.977607   -2.704161    0.621753
     54          1           0        5.898220   -1.032608    0.478924
     55          1           0        4.273503   -0.820920    1.822403
     56          1           0        4.942230   -1.581197    3.177745
     57          1           0       11.173282   -5.783040   -1.266838
     58          1           0       12.479604   -5.530464   -0.110097
     59          1           0       12.743591   -6.078974   -1.816949
     60          1           0       15.658717   -2.267816   -3.745246
     61          1           0       14.308825   -2.360559   -4.929128
     62          1           0       15.569709   -3.595925   -4.985893
     63          1           0       13.434224    1.732772   -4.478017
     64          1           0       13.816928    3.570866   -2.127754
     65          1           0       15.460725    0.662018   -3.519714
     66          1           0       15.478670    1.965134   -2.300008
     67          1           0       15.812351    2.378293   -3.894296
     68          1           0       11.427721    4.359490   -3.441529
     69          1           0       12.264540    3.690147   -4.750893
     70          1           0       13.364708    5.501193   -4.957558
     71          1           0       14.159136    5.337660   -3.436115
     72          1           0       12.665554    6.213595   -3.452843
     73          1           0        9.168991    5.638534    1.840560
     74          1           0        9.272352    5.908282    0.083499
     75          1           0       10.761378    5.449401    0.972284
     76          1           0        6.098104    1.425301    2.065566
     77          1           0        8.807208   -0.363499    6.220546
     78          1           0        7.140335   -0.510167    5.970239
     79          1           0        7.723535    1.006836    6.655678
     80         12           0      -10.769757    0.059427   -0.521714
     81          6           0       -7.981551   -0.739837    1.405621
     82          6           0      -10.234489    3.394430    0.131046
     83          6           0      -13.648214    0.645526   -2.187042
     84          6           0      -11.446073   -3.438917   -0.793545
     85          7           0       -9.345760    1.137717    0.719666
     86          6           0       -8.277315    0.634845    1.395662
     87          6           0       -7.411556    1.754491    1.987726
     88          6           0       -8.287547    3.042479    1.655968
     89          6           0       -9.375003    2.462147    0.745729
     90          6           0       -8.881286    3.670785    2.910986
     91          6           0       -6.005156    1.960777    1.320543
     92          6           0       -4.909564    2.537222    2.179210
     93          1           0       -5.249352    3.186685    3.445493
     94          7           0      -11.724354    1.759529   -1.029368
     95          6           0      -11.336425    3.059284   -0.647103
     96          6           0      -12.197877    3.962844   -1.363708
     97          6           0      -13.166176    3.222199   -2.087673
     98          6           0      -12.877876    1.798505   -1.785564
     99          6           0      -12.190356    5.460959   -1.146941
    100          6           0      -14.237048    3.653900   -2.999457
    101          8           0      -15.114871    2.915554   -3.392697
    102          6           0      -14.388644    5.169470   -3.387500
    103          7           0      -12.299442   -1.214069   -1.553700
    104          6           0      -13.359044   -0.716229   -2.117708
    105          6           0      -14.296935   -1.837237   -2.658302
    106          6           0      -13.589219   -3.130761   -2.297878
    107          6           0      -12.375036   -2.622936   -1.439801
    108          6           0      -15.786059   -1.634968   -2.106201
    109          6           0      -13.207873   -3.977178   -3.530777
    110          6           0      -14.197775   -5.128322   -3.947739
    111          7           0       -9.837566   -1.689944   -0.106334
    112          6           0      -10.219858   -3.045026   -0.266310
    113          6           0       -9.228232   -3.919504    0.232970
    114          6           0       -8.364086   -3.011438    0.980530
    115          6           0       -8.799904   -1.689388    0.679388
    116          6           0       -9.334166   -5.430993    0.321314
    117          6           0       -7.260318   -3.044766    1.867538
    118          8           0       -6.582557   -3.966785    2.303648
    119          6           0       -6.895554   -1.438105    2.125504
    120          6           0       -6.857431   -1.280812    3.617272
    121          8           0       -7.805939   -1.523635    4.370809
    122          8           0       -5.558039   -0.946856    4.101952
    123          6           0       -5.438865   -0.784605    5.584765
    124          1           0      -10.005604    4.433138    0.381237
    125          1           0      -14.645193    0.911008   -2.543814
    126          1           0      -11.576819   -4.518403   -0.890302
    127          1           0       -7.359100    1.561619    3.059474
    128          1           0       -7.715440    3.830493    1.166419
    129          1           0       -8.394325    3.293181    3.809681
    130          1           0       -9.966512    3.576086    2.957455
    131          1           0       -8.641012    4.727302    3.030127
    132          1           0       -6.150371    2.585614    0.439988
    133          1           0       -5.723713    0.998746    0.891750
    134          1           0       -4.452289    3.343946    1.606747
    135          1           0       -4.187246    1.753280    2.406929
    136          1           0      -13.100402    5.831012   -0.674858
    137          1           0      -12.013969    5.939214   -2.111313
    138          1           0      -11.417399    5.845778   -0.481890
    139          1           0      -14.920527    5.635073   -2.557388
    140          1           0      -15.079493    5.274770   -4.224116
    141          1           0      -13.413778    5.644625   -3.489885
    142          1           0      -14.302916   -1.650445   -3.732323
    143          1           0      -14.155059   -3.713079   -1.572301
    144          1           0      -16.124322   -2.527311   -1.579692
    145          1           0      -16.532134   -1.528475   -2.893934
    146          1           0      -15.706924   -0.793532   -1.416619
    147          1           0      -12.242292   -4.427264   -3.297501
    148          1           0      -13.055772   -3.277084   -4.352395
    149          1           0      -13.941190   -6.011289   -3.361326
    150          1           0      -14.299294   -5.381159   -5.003311
    151          1           0      -15.126659   -4.749440   -3.522786
    152          1           0       -9.004930   -5.758991   -0.664301
    153          1           0      -10.363292   -5.749316    0.483400
    154          1           0       -8.883372   -5.899105    1.197333
    155          1           0       -5.945492   -1.212573    1.639549
    156          1           0       -5.652853   -1.715398    6.108823
    157          1           0       -6.037779   -0.015034    6.072486
    158          1           0       -4.368305   -0.589238    5.646656
 ---------------------------------------------------------------------

 SCF Done:  E(RwB97XD) =  -4070.63673245     A.U. after   19 cycles

 Excitation energies and oscillator strengths:

 Excited State   1:      Singlet-A      1.6247 eV  763.10 nm  f=0.3412  <S**2>=0.000
     309 -> 315       -0.17953
     311 -> 313        0.68462
     309 <- 315       -0.11739
 This state for optimization and/or second-order correction.
 Total Energy, E(TD-HF/TD-DFT) =  -4070.57702409
 Copying the excited state density for this state as the 1-particle RhoCI density.

 Excited State   2:      Singlet-A      1.6915 eV  732.98 nm  f=0.3855  <S**2>=0.000
     310 -> 316        0.17788
     312 -> 314        0.68390
     310 <- 316        0.11248

 Excited State   3:      Singlet-A      2.1627 eV  573.29 nm  f=0.1753  <S**2>=0.000
     309 -> 313        0.63586
     310 -> 314       -0.11869
     311 -> 315        0.26511

 Excited State   4:      Singlet-A      2.1730 eV  570.56 nm  f=0.1284  <S**2>=0.000
     309 -> 313        0.11719
     310 -> 314        0.63627
     312 -> 316       -0.25880

 Excited State   5:      Singlet-A      3.2325 eV  383.56 nm  f=0.0020  <S**2>=0.000
     305 -> 313       -0.24659
     305 -> 317        0.10130
     306 -> 313        0.63605

 The electronic state is 1-A.
 Alpha  occ. eigenvalues --  -46.95344 -46.94234 -19.30837 -19.29187 -19.25943
 Alpha  occ. eigenvalues --  -19.24876 -19.24286 -19.24212 -19.23349 -19.23092
 Alpha  occ. eigenvalues --  -14.47169 -14.46971 -14.46807 -14.46146 -14.44753
 Alpha  occ. eigenvalues --  -14.44684 -14.43808 -14.43596 -10.44227 -10.42757
 Alpha  occ. eigenvalues --  -10.39662 -10.39484 -10.39427 -10.38186 -10.36040
 Alpha  occ. eigenvalues --  -10.35783 -10.35589 -10.35377 -10.35234 -10.35107
 Alpha  occ. eigenvalues --  -10.34879 -10.34773 -10.34725 -10.34724 -10.34715
 Alpha  occ. eigenvalues --  -10.34703 -10.34575 -10.34525 -10.33874 -10.33044
 Alpha  occ. eigenvalues --  -10.32850 -10.32712 -10.32697 -10.32679 -10.32540
 Alpha  occ. eigenvalues --  -10.32472 -10.32439 -10.32410 -10.32350 -10.32217
 Alpha  occ. eigenvalues --  -10.32164 -10.32088 -10.32032 -10.31958 -10.31924
 Alpha  occ. eigenvalues --  -10.31847 -10.31846 -10.31763 -10.31699 -10.31688
 Alpha  occ. eigenvalues --  -10.31583 -10.31546 -10.31439 -10.31403 -10.31380
 Alpha  occ. eigenvalues --  -10.31244 -10.31071 -10.30853 -10.30798 -10.30684
 Alpha  occ. eigenvalues --  -10.30625 -10.30409 -10.30371 -10.30360 -10.30206
 Alpha  occ. eigenvalues --  -10.30203 -10.30187 -10.29879 -10.29808 -10.29598
 Alpha  occ. eigenvalues --  -10.29594 -10.29542 -10.29291 -10.29118 -10.29018
 Alpha  occ. eigenvalues --  -10.28390  -3.21349  -3.20342  -1.94919  -1.94477
 Alpha  occ. eigenvalues --   -1.94322  -1.93951  -1.93464  -1.93333  -1.17732
 Alpha  occ. eigenvalues --   -1.15408  -1.14277  -1.13331  -1.10686  -1.10148
 Alpha  occ. eigenvalues --   -1.09840  -1.07842  -1.07246  -1.07087  -1.06278
 Alpha  occ. eigenvalues --   -1.05847  -1.05378  -1.05294  -1.04790  -1.04441
 Alpha  occ. eigenvalues --   -0.95271  -0.93914  -0.91780  -0.91248  -0.91110
 Alpha  occ. eigenvalues --   -0.90907  -0.90708  -0.90250  -0.89771  -0.89687
 Alpha  occ. eigenvalues --   -0.89308  -0.88958  -0.88088  -0.87894  -0.86761
 Alpha  occ. eigenvalues --   -0.86193  -0.86102  -0.84786  -0.84542  -0.84019
 Alpha  occ. eigenvalues --   -0.83845  -0.83352  -0.82643  -0.82436  -0.82233
 Alpha  occ. eigenvalues --   -0.81842  -0.80704  -0.79762  -0.79369  -0.79079
 Alpha  occ. eigenvalues --   -0.78784  -0.78635  -0.78405  -0.77649  -0.77447
 Alpha  occ. eigenvalues --   -0.76894  -0.75510  -0.75010  -0.74193  -0.73497
 Alpha  occ. eigenvalues --   -0.71460  -0.71357  -0.70917  -0.70819  -0.69817
 Alpha  occ. eigenvalues --   -0.69617  -0.69232  -0.69185  -0.68240  -0.67644
 Alpha  occ. eigenvalues --   -0.67572  -0.67364  -0.67087  -0.66929  -0.66860
 Alpha  occ. eigenvalues --   -0.66501  -0.65096  -0.63239  -0.62519  -0.62332
 Alpha  occ. eigenvalues --   -0.62036  -0.61595  -0.61480  -0.61221  -0.60956
 Alpha  occ. eigenvalues --   -0.60425  -0.60076  -0.59631  -0.59184  -0.58808
 Alpha  occ. eigenvalues --   -0.58219  -0.58186  -0.57774  -0.57612  -0.56892
 Alpha  occ. eigenvalues --   -0.56842  -0.56438  -0.56294  -0.55827  -0.55818
 Alpha  occ. eigenvalues --   -0.55518  -0.55274  -0.55153  -0.55030  -0.54783
 Alpha  occ. eigenvalues --   -0.54618  -0.54325  -0.54231  -0.54118  -0.54097
 Alpha  occ. eigenvalues --   -0.53998  -0.53862  -0.53658  -0.53357  -0.53032
 Alpha  occ. eigenvalues --   -0.52792  -0.52778  -0.52465  -0.52401  -0.52235
 Alpha  occ. eigenvalues --   -0.52038  -0.51987  -0.51817  -0.51686  -0.51582
 Alpha  occ. eigenvalues --   -0.51556  -0.51389  -0.51092  -0.50866  -0.50848
 Alpha  occ. eigenvalues --   -0.50553  -0.50472  -0.50250  -0.50178  -0.49946
 Alpha  occ. eigenvalues --   -0.49900  -0.49668  -0.49482  -0.49319  -0.49149
 Alpha  occ. eigenvalues --   -0.49104  -0.48932  -0.48837  -0.48726  -0.48544
 Alpha  occ. eigenvalues --   -0.48501  -0.48411  -0.47935  -0.47812  -0.47680
 Alpha  occ. eigenvalues --   -0.47657  -0.47419  -0.47233  -0.47110  -0.46918
 Alpha  occ. eigenvalues --   -0.46806  -0.46775  -0.46537  -0.46385  -0.46118
 Alpha  occ. eigenvalues --   -0.45985  -0.45979  -0.45875  -0.45695  -0.45635
 Alpha  occ. eigenvalues --   -0.45189  -0.45163  -0.44850  -0.44684  -0.44606
 Alpha  occ. eigenvalues --   -0.44473  -0.44408  -0.44401  -0.44361  -0.44307
 Alpha  occ. eigenvalues --   -0.43980  -0.43770  -0.43628  -0.43616  -0.43449
 Alpha  occ. eigenvalues --   -0.43401  -0.43364  -0.43084  -0.42990  -0.42593
 Alpha  occ. eigenvalues --   -0.42040  -0.42029  -0.41604  -0.41244  -0.40934
 Alpha  occ. eigenvalues --   -0.40647  -0.40454  -0.40141  -0.39704  -0.39697
 Alpha  occ. eigenvalues --   -0.39480  -0.39250  -0.39137  -0.38811  -0.38325
 Alpha  occ. eigenvalues --   -0.37980  -0.37608  -0.37358  -0.36673  -0.36349
 Alpha  occ. eigenvalues --   -0.35803  -0.35466  -0.35414  -0.33965  -0.33751
 Alpha  occ. eigenvalues --   -0.33113  -0.33072  -0.32645  -0.32539  -0.32156
 Alpha  occ. eigenvalues --   -0.31945  -0.31633  -0.31489  -0.26310  -0.26038
 Alpha  occ. eigenvalues --   -0.23449  -0.23283
 Alpha virt. eigenvalues --   -0.07682  -0.07315   0.00093   0.00357   0.02331
 Alpha virt. eigenvalues --    0.02343   0.04447   0.04591   0.05014   0.06295
 Alpha virt. eigenvalues --    0.06945   0.07041   0.07502   0.08002   0.08246

 Mulliken charges:
               1
     1  Mg   0.971843
     2  C    0.037693
     3  C   -0.077430
     4  C   -0.047550
     5  C   -0.093194
     6  N   -0.359310
     7  C   -0.051811
     8  C   -0.053727
     9  C   -0.081994
    10  C    0.068641
    11  C    0.030504
    12  C    0.004939
    13  C   -0.116863
    14  H    0.050389
    15  N   -0.473543
    16  C    0.150803
    17  C   -0.148571
    18  C   -0.063264
    19  C    0.180422
    20  C    0.070391
    21  C    0.021602
    22  O   -0.276145
    23  C    0.023661
    24  N   -0.303515
    25  C    0.005165
    26  C   -0.045768
    27  C   -0.064926
    28  C    0.055461
    29  C    0.009424
    30  C   -0.002842
    31  C   -0.061465
    32  N   -0.466407
    33  C    0.108555
    34  C   -0.190940
    35  C   -0.079917
    36  C    0.147825
    37  C    0.086687
    38  C    0.122186
    39  O   -0.159990
    40  C   -0.057282
    41  C    0.245483
    42  O   -0.241367
    43  O   -0.390724
    44  C    0.139965
    45  H    0.006081
    46  H   -0.060505
    47  H    0.006616
    48  H    0.035315
    49  H    0.039019
    50  H    0.037881
    51  H    0.024411
    52  H    0.048050
    53  H    0.031684
    54  H    0.047298
    55  H    0.050015
    56  H    0.054581
    57  H    0.034584
    58  H    0.046905
    59  H    0.065133
    60  H    0.062819
    61  H    0.064220
    62  H    0.063535
    63  H    0.043414
    64  H    0.043020
    65  H    0.033509
    66  H    0.024370
    67  H    0.040077
    68  H    0.030866
    69  H    0.026585
    70  H    0.031251
    71  H    0.020875
    72  H    0.039790
    73  H    0.062068
    74  H    0.051695
    75  H    0.046449
    76  H    0.069735
    77  H    0.047345
    78  H    0.044330
    79  H    0.063888
    80  Mg   0.981364
    81  C   -0.071033
    82  C   -0.107864
    83  C   -0.077619
    84  C   -0.077302
    85  N   -0.334054
    86  C    0.003396
    87  C   -0.040055
    88  C   -0.140209
    89  C    0.072908
    90  C    0.018579
    91  C    0.018308
    92  C   -0.106042
    93  H    0.036881
    94  N   -0.531808
    95  C    0.234264
    96  C   -0.151030
    97  C   -0.045720
    98  C    0.152508
    99  C    0.051973
   100  C    0.017148
   101  O   -0.225020
   102  C   -0.005317
   103  N   -0.321300
   104  C    0.055878
   105  C   -0.094071
   106  C   -0.043757
   107  C    0.027729
   108  C    0.014803
   109  C   -0.005287
   110  C   -0.042825
   111  N   -0.449562
   112  C    0.125238
   113  C   -0.139032
   114  C   -0.084600
   115  C    0.187741
   116  C    0.059583
   117  C    0.113464
   118  O   -0.211642
   119  C   -0.083571
   120  C    0.288645
   121  O   -0.260765
   122  O   -0.404427
   123  C    0.140816
   124  H    0.004233
   125  H    0.031933
   126  H    0.000217
   127  H    0.043981
   128  H    0.039085
   129  H    0.033631
   130  H    0.048939
   131  H    0.023228
   132  H    0.024136
   133  H    0.025235
   134  H    0.049291
   135  H    0.068206
   136  H    0.063370
   137  H    0.049875
   138  H    0.030963
   139  H    0.053276
   140  H    0.055819
   141  H    0.038218
   142  H    0.048150
   143  H    0.027250
   144  H    0.029902
   145  H    0.045491
   146  H    0.051218
   147  H    0.026135
   148  H    0.026603
   149  H    0.036951
   150  H    0.054411
   151  H    0.027368
   152  H    0.053972
   153  H    0.037346
   154  H    0.064075
   155  H    0.072704
   156  H    0.058150
   157  H    0.054356
   158  H    0.054967
 Sum of Mulliken charges =  -0.00000

 Dipole moment (field-independent basis, Debye):
    X=              2.7337    Y=              5.7478    Z=             -3.2028  Tot=              7.1252
 Quadrupole moment (field-independent basis, Debye-Ang):
   XX=           -439.5030   YY=           -499.9107   ZZ=           -504.3810
   XY=              5.7548   XZ=              7.9392   YZ=            -12.8292

 Normal termination of Gaussian 16 at Sun Sep 19 21:13:12 2021.
