 Gaussian 16, Revision A.03,
 Gaussian 16:  ES64L-G16RevA.03 25-Dec-2016

 --------------------------------
 #p wB97XD/Def2SVP td=(nstates=5)
 --------------------------------

 --------------------------------
 TDDFT excited states in gaussian
 --------------------------------
 Symbolic Z-matrix:
 Charge =  0 Multiplicity = 1

                         Standard orientation:
 ---------------------------------------------------------------------
 Center     Atomic      Atomic             Coordinates (Angstroms)
 Number     Number       Type             X           Y           Z
 ---------------------------------------------------------------------
      1         12           0       -0.662059    0.019618   -0.289607
      2          6           0        2.738213    0.303519    0.285794
      3          6           0       -0.406963   -3.412649    0.054237
      4          6           0       -4.029591   -0.112234   -0.096793
      5          6           0       -0.752217    3.545067   -0.262663
      6          7           0        0.950204   -1.369560    0.409732
      7          6           0        2.237409   -1.013307    0.377965
      8          6           0        3.137422   -2.226563    0.767417
      9          6           0        2.165634   -3.450346    0.417520
     10          6           0        0.790404   -2.710815    0.199613
     11          6           0        2.690873   -4.323340   -0.747605
     12          6           0        3.440521   -2.204810    2.248319
     13          6           0        4.862299   -2.584347    2.631866
     14          1           0        5.203149   -3.424286    3.920063
     15          7           0       -2.021986   -1.625107   -0.224554
     16          6           0       -1.759275   -2.926507   -0.014548
     17          6           0       -3.001948   -3.626949   -0.050724
     18          6           0       -4.072821   -2.708951   -0.272967
     19          6           0       -3.413260   -1.397609   -0.244558
     20          6           0       -3.059117   -5.109791   -0.065807
     21          6           0       -5.510927   -3.088747   -0.277810
     22          8           0       -5.835864   -4.261090   -0.188656
     23          6           0       -6.610697   -2.050000   -0.462454
     24          7           0       -2.226027    1.588174   -0.277977
     25          6           0       -3.523962    1.205927   -0.118260
     26          6           0       -4.390790    2.388884    0.167792
     27          6           0       -3.307968    3.568011    0.117591
     28          6           0       -1.988962    2.922108   -0.227102
     29          6           0       -5.596984    2.549458   -0.776354
     30          6           0       -3.219565    4.489518    1.413720
     31          6           0       -3.299255    6.029340    1.290370
     32          7           0        0.659940    1.596321   -0.072667
     33          6           0        0.493232    2.942957   -0.156506
     34          6           0        1.728757    3.569202   -0.326297
     35          6           0        2.694742    2.582331   -0.187078
     36          6           0        2.001178    1.419763    0.038274
     37          6           0        1.925271    5.105207   -0.487094
     38          6           0        4.052735    2.297195   -0.190531
     39          8           0        4.990236    3.085921   -0.236972
     40          6           0        4.237398    0.744854    0.170349
     41          6           0        4.818439    0.016757   -0.899313
     42          8           0        4.334885   -0.382707   -1.961246
     43          8           0        6.139461   -0.217045   -0.529856
     44          6           0        7.039401   -0.946399   -1.406784
     45          1           0       -0.312954   -4.499277    0.005296
     46          1           0       -5.114655    0.003212   -0.044948
     47          1           0       -0.890604    4.624363   -0.355611
     48          1           0        4.056119   -2.160198    0.185246
     49          1           0        1.930073   -4.087793    1.269119
     50          1           0        3.582777   -3.894756   -1.204262
     51          1           0        1.908130   -4.436947   -1.498287
     52          1           0        2.881396   -5.319555   -0.349074
     53          1           0        2.784154   -2.773888    2.906989
     54          1           0        3.172455   -1.196197    2.562820
     55          1           0        5.439592   -1.659970    2.623346
     56          1           0        5.169516   -3.153335    1.754402
     57          1           0       -3.170809   -5.332692   -1.126746
     58          1           0       -3.893913   -5.484567    0.526752
     59          1           0       -2.156760   -5.578548    0.326922
     60          1           0       -6.739229   -1.582432    0.513861
     61          1           0       -7.527355   -2.619061   -0.615460
     62          1           0       -6.350955   -1.347918   -1.254634
     63          1           0       -4.702841    2.150299    1.184039
     64          1           0       -3.566791    4.317871   -0.629974
     65          1           0       -6.471864    2.263798   -0.191396
     66          1           0       -5.506756    1.955451   -1.686399
     67          1           0       -5.716602    3.601962   -1.032164
     68          1           0       -2.270512    4.287479    1.910079
     69          1           0       -4.022676    4.297368    2.125532
     70          1           0       -2.239404    6.253559    1.170475
     71          1           0       -3.646125    6.466942    2.225576
     72          1           0       -3.716851    6.486805    0.393562
     73          1           0        1.761927    5.575917    0.481524
     74          1           0        1.215702    5.614400   -1.139559
     75          1           0        2.939059    5.335580   -0.815776
     76          1           0        4.812894    0.724389    1.095943
     77          1           0        8.039981   -0.551434   -1.233590
     78          1           0        6.746414   -0.971525   -2.456705
     79          1           0        7.096628   -1.970275   -1.037049
 ---------------------------------------------------------------------

 SCF Done:  E(RwB97XD) =  -2035.28246486     A.U. after   17 cycles

 Excitation energies and oscillator strengths:

 Excited State   1:      Singlet-A      1.6376 eV  757.13 nm  f=0.4005  <S**2>=0.000
     155 ->158        -0.19108
     156 ->157         0.68255
     155 <-158        -0.11970
 This state for optimization and/or second-order correction.
 Total Energy, E(TD-HF/TD-DFT) =  -2035.22228579
 Copying the excited state density for this state as the 1-particle RhoCI density.

 Excited State   2:      Singlet-A      2.1723 eV  570.75 nm  f=0.0972  <S**2>=0.000
     155 ->157         0.63451
     156 ->158         0.29672

 Excited State   3:      Singlet-A      3.2598 eV  380.34 nm  f=0.0049  <S**2>=0.000
     154 ->157         0.67172
     156 ->158        -0.12902

 Excited State   4:      Singlet-A      3.4267 eV  361.82 nm  f=0.0589  <S**2>=0.000
     151 ->157        -0.16260
     151 ->159         0.18684
     152 ->157         0.41980
     152 ->159        -0.12258
     153 ->157        -0.35678
     156 ->158        -0.26971

 Excited State   5:      Singlet-A      3.5001 eV  354.23 nm  f=0.2915  <S**2>=0.000
     151 ->157         0.42884
     151 ->159        -0.22331
     155 ->157         0.18668
     156 ->158        -0.42352

 The electronic state is 1-A.
 Alpha  occ. eigenvalues --  -46.96040 -19.29892 -19.25145 -19.24333 -19.23381
 Alpha  occ. eigenvalues --  -14.46938 -14.46624 -14.44432 -14.43826 -10.43463
 Alpha  occ. eigenvalues --  -10.39265 -10.38587 -10.35579 -10.35452 -10.35400
 Alpha  occ. eigenvalues --  -10.35323 -10.35163 -10.34901 -10.33817 -10.33444
 Alpha  occ. eigenvalues --  -10.32815 -10.32771 -10.32501 -10.32487 -10.32403
 Alpha  occ. eigenvalues --  -10.32360 -10.32255 -10.32240 -10.31928 -10.31921
 Alpha  occ. eigenvalues --  -10.31901 -10.31445 -10.31086 -10.30750 -10.30741
 Alpha  occ. eigenvalues --  -10.30718 -10.30453 -10.29997 -10.29918 -10.29736
 Alpha  occ. eigenvalues --  -10.29710 -10.28879 -10.28838  -3.21830  -1.95427
 Alpha  occ. eigenvalues --   -1.94942  -1.94787  -1.17920  -1.12296  -1.12206
 Alpha  occ. eigenvalues --   -1.09724  -1.07574  -1.06100  -1.05883  -1.04679
 Alpha  occ. eigenvalues --   -0.95914  -0.91420  -0.91018  -0.90276  -0.89846
 Alpha  occ. eigenvalues --   -0.88861  -0.88185  -0.87383  -0.86545  -0.84962
 Alpha  occ. eigenvalues --   -0.84174  -0.83466  -0.82760  -0.80146  -0.79567
 Alpha  occ. eigenvalues --   -0.78517  -0.78437  -0.77139  -0.75515  -0.74397
 Alpha  occ. eigenvalues --   -0.71850  -0.71214  -0.70107  -0.69368  -0.68108
 Alpha  occ. eigenvalues --   -0.67858  -0.67503  -0.66878  -0.64721  -0.62498
 Alpha  occ. eigenvalues --   -0.61937  -0.61111  -0.61076  -0.60181  -0.60018
 Alpha  occ. eigenvalues --   -0.58349  -0.58118  -0.57476  -0.56802  -0.56329
 Alpha  occ. eigenvalues --   -0.55526  -0.55346  -0.54602  -0.54268  -0.54062
 Alpha  occ. eigenvalues --   -0.54017  -0.53821  -0.53457  -0.53230  -0.52310
 Alpha  occ. eigenvalues --   -0.52095  -0.51941  -0.51534  -0.51433  -0.50989
 Alpha  occ. eigenvalues --   -0.50935  -0.50344  -0.50214  -0.49448  -0.48848
 Alpha  occ. eigenvalues --   -0.48719  -0.48660  -0.48545  -0.48091  -0.47908
 Alpha  occ. eigenvalues --   -0.47769  -0.47434  -0.47271  -0.47103  -0.46675
 Alpha  occ. eigenvalues --   -0.46501  -0.45847  -0.45569  -0.45388  -0.45096
 Alpha  occ. eigenvalues --   -0.44841  -0.44156  -0.44019  -0.43868  -0.43814
 Alpha  occ. eigenvalues --   -0.43341  -0.42931  -0.42214  -0.41642  -0.40309
 Alpha  occ. eigenvalues --   -0.40157  -0.39919  -0.39420  -0.39254  -0.38293
 Alpha  occ. eigenvalues --   -0.37598  -0.36844  -0.36509  -0.35776  -0.34047
 Alpha  occ. eigenvalues --   -0.33282  -0.32688  -0.32636  -0.31658  -0.26494
 Alpha  occ. eigenvalues --   -0.23361
 Alpha virt. eigenvalues --   -0.07563  -0.00388   0.01882   0.04434   0.05664
 Alpha virt. eigenvalues --    0.06213   0.07173   0.08117   0.08936   0.10602
 Alpha virt. eigenvalues --    0.11400   0.11934   0.12305   0.12681   0.13683

 Mulliken charges:
               1
     1  Mg   0.938943
     2  C   -0.063503
     3  C   -0.088129
     4  C   -0.039640
     5  C   -0.124261
     6  N   -0.332166
     7  C    0.013162
     8  C   -0.124899
     9  C   -0.102876
    10  C    0.083797
    11  C    0.035823
    12  C    0.029706
    13  C   -0.116598
    14  H    0.044724
    15  N   -0.455874
    16  C    0.158368
    17  C   -0.182217
    18  C   -0.057317
    19  C    0.198370
    20  C    0.076341
    21  C    0.004712
    22  O   -0.236058
    23  C    0.003001
    24  N   -0.354000
    25  C   -0.009572
    26  C   -0.086577
    27  C   -0.051330
    28  C    0.062269
    29  C    0.022940
    30  C   -0.053251
    31  C   -0.067797
    32  N   -0.434026
    33  C    0.194514
    34  C   -0.187426
    35  C    0.053594
    36  C    0.162163
    37  C    0.075215
    38  C    0.056282
    39  O   -0.207012
    40  C   -0.077483
    41  C    0.295527
    42  O   -0.257355
    43  O   -0.388891
    44  C    0.139780
    45  H   -0.000139
    46  H   -0.030118
    47  H   -0.003594
    48  H    0.037078
    49  H    0.045711
    50  H    0.048957
    51  H    0.034008
    52  H    0.036035
    53  H    0.037199
    54  H    0.027167
    55  H    0.055799
    56  H    0.044471
    57  H    0.060681
    58  H    0.065536
    59  H    0.024399
    60  H    0.059341
    61  H    0.051993
    62  H    0.063614
    63  H    0.053045
    64  H    0.024113
    65  H    0.042379
    66  H    0.053161
    67  H    0.040441
    68  H    0.043629
    69  H    0.030917
    70  H    0.022325
    71  H    0.048002
    72  H    0.040153
    73  H    0.047478
    74  H    0.037841
    75  H    0.062249
    76  H    0.083014
    77  H    0.056861
    78  H    0.068855
    79  H    0.036428
 Sum of Mulliken charges =  -0.00000

 Dipole moment (field-independent basis, Debye):
    X=             -1.6922    Y=              1.5167    Z=              0.7452  Tot=              2.3915
 Quadrupole moment (field-independent basis, Debye-Ang):
   XX=           -257.8486   YY=           -252.4365   ZZ=           -258.2496
   XY=            -47.1435   XZ=             -0.1257   YZ=              0.9790

 Normal termination of Gaussian 16 at Sun Sep 19 04:13:15 2021.
