 Gaussian 16, Revision A.03,
 Gaussian 16:  ES64L-G16RevA.03 25-Dec-2016

 --------------------------------
 #p wB97XD/Def2SVP td=(nstates=5)
 --------------------------------

 --------------------------------
 TDDFT excited states in gaussian
 --------------------------------
 Symbolic Z-matrix:
 Charge =  0 Multiplicity = 1

                         Standard orientation:
 ---------------------------------------------------------------------
 Center     Atomic      Atomic             Coordinates (Angstroms)
 Number     Number       Type             X           Y           Z
 ---------------------------------------------------------------------
      1         12           0      -30.214824    0.609048    0.523625
      2          6           0      -28.384299   -2.356352   -0.625809
      3          6           0      -27.169458    2.231101    0.250917
      4          6           0      -31.874965    3.331307    0.467871
      5          6           0      -33.160432   -1.425364    0.213247
      6          7           0      -27.987124   -0.047981   -0.289049
      7          6           0      -27.492761   -1.273506   -0.678863
      8          6           0      -26.003019   -1.106646   -1.153835
      9          6           0      -25.575169    0.266310   -0.606896
     10          6           0      -26.976519    0.855626   -0.191206
     11          6           0      -24.590785    0.314545    0.634695
     12          6           0      -25.810332   -1.284703   -2.698844
     13          6           0      -24.566470   -2.025221   -3.140715
     14          1           0      -23.384527   -1.156177   -3.673946
     15          7           0      -29.628894    2.499468    0.506186
     16          6           0      -28.355018    2.999217    0.502060
     17          6           0      -28.396372    4.486726    0.539494
     18          6           0      -29.780260    4.799258    0.577418
     19          6           0      -30.487222    3.525138    0.473664
     20          6           0      -27.201441    5.451104    0.463140
     21          6           0      -30.450896    6.171862    0.470940
     22          8           0      -29.716158    7.155713    0.453493
     23          6           0      -31.842968    6.389038    0.424447
     24          7           0      -32.271221    0.893874    0.088861
     25          6           0      -32.693046    2.169512    0.407170
     26          6           0      -34.270536    2.169144    0.436046
     27          6           0      -34.646412    0.695819    0.041760
     28          6           0      -33.278366   -0.004306    0.223912
     29          6           0      -34.920024    2.636564    1.767477
     30          6           0      -35.306208    0.426999   -1.370589
     31          6           0      -36.810948    0.705105   -1.530816
     32          7           0      -30.766947   -1.466190   -0.022700
     33          6           0      -31.972639   -2.136316    0.033995
     34          6           0      -31.809536   -3.555422   -0.169341
     35          6           0      -30.392820   -3.691320   -0.419994
     36          6           0      -29.754296   -2.402577   -0.387391
     37          6           0      -32.939695   -4.537873   -0.191920
     38          6           0      -29.412074   -4.618054   -0.771576
     39          8           0      -29.499154   -5.787018   -1.122434
     40          6           0      -28.109468   -3.813384   -1.049845
     41          6           0      -27.077011   -4.438164   -0.140748
     42          8           0      -25.957468   -4.787474   -0.523104
     43          8           0      -27.417762   -4.456961    1.271537
     44          6           0      -26.259629   -4.729687    2.121167
     45          1           0      -26.210052    2.751647    0.244566
     46          1           0      -32.566409    4.160760    0.630226
     47          1           0      -34.131318   -1.924306    0.240055
     48          1           0      -25.378684   -1.787833   -0.573897
     49          1           0      -25.212521    0.922651   -1.397966
     50          1           0      -23.634763    0.625078    0.213685
     51          1           0      -24.442957   -0.678127    1.058969
     52          1           0      -24.913751    0.938324    1.468113
     53          1           0      -25.668965   -0.354533   -3.249804
     54          1           0      -26.643564   -1.846141   -3.122018
     55          1           0      -24.888152   -2.789582   -3.848110
     56          1           0      -24.171510   -2.549822   -2.270132
     57          1           0      -27.357270    6.286141    1.146688
     58          1           0      -27.160368    5.730610   -0.589549
     59          1           0      -26.285235    4.965747    0.796680
     60          1           0      -32.261476    6.096514    1.387981
     61          1           0      -32.351864    5.923195   -0.419480
     62          1           0      -31.873952    7.454592    0.194425
     63          1           0      -34.722799    2.811932   -0.318447
     64          1           0      -35.279927    0.232247    0.797587
     65          1           0      -35.549027    1.804344    2.083795
     66          1           0      -35.534820    3.511413    1.558201
     67          1           0      -34.062121    2.842892    2.408595
     68          1           0      -35.120096   -0.634800   -1.535246
     69          1           0      -34.863593    1.065327   -2.135549
     70          1           0      -37.074630    0.972772   -0.507219
     71          1           0      -37.363438   -0.213879   -1.731725
     72          1           0      -37.099575    1.493374   -2.225684
     73          1           0      -33.615406   -4.178724   -0.967035
     74          1           0      -33.547434   -4.522643    0.712624
     75          1           0      -32.640450   -5.521204   -0.554904
     76          1           0      -27.826917   -4.019290   -2.082075
     77          1           0      -26.656924   -4.229477    3.005182
     78          1           0      -25.326280   -4.402808    1.662839
     79          1           0      -26.282885   -5.798639    2.333430
     80         12           0       30.298530    0.281453   -0.447617
     81          6           0       28.231892   -1.635894    1.840781
     82          6           0       29.981012    2.810378    1.758876
     83          6           0       32.067564    1.968668   -2.503490
     84          6           0       30.173872   -2.435966   -2.714104
     85          7           0       29.188686    0.515819    1.677675
     86          6           0       28.527189   -0.406603    2.397682
     87          6           0       28.196111    0.146577    3.796951
     88          6           0       28.394038    1.696998    3.457020
     89          6           0       29.276462    1.681227    2.280312
     90          6           0       27.171955    2.599967    3.468326
     91          6           0       29.172168   -0.467876    4.815123
     92          6           0       28.592028   -0.511369    6.259484
     93          1           0       27.052148   -0.240844    6.591901
     94          7           0       31.006692    2.168569   -0.384516
     95          6           0       30.709689    3.125357    0.567054
     96          6           0       31.337493    4.377339    0.155672
     97          6           0       32.021443    4.125941   -1.059326
     98          6           0       31.697720    2.701437   -1.354771
     99          6           0       31.238708    5.634028    0.899932
    100          6           0       32.968163    5.097295   -1.940378
    101          8           0       33.617401    4.677330   -2.858813
    102          6           0       33.318941    6.520519   -1.470660
    103          7           0       30.781203   -0.099569   -2.460138
    104          6           0       31.665344    0.718210   -3.025845
    105          6           0       32.197315    0.238642   -4.349588
    106          6           0       31.910201   -1.274655   -4.192808
    107          6           0       30.755080   -1.223551   -3.134392
    108          6           0       31.448630    0.853940   -5.621988
    109          6           0       33.144598   -2.181954   -3.781296
    110          6           0       34.585068   -1.771239   -4.204240
    111          7           0       29.330318   -1.580861   -0.532727
    112          6           0       29.397538   -2.592701   -1.432958
    113          6           0       28.772661   -3.745943   -0.965336
    114          6           0       28.280213   -3.383059    0.255680
    115          6           0       28.637892   -2.076732    0.524816
    116          6           0       28.740765   -5.099536   -1.669702
    117          6           0       27.537231   -3.944277    1.393988
    118          8           0       26.899874   -4.975480    1.547076
    119          6           0       27.570068   -2.800214    2.499047
    120          6           0       26.203835   -2.582722    2.941407
    121          8           0       25.323580   -1.948476    2.351156
    122          8           0       25.991599   -3.416255    3.981120
    123          6           0       24.580847   -3.584970    4.280115
    124          1           0       29.723718    3.670337    2.380872
    125          1           0       32.636748    2.588040   -3.199010
    126          1           0       30.245328   -3.278916   -3.404335
    127          1           0       27.144553    0.004253    4.046409
    128          1           0       28.990550    2.100593    4.274040
    129          1           0       27.203806    3.323139    4.282693
    130          1           0       26.264349    2.003946    3.561890
    131          1           0       27.011700    3.143189    2.536994
    132          1           0       30.027139    0.204602    4.888589
    133          1           0       29.568948   -1.439174    4.520318
    134          1           0       29.195552    0.073217    6.954576
    135          1           0       28.923170   -1.492658    6.599077
    136          1           0       31.025054    5.463587    1.954898
    137          1           0       30.431741    6.185521    0.417174
    138          1           0       32.148271    6.234801    0.881246
    139          1           0       33.918001    6.548845   -0.560512
    140          1           0       32.363216    7.044920   -1.457395
    141          1           0       33.855774    7.047887   -2.259633
    142          1           0       33.237533    0.562164   -4.321134
    143          1           0       31.506700   -1.729051   -5.097362
    144          1           0       32.290709    1.126781   -6.257628
    145          1           0       30.855101    1.743755   -5.409182
    146          1           0       30.821129    0.162416   -6.182953
    147          1           0       32.947551   -3.202758   -4.105668
    148          1           0       33.140334   -2.041659   -2.700223
    149          1           0       35.016845   -1.091194   -3.470332
    150          1           0       34.446306   -1.379191   -5.212388
    151          1           0       35.239854   -2.633190   -4.327529
    152          1           0       29.663432   -5.125801   -2.249925
    153          1           0       27.929848   -5.189535   -2.391895
    154          1           0       28.707693   -5.878867   -0.908566
    155          1           0       28.189571   -3.178756    3.313054
    156          1           0       24.392380   -4.273517    5.103321
    157          1           0       23.918082   -3.752846    3.431036
    158          1           0       24.166242   -2.661015    4.684711
 ---------------------------------------------------------------------

 SCF Done:  E(RwB97XD) =  -4070.53329754     A.U. after   18 cycles

 Excitation energies and oscillator strengths:

 Excited State   1:      Singlet-A      1.6685 eV  743.09 nm  f=0.3516  <S**2>=0.000
     309 -> 315        0.20211
     311 -> 313        0.67714
     309 <- 315        0.11957
 This state for optimization and/or second-order correction.
 Total Energy, E(TD-HF/TD-DFT) =  -4070.47198135
 Copying the excited state density for this state as the 1-particle RhoCI density.

 Excited State   2:      Singlet-A      1.7990 eV  689.20 nm  f=0.3719  <S**2>=0.000
     310 -> 316       -0.19145
     312 -> 314        0.67946
     310 <- 316       -0.11149

 Excited State   3:      Singlet-A      2.1895 eV  566.28 nm  f=0.0683  <S**2>=0.000
     309 -> 313        0.61429
     311 -> 315       -0.33151

 Excited State   4:      Singlet-A      2.1925 eV  565.49 nm  f=0.1515  <S**2>=0.000
     310 -> 314        0.65247
     312 -> 316        0.25640

 Excited State   5:      Singlet-A      3.2141 eV  385.75 nm  f=0.0157  <S**2>=0.000
     308 -> 313        0.61819
     308 -> 317       -0.12007
     311 -> 315        0.24312

 The electronic state is 1-A.
 Alpha  occ. eigenvalues --  -46.97088 -46.95676 -19.30083 -19.28925 -19.25578
 Alpha  occ. eigenvalues --  -19.25017 -19.23842 -19.23823 -19.23679 -19.22888
 Alpha  occ. eigenvalues --  -14.47335 -14.46554 -14.46061 -14.45649 -14.45406
 Alpha  occ. eigenvalues --  -14.44550 -14.43731 -14.43183 -10.43259 -10.42011
 Alpha  occ. eigenvalues --  -10.41012 -10.38885 -10.38782 -10.37475 -10.36401
 Alpha  occ. eigenvalues --  -10.35954 -10.35636 -10.35594 -10.35446 -10.35407
 Alpha  occ. eigenvalues --  -10.34994 -10.34842 -10.34832 -10.34683 -10.34480
 Alpha  occ. eigenvalues --  -10.34239 -10.33863 -10.33640 -10.33552 -10.33547
 Alpha  occ. eigenvalues --  -10.33355 -10.33223 -10.33188 -10.33054 -10.32968
 Alpha  occ. eigenvalues --  -10.32889 -10.32697 -10.32668 -10.32435 -10.32361
 Alpha  occ. eigenvalues --  -10.32341 -10.32288 -10.32260 -10.32103 -10.32032
 Alpha  occ. eigenvalues --  -10.31969 -10.31646 -10.31619 -10.31582 -10.31521
 Alpha  occ. eigenvalues --  -10.31434 -10.31419 -10.31388 -10.31292 -10.31265
 Alpha  occ. eigenvalues --  -10.31113 -10.31036 -10.30859 -10.30838 -10.30765
 Alpha  occ. eigenvalues --  -10.30718 -10.30607 -10.30503 -10.30498 -10.30117
 Alpha  occ. eigenvalues --  -10.30110 -10.30025 -10.29934 -10.29858 -10.29642
 Alpha  occ. eigenvalues --  -10.29442 -10.29409 -10.29349 -10.29244 -10.29024
 Alpha  occ. eigenvalues --  -10.27667  -3.22991  -3.21629  -1.96515  -1.96157
 Alpha  occ. eigenvalues --   -1.95910  -1.95219  -1.94769  -1.94580  -1.18631
 Alpha  occ. eigenvalues --   -1.16069  -1.14873  -1.12677  -1.11626  -1.11183
 Alpha  occ. eigenvalues --   -1.08782  -1.08539  -1.07785  -1.07210  -1.07098
 Alpha  occ. eigenvalues --   -1.06711  -1.05402  -1.05352  -1.05343  -1.03078
 Alpha  occ. eigenvalues --   -0.94864  -0.94275  -0.91160  -0.90887  -0.90812
 Alpha  occ. eigenvalues --   -0.90594  -0.90397  -0.89939  -0.89488  -0.88976
 Alpha  occ. eigenvalues --   -0.88875  -0.88811  -0.87846  -0.87468  -0.86916
 Alpha  occ. eigenvalues --   -0.86279  -0.85760  -0.85591  -0.84984  -0.84472
 Alpha  occ. eigenvalues --   -0.84245  -0.83872  -0.83105  -0.82647  -0.82048
 Alpha  occ. eigenvalues --   -0.81838  -0.80612  -0.80232  -0.79270  -0.78949
 Alpha  occ. eigenvalues --   -0.78716  -0.78514  -0.77757  -0.77623  -0.77221
 Alpha  occ. eigenvalues --   -0.77181  -0.74819  -0.74695  -0.73911  -0.73616
 Alpha  occ. eigenvalues --   -0.71579  -0.71092  -0.70695  -0.70544  -0.69704
 Alpha  occ. eigenvalues --   -0.69556  -0.68993  -0.68800  -0.67503  -0.67379
 Alpha  occ. eigenvalues --   -0.67320  -0.67029  -0.66992  -0.66595  -0.66024
 Alpha  occ. eigenvalues --   -0.65644  -0.63877  -0.63759  -0.62859  -0.62408
 Alpha  occ. eigenvalues --   -0.61803  -0.61460  -0.61255  -0.61209  -0.60900
 Alpha  occ. eigenvalues --   -0.60355  -0.59837  -0.59456  -0.59179  -0.58991
 Alpha  occ. eigenvalues --   -0.58659  -0.58571  -0.57583  -0.57382  -0.57128
 Alpha  occ. eigenvalues --   -0.56741  -0.56506  -0.56290  -0.55968  -0.55829
 Alpha  occ. eigenvalues --   -0.55750  -0.55675  -0.55529  -0.55468  -0.55220
 Alpha  occ. eigenvalues --   -0.54934  -0.54843  -0.54838  -0.54432  -0.54164
 Alpha  occ. eigenvalues --   -0.53898  -0.53671  -0.53657  -0.53412  -0.53195
 Alpha  occ. eigenvalues --   -0.53049  -0.52962  -0.52619  -0.52516  -0.52392
 Alpha  occ. eigenvalues --   -0.51918  -0.51808  -0.51790  -0.51629  -0.51503
 Alpha  occ. eigenvalues --   -0.51095  -0.51046  -0.50892  -0.50866  -0.50681
 Alpha  occ. eigenvalues --   -0.50557  -0.50506  -0.50328  -0.50259  -0.50079
 Alpha  occ. eigenvalues --   -0.49890  -0.49779  -0.49655  -0.49404  -0.49299
 Alpha  occ. eigenvalues --   -0.49233  -0.48916  -0.48650  -0.48649  -0.48460
 Alpha  occ. eigenvalues --   -0.48143  -0.48036  -0.47845  -0.47661  -0.47335
 Alpha  occ. eigenvalues --   -0.47309  -0.46898  -0.46798  -0.46600  -0.46537
 Alpha  occ. eigenvalues --   -0.46432  -0.46424  -0.46310  -0.46207  -0.46018
 Alpha  occ. eigenvalues --   -0.45974  -0.45835  -0.45730  -0.45717  -0.45556
 Alpha  occ. eigenvalues --   -0.45240  -0.45167  -0.45147  -0.44881  -0.44571
 Alpha  occ. eigenvalues --   -0.44551  -0.44378  -0.44361  -0.44252  -0.44201
 Alpha  occ. eigenvalues --   -0.44036  -0.43970  -0.43899  -0.43417  -0.43330
 Alpha  occ. eigenvalues --   -0.43249  -0.43205  -0.42272  -0.42163  -0.42112
 Alpha  occ. eigenvalues --   -0.41824  -0.41613  -0.41212  -0.41208  -0.40770
 Alpha  occ. eigenvalues --   -0.40583  -0.40148  -0.39991  -0.39805  -0.39609
 Alpha  occ. eigenvalues --   -0.39396  -0.39155  -0.38641  -0.38278  -0.37890
 Alpha  occ. eigenvalues --   -0.37629  -0.37334  -0.36538  -0.36130  -0.35930
 Alpha  occ. eigenvalues --   -0.35647  -0.35260  -0.34675  -0.33947  -0.33833
 Alpha  occ. eigenvalues --   -0.33730  -0.33520  -0.33199  -0.32821  -0.32295
 Alpha  occ. eigenvalues --   -0.32110  -0.31574  -0.30860  -0.26394  -0.25291
 Alpha  occ. eigenvalues --   -0.23261  -0.23199
 Alpha virt. eigenvalues --   -0.07129  -0.06577  -0.00796   0.00850   0.01885
 Alpha virt. eigenvalues --    0.02629   0.03648   0.04325   0.04778   0.05583
 Alpha virt. eigenvalues --    0.06774   0.06823   0.06989   0.07926   0.08159

 Mulliken charges:
               1
     1  Mg   0.966468
     2  C   -0.023695
     3  C   -0.063194
     4  C   -0.092076
     5  C   -0.100962
     6  N   -0.282604
     7  C   -0.034187
     8  C    0.018411
     9  C   -0.119712
    10  C   -0.008166
    11  C    0.015379
    12  C    0.017532
    13  C   -0.125812
    14  H    0.022225
    15  N   -0.499419
    16  C    0.163104
    17  C   -0.190143
    18  C   -0.055664
    19  C    0.215171
    20  C    0.096965
    21  C    0.017684
    22  O   -0.245774
    23  C    0.020301
    24  N   -0.384885
    25  C    0.048533
    26  C   -0.125737
    27  C   -0.090076
    28  C    0.044986
    29  C    0.037756
    30  C   -0.003808
    31  C   -0.042740
    32  N   -0.423472
    33  C    0.155310
    34  C   -0.159510
    35  C   -0.021077
    36  C    0.158978
    37  C    0.093594
    38  C    0.074432
    39  O   -0.216339
    40  C   -0.098819
    41  C    0.286750
    42  O   -0.256825
    43  O   -0.417820
    44  C    0.139102
    45  H   -0.001263
    46  H   -0.023792
    47  H   -0.001919
    48  H    0.034638
    49  H    0.044279
    50  H    0.048584
    51  H    0.036651
    52  H    0.049361
    53  H    0.048459
    54  H    0.043917
    55  H    0.057365
    56  H    0.052632
    57  H    0.068244
    58  H    0.069356
    59  H    0.030896
    60  H    0.075404
    61  H    0.063969
    62  H    0.054802
    63  H    0.035879
    64  H    0.019936
    65  H    0.037837
    66  H    0.042216
    67  H    0.042231
    68  H    0.028945
    69  H    0.036390
    70  H    0.015394
    71  H    0.040183
    72  H    0.050248
    73  H    0.034115
    74  H    0.047811
    75  H    0.062835
    76  H    0.072092
    77  H    0.050730
    78  H    0.068828
    79  H    0.052580
    80  Mg   0.963009
    81  C   -0.002372
    82  C   -0.069596
    83  C   -0.087078
    84  C   -0.078741
    85  N   -0.252277
    86  C   -0.062769
    87  C   -0.062060
    88  C   -0.088852
    89  C    0.000077
    90  C    0.039647
    91  C    0.010140
    92  C   -0.092270
    93  H    0.048517
    94  N   -0.472826
    95  C    0.161489
    96  C   -0.161884
    97  C   -0.088133
    98  C    0.122133
    99  C    0.059548
   100  C    0.076640
   101  O   -0.197396
   102  C   -0.024305
   103  N   -0.321624
   104  C    0.065068
   105  C   -0.102408
   106  C   -0.113749
   107  C    0.058508
   108  C    0.030252
   109  C   -0.010571
   110  C   -0.052957
   111  N   -0.409857
   112  C    0.090290
   113  C   -0.219137
   114  C   -0.051404
   115  C    0.154809
   116  C    0.095872
   117  C    0.138616
   118  O   -0.197772
   119  C   -0.093129
   120  C    0.252658
   121  O   -0.272133
   122  O   -0.331233
   123  C    0.153291
   124  H   -0.010548
   125  H    0.011917
   126  H    0.003414
   127  H    0.040501
   128  H    0.017720
   129  H    0.039837
   130  H    0.042834
   131  H    0.036624
   132  H    0.031782
   133  H    0.048003
   134  H    0.038513
   135  H    0.037341
   136  H    0.044136
   137  H    0.065918
   138  H    0.040903
   139  H    0.086430
   140  H    0.045249
   141  H    0.050825
   142  H    0.043777
   143  H    0.017540
   144  H    0.041936
   145  H    0.045902
   146  H    0.042529
   147  H    0.037410
   148  H    0.027787
   149  H    0.050446
   150  H    0.034821
   151  H    0.039887
   152  H    0.025416
   153  H    0.053062
   154  H    0.055812
   155  H    0.073331
   156  H    0.049842
   157  H    0.060914
   158  H    0.024161
 Sum of Mulliken charges =  -0.00000

 Dipole moment (field-independent basis, Debye):
    X=              0.6573    Y=              8.9375    Z=              4.5344  Tot=             10.0435
 Quadrupole moment (field-independent basis, Debye-Ang):
   XX=           -107.8377   YY=           -559.5469   ZZ=           -483.2263
   XY=             11.8631   XZ=            -12.3358   YZ=              4.6098

 Normal termination of Gaussian 16 at Mon Sep 20 06:52:30 2021.
