 Gaussian 16, Revision A.03,
 Gaussian 16:  ES64L-G16RevA.03 25-Dec-2016

 --------------------------------
 #p wB97XD/Def2SVP td=(nstates=5)
 --------------------------------

 --------------------------------
 TDDFT excited states in gaussian
 --------------------------------
 Symbolic Z-matrix:
 Charge =  0 Multiplicity = 1

                         Standard orientation:
 ---------------------------------------------------------------------
 Center     Atomic      Atomic             Coordinates (Angstroms)
 Number     Number       Type             X           Y           Z
 ---------------------------------------------------------------------
      1         12           0       24.149880    0.576870   -0.077025
      2          6           0       22.961676   -2.435176   -1.386506
      3          6           0       23.805799   -0.873975    3.096472
      4          6           0       24.734032    3.542384    1.359456
      5          6           0       23.433845    2.094486   -3.081594
      6          7           0       23.549057   -1.511586    0.798636
      7          6           0       23.058451   -2.496949    0.000641
      8          6           0       22.641393   -3.753013    0.863876
      9          6           0       22.688556   -3.117451    2.344064
     10          6           0       23.336178   -1.744595    2.096934
     11          6           0       21.204362   -2.876473    2.795837
     12          6           0       23.762590   -4.840787    0.680275
     13          6           0       23.653187   -6.131801    1.536503
     14          1           0       24.727229   -6.855482    2.292858
     15          7           0       24.442865    1.159239    1.910541
     16          6           0       24.303550    0.432980    3.105041
     17          6           0       24.580566    1.301888    4.170490
     18          6           0       25.032111    2.523038    3.688053
     19          6           0       24.754574    2.445786    2.263280
     20          6           0       24.561227    0.796325    5.575846
     21          6           0       25.538885    3.797696    4.440126
     22          8           0       25.929549    4.824361    3.894893
     23          6           0       25.797751    3.801753    5.949202
     24          7           0       23.970268    2.528731   -0.755931
     25          6           0       24.413219    3.561573   -0.004750
     26          6           0       24.548166    4.882169   -0.787811
     27          6           0       23.997674    4.450883   -2.175513
     28          6           0       23.893450    2.939775   -2.073114
     29          6           0       23.916976    6.126150   -0.078775
     30          6           0       24.772362    4.938658   -3.430393
     31          6           0       26.041185    4.257364   -3.724187
     32          7           0       23.452996   -0.009515   -1.915906
     33          6           0       23.218768    0.676428   -3.010534
     34          6           0       22.833871   -0.190049   -4.129331
     35          6           0       22.735898   -1.458977   -3.473962
     36          6           0       23.077479   -1.298069   -2.145403
     37          6           0       22.956084    0.048601   -5.561527
     38          6           0       22.440081   -2.858799   -3.724182
     39          8           0       22.214329   -3.445293   -4.758359
     40          6           0       22.513325   -3.508076   -2.336848
     41          6           0       21.202974   -4.212076   -1.969046
     42          8           0       20.214780   -3.646602   -1.578843
     43          8           0       21.321200   -5.556696   -2.228015
     44          6           0       20.092075   -6.309880   -1.888092
     45          1           0       23.819308   -1.376070    4.065215
     46          1           0       25.127992    4.484062    1.748058
     47          1           0       23.423605    2.777857   -3.932484
     48          1           0       21.626783   -4.089647    0.649410
     49          1           0       23.214530   -3.723758    3.082575
     50          1           0       20.855233   -1.844405    2.791383
     51          1           0       21.083429   -3.032554    3.868087
     52          1           0       20.472139   -3.461828    2.240051
     53          1           0       24.718819   -4.350852    0.861820
     54          1           0       23.791181   -5.088662   -0.381127
     55          1           0       23.134026   -6.832028    0.881434
     56          1           0       22.992845   -5.783460    2.329713
     57          1           0       24.258436   -0.243731    5.700022
     58          1           0       24.018130    1.521741    6.183130
     59          1           0       25.609382    0.833290    5.873943
     60          1           0       24.893534    3.706617    6.550501
     61          1           0       26.413823    4.628609    6.302927
     62          1           0       26.451099    2.951784    6.147039
     63          1           0       25.635578    4.946316   -0.760600
     64          1           0       22.977090    4.833578   -2.183176
     65          1           0       23.946248    6.014430    1.004584
     66          1           0       22.874378    6.221356   -0.383267
     67          1           0       24.452214    7.051308   -0.293560
     68          1           0       24.954203    5.982158   -3.175141
     69          1           0       24.103757    4.954570   -4.291316
     70          1           0       25.840297    3.338709   -4.275155
     71          1           0       26.614055    4.084430   -2.813345
     72          1           0       26.664609    4.835242   -4.407110
     73          1           0       23.745757    0.795035   -5.650478
     74          1           0       22.133338    0.511257   -6.106862
     75          1           0       23.198624   -0.912068   -6.014594
     76          1           0       23.331466   -4.228898   -2.352588
     77          1           0       19.976786   -7.120192   -2.607709
     78          1           0       19.148818   -5.787085   -2.047786
     79          1           0       20.174480   -6.767292   -0.902684
     80         12           0      -23.975386    0.643159    0.155506
     81          6           0      -21.646085   -1.846552    0.943124
     82          6           0      -26.310052   -1.761994   -0.511712
     83          6           0      -26.005604    3.032459   -0.898368
     84          6           0      -21.382557    3.042188    0.701697
     85          7           0      -23.931295   -1.572575    0.174370
     86          6           0      -22.920479   -2.411809    0.587447
     87          6           0      -23.439354   -3.828394    0.751806
     88          6           0      -24.832725   -3.784383    0.008531
     89          6           0      -25.057889   -2.234212   -0.023397
     90          6           0      -24.800053   -4.393849   -1.387250
     91          6           0      -23.375826   -4.251472    2.264699
     92          6           0      -24.083049   -5.603669    2.558165
     93          1           0      -24.095144   -6.622025    1.437117
     94          7           0      -25.833923    0.635229   -0.558828
     95          6           0      -26.626263   -0.461507   -0.873777
     96          6           0      -27.909988   -0.053592   -1.471138
     97          6           0      -27.812754    1.370387   -1.538330
     98          6           0      -26.505551    1.726392   -0.992771
     99          6           0      -28.986136   -1.012750   -1.818484
    100          6           0      -28.859183    2.306750   -2.085300
    101          8           0      -28.710424    3.560051   -2.064981
    102          6           0      -30.171415    1.790842   -2.610621
    103          7           0      -23.734357    2.768606   -0.011786
    104          6           0      -24.756497    3.485875   -0.478996
    105          6           0      -24.326582    5.007496   -0.663294
    106          6           0      -22.773519    5.007561   -0.170405
    107          6           0      -22.605463    3.528631    0.180660
    108          6           0      -24.538154    5.409342   -2.180415
    109          6           0      -22.491599    5.897370    1.114863
    110          6           0      -22.199716    7.401716    0.846549
    111          7           0      -21.952081    0.665211    0.631201
    112          6           0      -21.032090    1.701812    0.939921
    113          6           0      -19.710741    1.090277    1.403950
    114          6           0      -19.873910   -0.290401    1.352869
    115          6           0      -21.289617   -0.491907    0.951570
    116          6           0      -18.483974    1.806533    1.875044
    117          6           0      -19.274021   -1.578965    1.608644
    118          8           0      -18.147230   -1.906862    1.993635
    119          6           0      -20.464804   -2.657755    1.528716
    120          6           0      -20.101161   -3.870443    0.702898
    121          8           0      -20.236654   -3.938120   -0.488882
    122          8           0      -19.812259   -4.980888    1.527913
    123          6           0      -19.884400   -6.314435    0.912145
    124          1           0      -26.920963   -2.641126   -0.728728
    125          1           0      -26.674921    3.815052   -1.262140
    126          1           0      -20.520125    3.707023    0.784495
    127          1           0      -22.753580   -4.490056    0.224169
    128          1           0      -25.672276   -4.213999    0.556006
    129          1           0      -25.561718   -5.173420   -1.384173
    130          1           0      -23.780507   -4.715159   -1.599050
    131          1           0      -25.205551   -3.727650   -2.148355
    132          1           0      -23.660239   -3.321877    2.756729
    133          1           0      -22.314401   -4.354878    2.487537
    134          1           0      -25.094122   -5.297331    2.826623
    135          1           0      -23.586591   -6.063973    3.412301
    136          1           0      -29.045033   -0.913163   -2.902190
    137          1           0      -29.924925   -0.811830   -1.303028
    138          1           0      -28.828466   -2.079249   -1.652767
    139          1           0      -30.718211    1.321151   -1.794151
    140          1           0      -29.781546    1.122749   -3.379587
    141          1           0      -30.807124    2.512983   -3.122208
    142          1           0      -24.994002    5.478574    0.059377
    143          1           0      -22.001785    5.092975   -0.936590
    144          1           0      -24.901414    4.601931   -2.815974
    145          1           0      -23.593450    5.744886   -2.609095
    146          1           0      -25.333385    6.154187   -2.173843
    147          1           0      -21.791213    5.422765    1.801518
    148          1           0      -23.421041    5.890975    1.683322
    149          1           0      -22.917727    7.968585    1.438131
    150          1           0      -22.244700    7.575717   -0.228611
    151          1           0      -21.203567    7.691457    1.181818
    152          1           0      -18.444008    1.658757    2.954460
    153          1           0      -18.538595    2.863174    1.610298
    154          1           0      -17.518066    1.451422    1.516456
    155          1           0      -20.690481   -2.930663    2.559178
    156          1           0      -18.953573   -6.412276    0.354130
    157          1           0      -20.815714   -6.435056    0.358416
    158          1           0      -19.946662   -7.024338    1.736491
 ---------------------------------------------------------------------

 SCF Done:  E(RwB97XD) =  -4070.63879735     A.U. after   19 cycles

 Excitation energies and oscillator strengths:

 Excited State   1:      Singlet-A      1.6549 eV  749.19 nm  f=0.3813  <S**2>=0.000
     309 -> 315        0.20545
     312 -> 314        0.67803
     309 <- 315        0.12142
 This state for optimization and/or second-order correction.
 Total Energy, E(TD-HF/TD-DFT) =  -4070.57798035
 Copying the excited state density for this state as the 1-particle RhoCI density.

 Excited State   2:      Singlet-A      1.6939 eV  731.95 nm  f=0.3883  <S**2>=0.000
     310 -> 316       -0.19055
     311 -> 313        0.68142
     310 <- 316       -0.11528

 Excited State   3:      Singlet-A      2.2137 eV  560.08 nm  f=0.1125  <S**2>=0.000
     310 -> 313        0.64260
     311 -> 316        0.27809

 Excited State   4:      Singlet-A      2.2347 eV  554.81 nm  f=0.0336  <S**2>=0.000
     309 -> 314        0.58749
     312 -> 315       -0.38608

 Excited State   5:      Singlet-A      3.3774 eV  367.10 nm  f=0.7553  <S**2>=0.000
     302 -> 314        0.13132
     309 -> 314        0.37264
     312 -> 315        0.57848
     309 <- 314       -0.11397

 The electronic state is 1-A.
 Alpha  occ. eigenvalues --  -46.95030 -46.94411 -19.30995 -19.29210 -19.25316
 Alpha  occ. eigenvalues --  -19.25216 -19.24475 -19.24260 -19.23829 -19.23449
 Alpha  occ. eigenvalues --  -14.46836 -14.46733 -14.46117 -14.45596 -14.44576
 Alpha  occ. eigenvalues --  -14.44500 -14.43761 -14.43671 -10.43611 -10.43273
 Alpha  occ. eigenvalues --  -10.40178 -10.39575 -10.39231 -10.38466 -10.35536
 Alpha  occ. eigenvalues --  -10.35482 -10.35106 -10.34935 -10.34754 -10.34662
 Alpha  occ. eigenvalues --  -10.34657 -10.34546 -10.34439 -10.34383 -10.34364
 Alpha  occ. eigenvalues --  -10.34361 -10.34168 -10.33920 -10.33718 -10.33588
 Alpha  occ. eigenvalues --  -10.33549 -10.33487 -10.33403 -10.33235 -10.32732
 Alpha  occ. eigenvalues --  -10.32651 -10.32625 -10.32611 -10.32552 -10.32343
 Alpha  occ. eigenvalues --  -10.32288 -10.32239 -10.31979 -10.31798 -10.31747
 Alpha  occ. eigenvalues --  -10.31706 -10.31694 -10.31668 -10.31629 -10.31563
 Alpha  occ. eigenvalues --  -10.31547 -10.31504 -10.31352 -10.31131 -10.31108
 Alpha  occ. eigenvalues --  -10.30988 -10.30981 -10.30887 -10.30632 -10.30373
 Alpha  occ. eigenvalues --  -10.30302 -10.30233 -10.30079 -10.30077 -10.30048
 Alpha  occ. eigenvalues --  -10.29955 -10.29851 -10.29686 -10.29612 -10.29422
 Alpha  occ. eigenvalues --  -10.29304 -10.29191 -10.29191 -10.29084 -10.28911
 Alpha  occ. eigenvalues --  -10.28284  -3.21036  -3.20511  -1.94610  -1.94173
 Alpha  occ. eigenvalues --   -1.94111  -1.93992  -1.93624  -1.93513  -1.18970
 Alpha  occ. eigenvalues --   -1.17614  -1.12631  -1.12487  -1.11371  -1.10944
 Alpha  occ. eigenvalues --   -1.10020  -1.09977  -1.06941  -1.06321  -1.05780
 Alpha  occ. eigenvalues --   -1.05473  -1.05337  -1.04820  -1.04483  -1.03399
 Alpha  occ. eigenvalues --   -0.95777  -0.93575  -0.91263  -0.90847  -0.90493
 Alpha  occ. eigenvalues --   -0.90428  -0.90073  -0.89743  -0.89481  -0.89440
 Alpha  occ. eigenvalues --   -0.89115  -0.88639  -0.88234  -0.88091  -0.86147
 Alpha  occ. eigenvalues --   -0.85960  -0.85494  -0.84841  -0.84280  -0.84112
 Alpha  occ. eigenvalues --   -0.83809  -0.83447  -0.82837  -0.82684  -0.82348
 Alpha  occ. eigenvalues --   -0.81954  -0.80935  -0.80482  -0.79498  -0.79340
 Alpha  occ. eigenvalues --   -0.78889  -0.78491  -0.78028  -0.77693  -0.76785
 Alpha  occ. eigenvalues --   -0.76475  -0.74431  -0.74063  -0.73739  -0.73431
 Alpha  occ. eigenvalues --   -0.71934  -0.71338  -0.71110  -0.70507  -0.70295
 Alpha  occ. eigenvalues --   -0.70283  -0.69079  -0.69007  -0.67402  -0.67317
 Alpha  occ. eigenvalues --   -0.67108  -0.66760  -0.66389  -0.65951  -0.65908
 Alpha  occ. eigenvalues --   -0.65758  -0.64459  -0.63267  -0.62654  -0.62082
 Alpha  occ. eigenvalues --   -0.61462  -0.61429  -0.61310  -0.60696  -0.60541
 Alpha  occ. eigenvalues --   -0.60222  -0.59730  -0.59517  -0.59323  -0.58756
 Alpha  occ. eigenvalues --   -0.58455  -0.58125  -0.57813  -0.57578  -0.57446
 Alpha  occ. eigenvalues --   -0.57206  -0.56535  -0.56522  -0.56126  -0.55914
 Alpha  occ. eigenvalues --   -0.55877  -0.55595  -0.55205  -0.55192  -0.55048
 Alpha  occ. eigenvalues --   -0.54575  -0.54487  -0.54439  -0.54139  -0.54008
 Alpha  occ. eigenvalues --   -0.53826  -0.53641  -0.53347  -0.53088  -0.53041
 Alpha  occ. eigenvalues --   -0.52895  -0.52783  -0.52482  -0.52387  -0.52251
 Alpha  occ. eigenvalues --   -0.52031  -0.51845  -0.51587  -0.51453  -0.51370
 Alpha  occ. eigenvalues --   -0.51348  -0.51228  -0.51143  -0.50912  -0.50879
 Alpha  occ. eigenvalues --   -0.50772  -0.50717  -0.50436  -0.50423  -0.50049
 Alpha  occ. eigenvalues --   -0.50014  -0.49823  -0.49412  -0.49351  -0.49029
 Alpha  occ. eigenvalues --   -0.48776  -0.48590  -0.48096  -0.48045  -0.48006
 Alpha  occ. eigenvalues --   -0.47880  -0.47666  -0.47617  -0.47505  -0.47252
 Alpha  occ. eigenvalues --   -0.47131  -0.47088  -0.46968  -0.46887  -0.46763
 Alpha  occ. eigenvalues --   -0.46617  -0.46616  -0.46327  -0.46100  -0.46097
 Alpha  occ. eigenvalues --   -0.45963  -0.45907  -0.45741  -0.45595  -0.45411
 Alpha  occ. eigenvalues --   -0.45242  -0.45155  -0.45061  -0.44993  -0.44830
 Alpha  occ. eigenvalues --   -0.44809  -0.44498  -0.44470  -0.44403  -0.44288
 Alpha  occ. eigenvalues --   -0.44219  -0.44094  -0.43786  -0.43599  -0.43485
 Alpha  occ. eigenvalues --   -0.43290  -0.42819  -0.42606  -0.42248  -0.42132
 Alpha  occ. eigenvalues --   -0.42078  -0.41484  -0.41110  -0.40950  -0.40707
 Alpha  occ. eigenvalues --   -0.40460  -0.40372  -0.40096  -0.39892  -0.39795
 Alpha  occ. eigenvalues --   -0.39650  -0.39297  -0.38820  -0.38794  -0.38249
 Alpha  occ. eigenvalues --   -0.38246  -0.37799  -0.36880  -0.36478  -0.36233
 Alpha  occ. eigenvalues --   -0.36134  -0.35405  -0.35384  -0.33597  -0.33472
 Alpha  occ. eigenvalues --   -0.33080  -0.33061  -0.32752  -0.32590  -0.32445
 Alpha  occ. eigenvalues --   -0.32237  -0.32227  -0.31307  -0.25907  -0.25707
 Alpha  occ. eigenvalues --   -0.22868  -0.22215
 Alpha virt. eigenvalues --   -0.06703  -0.06232  -0.00235   0.00619   0.01841
 Alpha virt. eigenvalues --    0.02508   0.04261   0.04374   0.05413   0.06318
 Alpha virt. eigenvalues --    0.06710   0.07376   0.07703   0.08091   0.08490

 Mulliken charges:
               1
     1  Mg   0.973152
     2  C   -0.006787
     3  C   -0.074146
     4  C   -0.111443
     5  C   -0.060414
     6  N   -0.282035
     7  C   -0.051623
     8  C   -0.080705
     9  C   -0.121392
    10  C    0.038146
    11  C    0.009292
    12  C   -0.013342
    13  C   -0.096443
    14  H    0.058539
    15  N   -0.474602
    16  C    0.176321
    17  C   -0.164469
    18  C   -0.081393
    19  C    0.151321
    20  C    0.071259
    21  C    0.085534
    22  O   -0.233808
    23  C   -0.021637
    24  N   -0.406340
    25  C    0.075859
    26  C   -0.112131
    27  C   -0.035599
    28  C   -0.010259
    29  C    0.035615
    30  C   -0.020919
    31  C   -0.015342
    32  N   -0.411373
    33  C    0.152236
    34  C   -0.157200
    35  C   -0.070540
    36  C    0.151314
    37  C    0.070544
    38  C    0.116330
    39  O   -0.187656
    40  C   -0.074744
    41  C    0.263745
    42  O   -0.227596
    43  O   -0.360632
    44  C    0.124760
    45  H   -0.012623
    46  H    0.022398
    47  H   -0.019475
    48  H    0.047401
    49  H    0.048709
    50  H    0.042551
    51  H    0.025860
    52  H    0.050576
    53  H    0.035452
    54  H    0.032135
    55  H    0.051138
    56  H    0.036249
    57  H    0.044487
    58  H    0.048675
    59  H    0.050178
    60  H    0.058393
    61  H    0.054766
    62  H    0.041299
    63  H    0.041020
    64  H    0.042862
    65  H    0.049053
    66  H    0.031794
    67  H    0.040069
    68  H    0.022769
    69  H    0.034922
    70  H    0.032039
    71  H    0.032783
    72  H    0.035399
    73  H    0.029538
    74  H    0.041868
    75  H    0.063977
    76  H    0.079183
    77  H    0.049954
    78  H    0.069145
    79  H    0.056059
    80  Mg   0.985117
    81  C   -0.029925
    82  C   -0.097641
    83  C   -0.088097
    84  C   -0.091747
    85  N   -0.320878
    86  C   -0.001453
    87  C   -0.052438
    88  C   -0.133786
    89  C    0.011275
    90  C    0.044515
    91  C   -0.023261
    92  C   -0.099824
    93  H    0.046670
    94  N   -0.499756
    95  C    0.214662
    96  C   -0.158676
    97  C   -0.076680
    98  C    0.175363
    99  C    0.073833
   100  C    0.037716
   101  O   -0.272511
   102  C    0.020696
   103  N   -0.348964
   104  C    0.045812
   105  C   -0.087840
   106  C   -0.049407
   107  C    0.040682
   108  C    0.013478
   109  C   -0.039891
   110  C   -0.032204
   111  N   -0.452187
   112  C    0.125062
   113  C   -0.194122
   114  C   -0.008982
   115  C    0.139283
   116  C    0.070679
   117  C    0.151156
   118  O   -0.215006
   119  C   -0.144341
   120  C    0.289288
   121  O   -0.219309
   122  O   -0.405878
   123  C    0.143363
   124  H   -0.011158
   125  H    0.021189
   126  H    0.001231
   127  H    0.028688
   128  H    0.029440
   129  H    0.028581
   130  H    0.059106
   131  H    0.036172
   132  H    0.041264
   133  H    0.036939
   134  H    0.058420
   135  H    0.059611
   136  H    0.054075
   137  H    0.057804
   138  H    0.036135
   139  H    0.065607
   140  H    0.039195
   141  H    0.055203
   142  H    0.050614
   143  H    0.044478
   144  H    0.052666
   145  H    0.038288
   146  H    0.049592
   147  H    0.034798
   148  H    0.019187
   149  H    0.041745
   150  H    0.039442
   151  H    0.036829
   152  H    0.060579
   153  H    0.027133
   154  H    0.060475
   155  H    0.091804
   156  H    0.068560
   157  H    0.050150
   158  H    0.052315
 Sum of Mulliken charges =  -0.00000

 Dipole moment (field-independent basis, Debye):
    X=             -3.0422    Y=             -1.7387    Z=              4.6641  Tot=              5.8337
 Quadrupole moment (field-independent basis, Debye-Ang):
   XX=           -262.8057   YY=           -475.4685   ZZ=           -502.4195
   XY=             68.2113   XZ=             70.2672   YZ=            -24.0214

 Normal termination of Gaussian 16 at Sat Sep 18 18:05:30 2021.
