 Gaussian 16, Revision A.03,
 Gaussian 16:  ES64L-G16RevA.03 25-Dec-2016

 --------------------------------
 #p wB97XD/Def2SVP td=(nstates=5)
 --------------------------------

 --------------------------------
 TDDFT excited states in gaussian
 --------------------------------
 Symbolic Z-matrix:
 Charge =  0 Multiplicity = 1

                         Standard orientation:
 ---------------------------------------------------------------------
 Center     Atomic      Atomic             Coordinates (Angstroms)
 Number     Number       Type             X           Y           Z
 ---------------------------------------------------------------------
      1         12           0      -25.245411   -0.508861   -0.116631
      2          6           0      -21.781928   -1.261195   -0.456366
      3          6           0      -25.078625   -1.356067    3.198059
      4          6           0      -28.251116    1.201007    0.421090
      5          6           0      -25.189329    0.886916   -3.341089
      6          7           0      -23.420655   -1.006224    1.252593
      7          6           0      -22.222304   -1.478716    0.872523
      8          6           0      -21.637550   -2.322839    1.990148
      9          6           0      -22.667256   -2.308355    3.219956
     10          6           0      -23.877525   -1.610120    2.416038
     11          6           0      -22.958082   -3.765911    3.642716
     12          6           0      -20.261857   -1.814198    2.389947
     13          6           0      -20.059786   -0.280290    2.399132
     14          1           0      -19.965600    0.405976    3.789257
     15          7           0      -26.568660   -0.193594    1.587326
     16          6           0      -26.251676   -0.636609    2.853007
     17          6           0      -27.416655   -0.404363    3.647903
     18          6           0      -28.354351    0.428140    2.925891
     19          6           0      -27.788614    0.490882    1.554476
     20          6           0      -27.486280   -0.761926    5.114534
     21          6           0      -29.557414    1.190177    3.483865
     22          8           0      -29.796634    1.161092    4.675687
     23          6           0      -30.440633    1.973784    2.673144
     24          7           0      -26.493695    0.933756   -1.246942
     25          6           0      -27.696362    1.332531   -0.859935
     26          6           0      -28.386684    2.234481   -1.870115
     27          6           0      -27.205757    2.409473   -2.919114
     28          6           0      -26.261835    1.323501   -2.547136
     29          6           0      -29.714726    1.596785   -2.510361
     30          6           0      -26.624781    3.896975   -2.864198
     31          6           0      -26.825852    4.837677   -4.018393
     32          7           0      -23.942433   -0.446901   -1.645625
     33          6           0      -24.100707    0.047157   -2.956484
     34          6           0      -22.917001   -0.268433   -3.777629
     35          6           0      -22.045563   -0.788018   -2.820558
     36          6           0      -22.619231   -0.783204   -1.501214
     37          6           0      -22.721202   -0.167176   -5.329844
     38          6           0      -20.683486   -1.311804   -2.676430
     39          8           0      -19.761044   -1.513151   -3.483564
     40          6           0      -20.452701   -1.655410   -1.167827
     41          6           0      -19.350156   -0.702080   -0.859628
     42          8           0      -19.408819    0.494161   -0.985961
     43          8           0      -18.243973   -1.370443   -0.545994
     44          6           0      -17.020051   -0.610203   -0.112424
     45          1           0      -25.120778   -1.892387    4.148186
     46          1           0      -29.211734    1.719916    0.425141
     47          1           0      -25.237814    1.448297   -4.277047
     48          1           0      -21.562479   -3.266563    1.449866
     49          1           0      -22.309058   -1.710964    4.058782
     50          1           0      -22.657906   -3.882751    4.683842
     51          1           0      -22.402559   -4.519080    3.083344
     52          1           0      -24.038475   -3.886085    3.567287
     53          1           0      -19.511266   -2.227006    1.715871
     54          1           0      -20.024694   -2.115492    3.410695
     55          1           0      -20.863105    0.339548    2.001155
     56          1           0      -19.139625   -0.126306    1.835371
     57          1           0      -26.542944   -1.170487    5.477783
     58          1           0      -28.352230   -1.409959    5.254037
     59          1           0      -27.775207    0.140099    5.652817
     60          1           0      -29.988602    2.841766    2.192688
     61          1           0      -31.258239    2.346947    3.289591
     62          1           0      -30.748112    1.265707    1.902848
     63          1           0      -28.590671    3.239556   -1.501774
     64          1           0      -27.755345    2.369167   -3.859727
     65          1           0      -29.919474    0.634990   -2.039211
     66          1           0      -29.505321    1.410921   -3.563957
     67          1           0      -30.604804    2.227633   -2.493870
     68          1           0      -25.535167    3.894023   -2.833131
     69          1           0      -26.988048    4.425767   -1.984062
     70          1           0      -25.951453    4.941610   -4.660880
     71          1           0      -27.002551    5.761356   -3.466324
     72          1           0      -27.770321    4.717231   -4.549284
     73          1           0      -22.581106    0.884917   -5.576478
     74          1           0      -23.592075   -0.632030   -5.792294
     75          1           0      -21.789352   -0.668481   -5.590846
     76          1           0      -20.204083   -2.716889   -1.137775
     77          1           0      -16.415930   -0.266834   -0.952516
     78          1           0      -16.381741   -1.222498    0.525863
     79          1           0      -17.407095    0.224597    0.471848
     80         12           0       24.913502    0.393782   -0.028361
     81          6           0       21.962707   -1.179321   -0.652264
     82          6           0       26.606335   -2.599403   -0.138139
     83          6           0       27.742073    2.070839    0.776274
     84          6           0       23.080197    3.359968    0.548262
     85          7           0       24.301857   -1.696042   -0.141081
     86          6           0       23.114740   -2.032046   -0.712836
     87          6           0       23.075943   -3.433588   -1.220471
     88          6           0       24.553292   -3.918104   -0.780347
     89          6           0       25.223492   -2.666453   -0.316942
     90          6           0       24.522243   -5.030776    0.362906
     91          6           0       22.900439   -3.402213   -2.810143
     92          6           0       22.318226   -4.650691   -3.476433
     93          1           0       22.180937   -6.028992   -2.782935
     94          7           0       26.929523   -0.118744    0.189297
     95          6           0       27.416406   -1.434517    0.124681
     96          6           0       28.837739   -1.371226    0.374690
     97          6           0       29.183945   -0.025095    0.610136
     98          6           0       27.923867    0.692839    0.475992
     99          6           0       29.720345   -2.638860    0.297722
    100          6           0       30.629704    0.562960    1.035098
    101          8           0       30.869957    1.776025    1.082203
    102          6           0       31.834932   -0.296750    1.378692
    103          7           0       25.336427    2.496287    0.519904
    104          6           0       26.596848    2.879545    0.834605
    105          6           0       26.616853    4.273809    1.458915
    106          6           0       25.126747    4.826977    1.071527
    107          6           0       24.452893    3.536909    0.578310
    108          6           0       27.050191    4.351423    2.994106
    109          6           0       25.042614    5.860513   -0.163096
    110          6           0       24.263195    7.153982   -0.012786
    111          7           0       22.936231    1.065155   -0.078370
    112          6           0       22.338673    2.241999    0.178105
    113          6           0       20.874037    2.140426   -0.111959
    114          6           0       20.734526    0.786289   -0.498373
    115          6           0       22.003527    0.180690   -0.328545
    116          6           0       19.797282    3.166491   -0.075314
    117          6           0       19.737928   -0.123010   -0.924768
    118          8           0       18.517049    0.050215   -1.118215
    119          6           0       20.486500   -1.448315   -1.041912
    120          6           0       19.889737   -2.402529   -0.135530
    121          8           0       19.696712   -2.345852    1.038629
    122          8           0       19.649057   -3.549991   -0.885366
    123          6           0       19.079616   -4.810537   -0.272066
    124          1           0       27.235056   -3.459029   -0.377760
    125          1           0       28.640060    2.583415    1.128450
    126          1           0       22.435441    4.170609    0.892355
    127          1           0       22.336584   -4.150323   -0.863612
    128          1           0       25.102517   -4.332622   -1.625682
    129          1           0       25.292378   -5.799219    0.300034
    130          1           0       23.512392   -5.433323    0.440514
    131          1           0       24.712090   -4.508350    1.301091
    132          1           0       23.844317   -3.189196   -3.312336
    133          1           0       22.235910   -2.559843   -3.003946
    134          1           0       22.897028   -4.789134   -4.390505
    135          1           0       21.320280   -4.412786   -3.842709
    136          1           0       29.187096   -3.539010   -0.007731
    137          1           0       30.171223   -2.762428    1.281818
    138          1           0       30.529089   -2.421484   -0.400356
    139          1           0       32.120583   -0.753013    0.431612
    140          1           0       31.562853   -1.196084    1.931568
    141          1           0       32.545202    0.267049    1.983119
    142          1           0       27.331014    4.876004    0.896011
    143          1           0       24.648985    5.295665    1.932085
    144          1           0       26.268610    4.805262    3.603877
    145          1           0       27.980230    4.910142    3.092396
    146          1           0       27.176985    3.350934    3.408369
    147          1           0       24.715316    5.370701   -1.080073
    148          1           0       26.072054    6.127620   -0.399948
    149          1           0       23.518840    7.158946   -0.808273
    150          1           0       24.896921    8.039731   -0.046959
    151          1           0       23.696180    7.134006    0.918964
    152          1           0       20.135776    4.179753    0.140448
    153          1           0       19.056967    2.925976    0.688139
    154          1           0       19.300547    3.175293   -1.045303
    155          1           0       20.450553   -1.853900   -2.053425
    156          1           0       18.954470   -4.686128    0.803773
    157          1           0       19.784674   -5.632152   -0.405226
    158          1           0       18.125818   -4.970436   -0.774788
 ---------------------------------------------------------------------

 SCF Done:  E(RwB97XD) =  -4070.56973531     A.U. after   19 cycles

 Excitation energies and oscillator strengths:

 Excited State   1:      Singlet-A      1.6285 eV  761.34 nm  f=0.3546  <S**2>=0.000
     309 -> 315        0.20689
     311 -> 313        0.67851
     309 <- 315        0.12523
 This state for optimization and/or second-order correction.
 Total Energy, E(TD-HF/TD-DFT) =  -4070.50988914
 Copying the excited state density for this state as the 1-particle RhoCI density.

 Excited State   2:      Singlet-A      1.6817 eV  737.27 nm  f=0.3923  <S**2>=0.000
     310 -> 316       -0.19775
     312 -> 314        0.68063
     310 <- 316       -0.11935

 Excited State   3:      Singlet-A      2.1415 eV  578.96 nm  f=0.0705  <S**2>=0.000
     309 -> 313        0.61694
     311 -> 315       -0.33159

 Excited State   4:      Singlet-A      2.1739 eV  570.33 nm  f=0.0988  <S**2>=0.000
     310 -> 314        0.63670
     312 -> 316        0.29860

 Excited State   5:      Singlet-A      3.1860 eV  389.16 nm  f=0.0154  <S**2>=0.000
     308 -> 313        0.65676
     308 -> 318       -0.10731
     311 -> 315        0.20230

 The electronic state is 1-A.
 Alpha  occ. eigenvalues --  -46.96530 -46.95727 -19.30272 -19.28930 -19.24523
 Alpha  occ. eigenvalues --  -19.24205 -19.23896 -19.23891 -19.23772 -19.23073
 Alpha  occ. eigenvalues --  -14.47041 -14.46999 -14.46547 -14.46275 -14.44731
 Alpha  occ. eigenvalues --  -14.44139 -14.44126 -14.43976 -10.42548 -10.42482
 Alpha  occ. eigenvalues --  -10.40215 -10.38984 -10.38528 -10.38249 -10.36201
 Alpha  occ. eigenvalues --  -10.36098 -10.35793 -10.35658 -10.35382 -10.34998
 Alpha  occ. eigenvalues --  -10.34994 -10.34714 -10.34702 -10.34668 -10.34658
 Alpha  occ. eigenvalues --  -10.34205 -10.34036 -10.33950 -10.33896 -10.33887
 Alpha  occ. eigenvalues --  -10.33721 -10.33057 -10.32986 -10.32985 -10.32931
 Alpha  occ. eigenvalues --  -10.32794 -10.32792 -10.32421 -10.32380 -10.32363
 Alpha  occ. eigenvalues --  -10.32338 -10.32326 -10.32285 -10.32208 -10.32203
 Alpha  occ. eigenvalues --  -10.32180 -10.32019 -10.32011 -10.31882 -10.31860
 Alpha  occ. eigenvalues --  -10.31710 -10.31594 -10.31454 -10.31425 -10.31399
 Alpha  occ. eigenvalues --  -10.31309 -10.31129 -10.30974 -10.30848 -10.30666
 Alpha  occ. eigenvalues --  -10.30525 -10.30514 -10.30466 -10.30323 -10.30113
 Alpha  occ. eigenvalues --  -10.30061 -10.30042 -10.30021 -10.29953 -10.29911
 Alpha  occ. eigenvalues --  -10.29808 -10.29488 -10.29303 -10.29160 -10.28972
 Alpha  occ. eigenvalues --  -10.28831  -3.22324  -3.21583  -1.95868  -1.95471
 Alpha  occ. eigenvalues --   -1.95256  -1.95192  -1.94686  -1.94563  -1.19213
 Alpha  occ. eigenvalues --   -1.17784  -1.12412  -1.11713  -1.11021  -1.10591
 Alpha  occ. eigenvalues --   -1.09880  -1.09414  -1.07617  -1.06581  -1.06467
 Alpha  occ. eigenvalues --   -1.05659  -1.05583  -1.04645  -1.04413  -1.03645
 Alpha  occ. eigenvalues --   -0.95510  -0.93904  -0.90817  -0.90660  -0.90537
 Alpha  occ. eigenvalues --   -0.90149  -0.90126  -0.89429  -0.89007  -0.88986
 Alpha  occ. eigenvalues --   -0.88788  -0.88155  -0.88055  -0.87319  -0.86583
 Alpha  occ. eigenvalues --   -0.86271  -0.85904  -0.85349  -0.84765  -0.84510
 Alpha  occ. eigenvalues --   -0.84246  -0.83515  -0.83125  -0.83037  -0.82264
 Alpha  occ. eigenvalues --   -0.82194  -0.80366  -0.79823  -0.79400  -0.79275
 Alpha  occ. eigenvalues --   -0.79055  -0.78321  -0.78193  -0.78122  -0.77101
 Alpha  occ. eigenvalues --   -0.76899  -0.74833  -0.74601  -0.73953  -0.73701
 Alpha  occ. eigenvalues --   -0.71274  -0.70835  -0.70560  -0.70432  -0.70155
 Alpha  occ. eigenvalues --   -0.70077  -0.68674  -0.67958  -0.67477  -0.67246
 Alpha  occ. eigenvalues --   -0.67160  -0.67140  -0.66757  -0.66509  -0.66243
 Alpha  occ. eigenvalues --   -0.66013  -0.64398  -0.63833  -0.62461  -0.62233
 Alpha  occ. eigenvalues --   -0.61884  -0.61239  -0.61172  -0.60989  -0.60797
 Alpha  occ. eigenvalues --   -0.60619  -0.60433  -0.59799  -0.59735  -0.59237
 Alpha  occ. eigenvalues --   -0.58202  -0.58013  -0.57802  -0.57507  -0.57231
 Alpha  occ. eigenvalues --   -0.56953  -0.56855  -0.56460  -0.56138  -0.55800
 Alpha  occ. eigenvalues --   -0.55699  -0.55377  -0.54998  -0.54953  -0.54893
 Alpha  occ. eigenvalues --   -0.54700  -0.54563  -0.54440  -0.54107  -0.54074
 Alpha  occ. eigenvalues --   -0.53949  -0.53663  -0.53589  -0.53547  -0.53438
 Alpha  occ. eigenvalues --   -0.53344  -0.52756  -0.52584  -0.52477  -0.52055
 Alpha  occ. eigenvalues --   -0.51722  -0.51718  -0.51602  -0.51600  -0.51369
 Alpha  occ. eigenvalues --   -0.51362  -0.51148  -0.51062  -0.50909  -0.50812
 Alpha  occ. eigenvalues --   -0.50462  -0.50238  -0.50164  -0.50087  -0.49879
 Alpha  occ. eigenvalues --   -0.49697  -0.49546  -0.49237  -0.49215  -0.48893
 Alpha  occ. eigenvalues --   -0.48867  -0.48821  -0.48517  -0.48496  -0.48390
 Alpha  occ. eigenvalues --   -0.48186  -0.48141  -0.48082  -0.47722  -0.47530
 Alpha  occ. eigenvalues --   -0.47510  -0.47220  -0.47128  -0.47073  -0.47015
 Alpha  occ. eigenvalues --   -0.46781  -0.46632  -0.46265  -0.46248  -0.46227
 Alpha  occ. eigenvalues --   -0.45901  -0.45901  -0.45823  -0.45646  -0.45585
 Alpha  occ. eigenvalues --   -0.45480  -0.45110  -0.45066  -0.44839  -0.44584
 Alpha  occ. eigenvalues --   -0.44324  -0.44315  -0.43952  -0.43673  -0.43561
 Alpha  occ. eigenvalues --   -0.43438  -0.43334  -0.43294  -0.43236  -0.43061
 Alpha  occ. eigenvalues --   -0.42918  -0.42757  -0.42748  -0.42101  -0.41979
 Alpha  occ. eigenvalues --   -0.41946  -0.41708  -0.41647  -0.41335  -0.40528
 Alpha  occ. eigenvalues --   -0.40318  -0.39884  -0.39740  -0.39522  -0.39367
 Alpha  occ. eigenvalues --   -0.39121  -0.38826  -0.38760  -0.38566  -0.38317
 Alpha  occ. eigenvalues --   -0.38115  -0.37664  -0.36461  -0.36221  -0.36172
 Alpha  occ. eigenvalues --   -0.36068  -0.35596  -0.35402  -0.33575  -0.33382
 Alpha  occ. eigenvalues --   -0.33130  -0.33014  -0.32739  -0.32590  -0.32365
 Alpha  occ. eigenvalues --   -0.32357  -0.32223  -0.31102  -0.26183  -0.25747
 Alpha  occ. eigenvalues --   -0.23102  -0.22933
 Alpha virt. eigenvalues --   -0.07103  -0.06858  -0.00645   0.00196   0.02045
 Alpha virt. eigenvalues --    0.02364   0.04157   0.04446   0.04594   0.05830
 Alpha virt. eigenvalues --    0.07197   0.07324   0.07615   0.08016   0.08372

 Mulliken charges:
               1
     1  Mg   0.942017
     2  C   -0.038135
     3  C   -0.073470
     4  C   -0.078325
     5  C   -0.055618
     6  N   -0.320044
     7  C   -0.052735
     8  C   -0.003271
     9  C   -0.147370
    10  C    0.056818
    11  C    0.022579
    12  C   -0.011298
    13  C   -0.138285
    14  H    0.013845
    15  N   -0.462285
    16  C    0.168105
    17  C   -0.175029
    18  C   -0.086700
    19  C    0.201773
    20  C    0.084783
    21  C    0.035871
    22  O   -0.236021
    23  C    0.005344
    24  N   -0.322796
    25  C    0.047425
    26  C   -0.151687
    27  C   -0.062480
    28  C    0.046651
    29  C    0.017257
    30  C   -0.028938
    31  C   -0.050501
    32  N   -0.501242
    33  C    0.150827
    34  C   -0.184746
    35  C   -0.035096
    36  C    0.186922
    37  C    0.087879
    38  C    0.097793
    39  O   -0.231057
    40  C   -0.050487
    41  C    0.238026
    42  O   -0.235904
    43  O   -0.346738
    44  C    0.130805
    45  H    0.013623
    46  H   -0.019996
    47  H    0.003332
    48  H    0.035237
    49  H    0.061590
    50  H    0.033390
    51  H    0.044485
    52  H    0.040363
    53  H    0.041116
    54  H    0.041304
    55  H    0.087271
    56  H    0.047549
    57  H    0.029811
    58  H    0.048541
    59  H    0.062075
    60  H    0.066371
    61  H    0.056698
    62  H    0.054672
    63  H    0.040388
    64  H    0.018073
    65  H    0.043558
    66  H    0.031190
    67  H    0.046319
    68  H    0.037508
    69  H    0.032165
    70  H    0.053226
    71  H    0.028096
    72  H    0.026632
    73  H    0.054299
    74  H    0.056605
    75  H    0.063037
    76  H    0.067941
    77  H    0.072803
    78  H    0.059173
    79  H    0.067094
    80  Mg   0.950844
    81  C   -0.080162
    82  C   -0.065094
    83  C   -0.054641
    84  C   -0.099728
    85  N   -0.357634
    86  C    0.029334
    87  C   -0.079443
    88  C   -0.109785
    89  C    0.090006
    90  C    0.022801
    91  C   -0.013580
    92  C   -0.098893
    93  H    0.035601
    94  N   -0.438886
    95  C    0.108638
    96  C   -0.179303
    97  C   -0.083544
    98  C    0.122413
    99  C    0.062314
   100  C    0.076006
   101  O   -0.249655
   102  C    0.010408
   103  N   -0.332249
   104  C    0.030904
   105  C   -0.062630
   106  C   -0.122818
   107  C    0.111040
   108  C    0.017298
   109  C   -0.023498
   110  C   -0.037691
   111  N   -0.390438
   112  C    0.092530
   113  C   -0.157291
   114  C   -0.058440
   115  C    0.195149
   116  C    0.082422
   117  C    0.129166
   118  O   -0.229526
   119  C   -0.055380
   120  C    0.260408
   121  O   -0.202719
   122  O   -0.416588
   123  C    0.130294
   124  H   -0.007813
   125  H    0.015263
   126  H    0.000051
   127  H    0.042214
   128  H    0.032265
   129  H    0.044437
   130  H    0.032995
   131  H    0.038528
   132  H    0.033237
   133  H    0.032498
   134  H    0.043008
   135  H    0.053475
   136  H    0.042700
   137  H    0.051434
   138  H    0.048471
   139  H    0.054871
   140  H    0.026350
   141  H    0.075588
   142  H    0.037493
   143  H    0.035309
   144  H    0.033692
   145  H    0.050451
   146  H    0.045471
   147  H    0.038404
   148  H    0.020846
   149  H    0.037113
   150  H    0.048336
   151  H    0.024426
   152  H    0.023631
   153  H    0.065364
   154  H    0.063754
   155  H    0.069630
   156  H    0.065942
   157  H    0.053373
   158  H    0.069230
 Sum of Mulliken charges =  -0.00000

 Dipole moment (field-independent basis, Debye):
    X=              1.4406    Y=             -3.1487    Z=             -2.2671  Tot=              4.1387
 Quadrupole moment (field-independent basis, Debye-Ang):
   XX=           -297.7647   YY=           -461.4423   ZZ=           -519.4637
   XY=            -52.0623   XZ=             41.9195   YZ=            -11.8446

 Normal termination of Gaussian 16 at Sat Sep 18 15:26:07 2021.
