 Gaussian 16, Revision A.03,
 Gaussian 16:  ES64L-G16RevA.03 25-Dec-2016

 --------------------------------
 #p wB97XD/Def2SVP td=(nstates=5)
 --------------------------------

 --------------------------------
 TDDFT excited states in gaussian
 --------------------------------
 Symbolic Z-matrix:
 Charge =  0 Multiplicity = 1

                         Standard orientation:
 ---------------------------------------------------------------------
 Center     Atomic      Atomic             Coordinates (Angstroms)
 Number     Number       Type             X           Y           Z
 ---------------------------------------------------------------------
      1         12           0       18.802874   -0.366218   -0.517436
      2          6           0       16.270275    1.840323    0.369275
      3          6           0       20.541253    0.830636    2.373433
      4          6           0       21.046518   -2.731361   -0.938683
      5          6           0       16.604919   -1.842257   -2.830017
      6          7           0       18.373210    1.067514    1.221848
      7          6           0       17.285250    1.909914    1.271667
      8          6           0       17.355890    2.787986    2.523973
      9          6           0       18.841474    2.616975    2.945903
     10          6           0       19.294471    1.405569    2.174155
     11          6           0       19.837679    3.817824    2.702365
     12          6           0       16.357132    2.365732    3.614017
     13          6           0       16.256478    3.275096    4.778524
     14          1           0       14.934032    3.203519    5.633572
     15          7           0       20.575463   -0.911612    0.575064
     16          6           0       21.125597   -0.284773    1.704012
     17          6           0       22.337630   -0.974053    2.048932
     18          6           0       22.434666   -2.114144    1.168653
     19          6           0       21.316377   -1.935049    0.179344
     20          6           0       23.209272   -0.588186    3.275816
     21          6           0       23.552790   -3.155175    1.282876
     22          8           0       24.505301   -2.999366    2.028837
     23          6           0       23.478418   -4.382088    0.456655
     24          7           0       18.895275   -1.915727   -1.880646
     25          6           0       19.959044   -2.726138   -1.870329
     26          6           0       19.725088   -3.926851   -2.873975
     27          6           0       18.280203   -3.716419   -3.469984
     28          6           0       17.845884   -2.398972   -2.622849
     29          6           0       20.821805   -4.196854   -3.937443
     30          6           0       17.384519   -4.929920   -3.141099
     31          6           0       16.275516   -5.218428   -4.160201
     32          7           0       16.822313   -0.116496   -1.169015
     33          6           0       16.109443   -0.689297   -2.184813
     34          6           0       14.854567    0.054487   -2.347747
     35          6           0       14.932565    1.081647   -1.445951
     36          6           0       16.083161    0.921846   -0.707548
     37          6           0       13.786226   -0.201297   -3.415724
     38          6           0       14.221905    2.207527   -0.918701
     39          8           0       13.172225    2.717505   -1.224435
     40          6           0       15.070890    2.757366    0.275847
     41          6           0       15.516861    4.130949   -0.085853
     42          8           0       16.039123    4.478849   -1.108427
     43          8           0       15.357581    4.961788    1.036762
     44          6           0       15.818776    6.311852    0.880023
     45          1           0       21.032055    1.325360    3.213606
     46          1           0       21.711839   -3.553631   -1.211799
     47          1           0       15.923769   -2.231612   -3.589716
     48          1           0       17.223086    3.811345    2.175596
     49          1           0       19.011970    2.330905    3.983194
     50          1           0       20.317593    3.959683    3.670460
     51          1           0       19.488586    4.655020    2.097339
     52          1           0       20.635704    3.428217    2.070504
     53          1           0       16.583466    1.428344    4.122853
     54          1           0       15.367705    2.232198    3.176494
     55          1           0       16.388048    4.286937    4.395161
     56          1           0       17.111394    3.104384    5.432568
     57          1           0       22.905601   -1.414984    3.918706
     58          1           0       22.893108    0.297514    3.827258
     59          1           0       24.295920   -0.508018    3.241049
     60          1           0       22.468270   -4.758602    0.617665
     61          1           0       24.173490   -5.114817    0.866955
     62          1           0       23.668605   -4.017557   -0.553123
     63          1           0       19.731515   -4.824570   -2.255139
     64          1           0       18.246038   -3.488686   -4.534908
     65          1           0       21.362963   -5.096007   -3.641158
     66          1           0       21.430746   -3.299522   -4.042263
     67          1           0       20.356123   -4.470296   -4.884242
     68          1           0       16.962749   -4.705579   -2.161693
     69          1           0       17.935377   -5.852290   -2.955921
     70          1           0       16.483387   -6.246340   -4.459307
     71          1           0       16.226934   -4.513525   -4.990267
     72          1           0       15.303044   -5.227473   -3.667793
     73          1           0       12.750269   -0.181546   -3.078962
     74          1           0       14.083293   -1.178796   -3.796394
     75          1           0       14.035737    0.454345   -4.250126
     76          1           0       14.407673    2.769048    1.140863
     77          1           0       14.927218    6.938124    0.846968
     78          1           0       16.455946    6.565542    0.032477
     79          1           0       16.418682    6.551571    1.757529
     80         12           0      -18.856165   -0.497286    0.032629
     81          6           0      -15.901728    1.436605   -0.007294
     82          6           0      -19.993609    1.199912   -2.706696
     83          6           0      -21.813225   -1.857247    0.558354
     84          6           0      -17.785550   -1.834750    3.139207
     85          7           0      -17.956265    1.062212   -1.269319
     86          6           0      -16.790103    1.649893   -1.088025
     87          6           0      -16.423593    2.383753   -2.365334
     88          6           0      -17.825833    2.689544   -3.019542
     89          6           0      -18.683894    1.587815   -2.292835
     90          6           0      -18.242968    4.194594   -2.808422
     91          6           0      -15.589258    1.508157   -3.335222
     92          6           0      -14.742969    2.300528   -4.426023
     93          1           0      -14.782829    3.827544   -4.529900
     94          7           0      -20.557118   -0.510426   -1.034735
     95          6           0      -20.861417    0.205188   -2.221088
     96          6           0      -22.211863   -0.202484   -2.674092
     97          6           0      -22.778428   -1.047264   -1.653222
     98          6           0      -21.733814   -1.203521   -0.617866
     99          6           0      -22.816638    0.224107   -3.964976
    100          6           0      -24.171634   -1.775740   -1.514585
    101          8           0      -24.460630   -2.552327   -0.594031
    102          6           0      -25.265350   -1.406316   -2.474298
    103          7           0      -19.737462   -1.604442    1.701817
    104          6           0      -20.947434   -2.094458    1.647000
    105          6           0      -21.350537   -2.941700    2.821224
    106          6           0      -20.042998   -2.941542    3.688775
    107          6           0      -19.071817   -2.150713    2.755742
    108          6           0      -22.656472   -2.452888    3.454552
    109          6           0      -19.491966   -4.324704    4.011839
    110          6           0      -18.920503   -4.535677    5.459641
    111          7           0      -17.141094   -0.353355    1.354173
    112          6           0      -16.843487   -1.003834    2.567705
    113          6           0      -15.500452   -0.704015    2.928152
    114          6           0      -15.124751    0.379061    2.071068
    115          6           0      -16.109931    0.513814    1.125903
    116          6           0      -14.686921   -1.430774    3.960350
    117          6           0      -14.081135    1.326874    1.611765
    118          8           0      -12.981856    1.558998    2.070200
    119          6           0      -14.700399    2.193156    0.414329
    120          6           0      -13.632567    2.609531   -0.543513
    121          8           0      -12.933099    1.888255   -1.191723
    122          8           0      -13.455558    4.005768   -0.537073
    123          6           0      -12.092786    4.500875   -0.825465
    124          1           0      -20.499962    1.822692   -3.447682
    125          1           0      -22.699141   -2.463795    0.754554
    126          1           0      -17.456713   -2.323654    4.058686
    127          1           0      -15.775600    3.183412   -2.006670
    128          1           0      -17.819619    2.492370   -4.092070
    129          1           0      -17.480810    4.720351   -2.234248
    130          1           0      -19.092471    4.127152   -2.128757
    131          1           0      -18.388095    4.761733   -3.727959
    132          1           0      -16.332898    0.897189   -3.848536
    133          1           0      -14.951579    0.871542   -2.721984
    134          1           0      -15.054944    1.866932   -5.377382
    135          1           0      -13.715328    1.972456   -4.267860
    136          1           0      -22.193210    0.726700   -4.703584
    137          1           0      -23.626752    0.939456   -3.826027
    138          1           0      -23.150203   -0.711973   -4.413541
    139          1           0      -25.257472   -1.981484   -3.400037
    140          1           0      -25.033397   -0.348288   -2.602309
    141          1           0      -26.197694   -1.519374   -1.921758
    142          1           0      -21.499504   -3.913695    2.351151
    143          1           0      -20.142966   -2.419633    4.639673
    144          1           0      -22.858246   -1.394007    3.289909
    145          1           0      -22.517207   -2.582616    4.527080
    146          1           0      -23.526749   -3.011688    3.109664
    147          1           0      -18.686226   -4.595583    3.329767
    148          1           0      -20.286339   -5.001413    3.697335
    149          1           0      -18.870321   -3.596233    6.009857
    150          1           0      -17.905849   -4.898947    5.297846
    151          1           0      -19.407574   -5.255804    6.117942
    152          1           0      -15.330964   -1.478515    4.838566
    153          1           0      -13.758959   -0.932218    4.240996
    154          1           0      -14.509360   -2.457130    3.637581
    155          1           0      -15.002813    3.161876    0.810821
    156          1           0      -12.134415    5.064749   -1.757470
    157          1           0      -11.362527    3.693236   -0.886748
    158          1           0      -11.847726    5.159616    0.007627
 ---------------------------------------------------------------------

 SCF Done:  E(RwB97XD) =  -4070.60254531     A.U. after   19 cycles

 Excitation energies and oscillator strengths:

 Excited State   1:      Singlet-A      1.7219 eV  720.06 nm  f=0.4118  <S**2>=0.000
     309 -> 316        0.17624
     311 -> 313        0.68532
     309 <- 316        0.11114
 This state for optimization and/or second-order correction.
 Total Energy, E(TD-HF/TD-DFT) =  -4070.53926783
 Copying the excited state density for this state as the 1-particle RhoCI density.

 Excited State   2:      Singlet-A      1.7662 eV  701.98 nm  f=0.3594  <S**2>=0.000
     310 -> 315        0.19123
     312 -> 314        0.67820
     310 <- 315        0.11015

 Excited State   3:      Singlet-A      2.1195 eV  584.98 nm  f=0.0965  <S**2>=0.000
     310 -> 314        0.63987
     312 -> 315       -0.27485

 Excited State   4:      Singlet-A      2.2424 eV  552.91 nm  f=0.1144  <S**2>=0.000
     309 -> 313        0.63520
     311 -> 316       -0.29264

 Excited State   5:      Singlet-A      3.2677 eV  379.42 nm  f=0.0031  <S**2>=0.000
     304 -> 314       -0.16744
     307 -> 314        0.15563
     308 -> 314        0.64117
     308 -> 317       -0.10651

 The electronic state is 1-A.
 Alpha  occ. eigenvalues --  -46.95959 -46.94839 -19.30124 -19.28425 -19.25396
 Alpha  occ. eigenvalues --  -19.25354 -19.24407 -19.23718 -19.23476 -19.23288
 Alpha  occ. eigenvalues --  -14.47186 -14.46924 -14.46491 -14.46289 -14.44819
 Alpha  occ. eigenvalues --  -14.44407 -14.43606 -14.42533 -10.43284 -10.42322
 Alpha  occ. eigenvalues --  -10.40833 -10.38819 -10.38725 -10.38064 -10.36405
 Alpha  occ. eigenvalues --  -10.36307 -10.35696 -10.35671 -10.35289 -10.35145
 Alpha  occ. eigenvalues --  -10.35013 -10.34925 -10.34903 -10.34870 -10.34620
 Alpha  occ. eigenvalues --  -10.34534 -10.34501 -10.34028 -10.33748 -10.33634
 Alpha  occ. eigenvalues --  -10.33404 -10.33116 -10.32498 -10.32279 -10.32230
 Alpha  occ. eigenvalues --  -10.32226 -10.32224 -10.32198 -10.32196 -10.32136
 Alpha  occ. eigenvalues --  -10.31968 -10.31955 -10.31952 -10.31919 -10.31902
 Alpha  occ. eigenvalues --  -10.31857 -10.31778 -10.31718 -10.31709 -10.31627
 Alpha  occ. eigenvalues --  -10.31626 -10.31578 -10.31567 -10.31387 -10.31360
 Alpha  occ. eigenvalues --  -10.30846 -10.30796 -10.30712 -10.30665 -10.30453
 Alpha  occ. eigenvalues --  -10.30357 -10.30275 -10.30113 -10.30100 -10.30096
 Alpha  occ. eigenvalues --  -10.29943 -10.29930 -10.29882 -10.29820 -10.29684
 Alpha  occ. eigenvalues --  -10.29668 -10.29509 -10.29385 -10.29375 -10.28339
 Alpha  occ. eigenvalues --  -10.27881  -3.21837  -3.20750  -1.95429  -1.94961
 Alpha  occ. eigenvalues --   -1.94791  -1.94352  -1.93872  -1.93712  -1.18712
 Alpha  occ. eigenvalues --   -1.17265  -1.12753  -1.12476  -1.12338  -1.11664
 Alpha  occ. eigenvalues --   -1.10970  -1.09126  -1.07075  -1.06550  -1.06480
 Alpha  occ. eigenvalues --   -1.05791  -1.05688  -1.04820  -1.03625  -1.03046
 Alpha  occ. eigenvalues --   -0.95170  -0.93697  -0.91237  -0.91134  -0.91128
 Alpha  occ. eigenvalues --   -0.90821  -0.90664  -0.89972  -0.89639  -0.89506
 Alpha  occ. eigenvalues --   -0.89149  -0.88376  -0.87854  -0.87283  -0.87103
 Alpha  occ. eigenvalues --   -0.85878  -0.85872  -0.85547  -0.85040  -0.84816
 Alpha  occ. eigenvalues --   -0.84480  -0.83567  -0.83192  -0.82777  -0.82539
 Alpha  occ. eigenvalues --   -0.81765  -0.80589  -0.79666  -0.79218  -0.79053
 Alpha  occ. eigenvalues --   -0.79022  -0.78247  -0.78083  -0.77449  -0.77255
 Alpha  occ. eigenvalues --   -0.77056  -0.75161  -0.74424  -0.73989  -0.73653
 Alpha  occ. eigenvalues --   -0.71718  -0.71263  -0.70938  -0.70572  -0.69707
 Alpha  occ. eigenvalues --   -0.69198  -0.68714  -0.68605  -0.67945  -0.67919
 Alpha  occ. eigenvalues --   -0.67508  -0.67073  -0.66920  -0.66569  -0.66516
 Alpha  occ. eigenvalues --   -0.65407  -0.64620  -0.62977  -0.62262  -0.62237
 Alpha  occ. eigenvalues --   -0.61827  -0.61246  -0.61054  -0.60739  -0.60540
 Alpha  occ. eigenvalues --   -0.60403  -0.59983  -0.59519  -0.59500  -0.58737
 Alpha  occ. eigenvalues --   -0.58452  -0.58433  -0.57783  -0.57405  -0.57365
 Alpha  occ. eigenvalues --   -0.56981  -0.56784  -0.56269  -0.56115  -0.55899
 Alpha  occ. eigenvalues --   -0.55648  -0.55478  -0.55232  -0.55102  -0.55058
 Alpha  occ. eigenvalues --   -0.55021  -0.54720  -0.54528  -0.54103  -0.53888
 Alpha  occ. eigenvalues --   -0.53802  -0.53639  -0.53613  -0.53568  -0.53241
 Alpha  occ. eigenvalues --   -0.53129  -0.52829  -0.52763  -0.52603  -0.52416
 Alpha  occ. eigenvalues --   -0.52255  -0.52153  -0.52032  -0.51906  -0.51746
 Alpha  occ. eigenvalues --   -0.51197  -0.51145  -0.50918  -0.50798  -0.50785
 Alpha  occ. eigenvalues --   -0.50608  -0.50212  -0.50197  -0.50018  -0.49907
 Alpha  occ. eigenvalues --   -0.49717  -0.49441  -0.49436  -0.49285  -0.49192
 Alpha  occ. eigenvalues --   -0.49037  -0.48942  -0.48895  -0.48521  -0.48408
 Alpha  occ. eigenvalues --   -0.48370  -0.48286  -0.48048  -0.48032  -0.47735
 Alpha  occ. eigenvalues --   -0.47464  -0.47309  -0.47255  -0.46974  -0.46918
 Alpha  occ. eigenvalues --   -0.46723  -0.46593  -0.46128  -0.46031  -0.45854
 Alpha  occ. eigenvalues --   -0.45819  -0.45610  -0.45601  -0.45289  -0.45241
 Alpha  occ. eigenvalues --   -0.45115  -0.44981  -0.44834  -0.44678  -0.44588
 Alpha  occ. eigenvalues --   -0.44498  -0.44287  -0.44192  -0.44176  -0.44048
 Alpha  occ. eigenvalues --   -0.43902  -0.43773  -0.43573  -0.43426  -0.43363
 Alpha  occ. eigenvalues --   -0.43229  -0.43024  -0.42867  -0.42446  -0.42105
 Alpha  occ. eigenvalues --   -0.41989  -0.41859  -0.41743  -0.41554  -0.40937
 Alpha  occ. eigenvalues --   -0.40687  -0.40652  -0.40073  -0.39678  -0.39617
 Alpha  occ. eigenvalues --   -0.39565  -0.38842  -0.38480  -0.38340  -0.37977
 Alpha  occ. eigenvalues --   -0.37639  -0.37303  -0.37148  -0.36226  -0.36178
 Alpha  occ. eigenvalues --   -0.35875  -0.35748  -0.35173  -0.33944  -0.33892
 Alpha  occ. eigenvalues --   -0.33377  -0.33016  -0.32558  -0.32475  -0.32215
 Alpha  occ. eigenvalues --   -0.32078  -0.31992  -0.30355  -0.26564  -0.25632
 Alpha  occ. eigenvalues --   -0.23437  -0.23120
 Alpha virt. eigenvalues --   -0.07327  -0.06783  -0.00062   0.00020   0.01919
 Alpha virt. eigenvalues --    0.03034   0.04873   0.04919   0.05252   0.06069
 Alpha virt. eigenvalues --    0.07005   0.07030   0.07632   0.08145   0.08580

 Mulliken charges:
               1
     1  Mg   0.953502
     2  C   -0.018609
     3  C   -0.078092
     4  C   -0.102459
     5  C   -0.070846
     6  N   -0.331576
     7  C   -0.062309
     8  C    0.031412
     9  C   -0.153729
    10  C    0.038919
    11  C    0.036065
    12  C    0.038174
    13  C   -0.109500
    14  H    0.041549
    15  N   -0.434346
    16  C    0.181712
    17  C   -0.135748
    18  C   -0.121113
    19  C    0.236245
    20  C    0.063108
    21  C    0.024911
    22  O   -0.229662
    23  C    0.001916
    24  N   -0.396519
    25  C    0.068727
    26  C   -0.119356
    27  C   -0.096988
    28  C    0.094214
    29  C    0.022081
    30  C   -0.030780
    31  C   -0.043163
    32  N   -0.424967
    33  C    0.086167
    34  C   -0.233563
    35  C    0.018424
    36  C    0.142646
    37  C    0.107319
    38  C    0.094461
    39  O   -0.186400
    40  C   -0.073728
    41  C    0.260056
    42  O   -0.213150
    43  O   -0.378388
    44  C    0.124744
    45  H   -0.006440
    46  H   -0.019726
    47  H   -0.005979
    48  H    0.020831
    49  H    0.031374
    50  H    0.043404
    51  H    0.049274
    52  H    0.029075
    53  H    0.029832
    54  H    0.035532
    55  H    0.036403
    56  H    0.039738
    57  H    0.058540
    58  H    0.019571
    59  H    0.074408
    60  H    0.052459
    61  H    0.057965
    62  H    0.078978
    63  H    0.040375
    64  H    0.042162
    65  H    0.035863
    66  H    0.050007
    67  H    0.035354
    68  H    0.033158
    69  H    0.029974
    70  H    0.038239
    71  H    0.042306
    72  H    0.039047
    73  H    0.070768
    74  H    0.005446
    75  H    0.058165
    76  H    0.072987
    77  H    0.057186
    78  H    0.062182
    79  H    0.040182
    80  Mg   0.949348
    81  C    0.045687
    82  C   -0.095083
    83  C   -0.065732
    84  C   -0.086095
    85  N   -0.314060
    86  C    0.001092
    87  C   -0.120621
    88  C   -0.103217
    89  C    0.089330
    90  C    0.035011
    91  C   -0.006335
    92  C   -0.094891
    93  H    0.041477
    94  N   -0.554355
    95  C    0.176024
    96  C   -0.151040
    97  C   -0.082867
    98  C    0.208146
    99  C    0.035158
   100  C    0.082011
   101  O   -0.237341
   102  C   -0.013190
   103  N   -0.304552
   104  C   -0.029708
   105  C   -0.047684
   106  C   -0.103714
   107  C    0.058358
   108  C    0.030159
   109  C   -0.003873
   110  C   -0.057108
   111  N   -0.438213
   112  C    0.134172
   113  C   -0.193290
   114  C   -0.035233
   115  C    0.077333
   116  C    0.080571
   117  C    0.135350
   118  O   -0.202522
   119  C   -0.093254
   120  C    0.221063
   121  O   -0.208172
   122  O   -0.410380
   123  C    0.136741
   124  H    0.001486
   125  H    0.012908
   126  H   -0.022042
   127  H    0.032074
   128  H    0.036190
   129  H    0.038451
   130  H    0.032923
   131  H    0.048369
   132  H    0.023375
   133  H    0.054525
   134  H    0.041778
   135  H    0.065486
   136  H    0.042995
   137  H    0.065220
   138  H    0.060719
   139  H    0.079984
   140  H    0.041603
   141  H    0.065139
   142  H    0.042206
   143  H    0.040173
   144  H    0.046671
   145  H    0.033089
   146  H    0.056261
   147  H    0.030819
   148  H    0.022334
   149  H    0.035973
   150  H    0.038526
   151  H    0.045639
   152  H    0.035905
   153  H    0.058469
   154  H    0.050934
   155  H    0.080267
   156  H    0.051983
   157  H    0.069320
   158  H    0.055746
 Sum of Mulliken charges =  -0.00000

 Dipole moment (field-independent basis, Debye):
    X=             -3.2818    Y=             -2.1819    Z=             -2.4325  Tot=              4.6312
 Quadrupole moment (field-independent basis, Debye-Ang):
   XX=           -287.0604   YY=           -476.7700   ZZ=           -476.0886
   XY=            -16.2606   XZ=             40.2064   YZ=             13.0393

 Normal termination of Gaussian 16 at Mon Sep 20 16:05:47 2021.
