 Gaussian 16, Revision A.03,
 Gaussian 16:  ES64L-G16RevA.03 25-Dec-2016

 --------------------------------
 #p wB97XD/Def2SVP td=(nstates=5)
 --------------------------------

 --------------------------------
 TDDFT excited states in gaussian
 --------------------------------
 Symbolic Z-matrix:
 Charge =  0 Multiplicity = 1

                         Standard orientation:
 ---------------------------------------------------------------------
 Center     Atomic      Atomic             Coordinates (Angstroms)
 Number     Number       Type             X           Y           Z
 ---------------------------------------------------------------------
      1         12           0      -21.614187    0.085616   -0.648538
      2          6           0      -18.359999   -0.287968    0.506336
      3          6           0      -22.267423   -3.256769    0.331413
      4          6           0      -24.894670    0.720110   -0.649880
      5          6           0      -20.985823    3.543986   -0.919646
      6          7           0      -20.486035   -1.510395    0.667560
      7          6           0      -19.115143   -1.464099    0.750310
      8          6           0      -18.554855   -2.739466    1.297200
      9          6           0      -19.744020   -3.764025    0.999631
     10          6           0      -20.952358   -2.819217    0.666403
     11          6           0      -19.472613   -4.839185   -0.169576
     12          6           0      -18.078850   -2.542256    2.827549
     13          6           0      -17.038343   -3.446277    3.259181
     14          1           0      -17.405271   -4.253678    4.522341
     15          7           0      -23.341911   -1.110805   -0.404724
     16          6           0      -23.400354   -2.475431   -0.005473
     17          6           0      -24.797450   -2.875001   -0.018051
     18          6           0      -25.596725   -1.746222   -0.322027
     19          6           0      -24.601921   -0.647453   -0.562420
     20          6           0      -25.232955   -4.226191    0.411754
     21          6           0      -27.182703   -1.748361   -0.324497
     22          8           0      -27.737593   -2.814059   -0.061109
     23          6           0      -27.992037   -0.605174   -0.927139
     24          7           0      -22.714688    1.890930   -0.667607
     25          6           0      -24.065386    1.832081   -0.785975
     26          6           0      -24.771181    3.326398   -0.803353
     27          6           0      -23.482262    4.229340   -1.111540
     28          6           0      -22.305553    3.219597   -0.927296
     29          6           0      -25.881192    3.549230   -1.899185
     30          6           0      -23.346927    5.425969   -0.168042
     31          6           0      -23.307134    6.871110   -0.720144
     32          7           0      -19.958719    1.317019   -0.565419
     33          6           0      -19.858046    2.667718   -0.732358
     34          6           0      -18.471672    3.043828   -0.695579
     35          6           0      -17.853510    1.862149   -0.137554
     36          6           0      -18.844733    0.869815   -0.049913
     37          6           0      -17.915647    4.426279   -0.879745
     38          6           0      -16.612975    1.357198    0.412830
     39          8           0      -15.514473    1.822789    0.382698
     40          6           0      -16.840524   -0.147010    0.833373
     41          6           0      -16.036668   -1.176801    0.009248
     42          8           0      -15.997409   -1.210327   -1.201908
     43          8           0      -15.285844   -1.994968    0.878399
     44          6           0      -14.349321   -2.891881    0.271410
     45          1           0      -22.386049   -4.311299    0.585940
     46          1           0      -25.920160    1.021709   -0.427347
     47          1           0      -20.834718    4.619001   -1.033523
     48          1           0      -17.780507   -3.161795    0.655954
     49          1           0      -19.960680   -4.304075    1.922023
     50          1           0      -19.560347   -5.812098    0.313829
     51          1           0      -18.497243   -4.717621   -0.639705
     52          1           0      -20.277903   -4.710348   -0.893349
     53          1           0      -18.983869   -2.748816    3.398595
     54          1           0      -17.875817   -1.471113    2.843666
     55          1           0      -16.164323   -2.826326    3.455178
     56          1           0      -16.840871   -4.186571    2.483943
     57          1           0      -24.392895   -4.917298    0.478509
     58          1           0      -25.879485   -4.667240   -0.347324
     59          1           0      -25.704689   -4.196523    1.394219
     60          1           0      -27.901227    0.333782   -0.380139
     61          1           0      -29.032917   -0.928055   -0.965815
     62          1           0      -27.657235   -0.481254   -1.957082
     63          1           0      -25.092131    3.459811    0.229382
     64          1           0      -23.371966    4.532435   -2.152954
     65          1           0      -26.850904    3.676952   -1.418976
     66          1           0      -25.924441    2.678196   -2.554141
     67          1           0      -25.599396    4.448199   -2.448458
     68          1           0      -22.512757    5.301042    0.521987
     69          1           0      -24.110455    5.482814    0.607610
     70          1           0      -22.362644    7.411349   -0.649991
     71          1           0      -24.002384    7.428356   -0.091822
     72          1           0      -23.603530    6.902042   -1.769306
     73          1           0      -16.853428    4.314508   -1.098634
     74          1           0      -17.771292    4.992746    0.039704
     75          1           0      -18.464975    5.055270   -1.579755
     76          1           0      -16.476334   -0.167638    1.860907
     77          1           0      -14.314329   -3.673883    1.030622
     78          1           0      -13.338441   -2.484604    0.264850
     79          1           0      -14.668049   -3.166440   -0.733343
     80         12           0       20.844967    0.851263   -0.347669
     81          6           0       21.220855   -2.693137   -0.200601
     82          6           0       18.290995    0.461266    1.734906
     83          6           0       21.021433    4.144790    0.389243
     84          6           0       24.127810    0.883154   -1.734075
     85          7           0       19.833958   -0.856916    0.519298
     86          6           0       20.082211   -2.240816    0.391997
     87          6           0       19.066525   -3.121940    1.185315
     88          6           0       18.103910   -2.038781    1.749355
     89          6           0       18.713994   -0.716408    1.238384
     90          6           0       16.685760   -2.385456    1.266257
     91          6           0       19.643281   -4.066597    2.326287
     92          6           0       19.519926   -5.568983    2.100143
     93          1           0       18.792977   -6.392724    3.182671
     94          7           0       19.784779    2.141517    0.782571
     95          6           0       18.726675    1.759290    1.606938
     96          6           0       18.099694    2.890197    2.161549
     97          6           0       18.751402    4.015247    1.691076
     98          6           0       19.887686    3.512294    0.945913
     99          6           0       16.849908    2.956418    3.115766
    100          6           0       18.298761    5.421598    2.006649
    101          8           0       17.286323    5.688572    2.582714
    102          6           0       19.206017    6.594564    1.386389
    103          7           0       22.378415    2.307251   -0.559233
    104          6           0       22.170297    3.612489   -0.205535
    105          6           0       23.543202    4.372268   -0.418069
    106          6           0       24.478338    3.425476   -1.188735
    107          6           0       23.628283    2.098487   -1.155490
    108          6           0       23.417301    5.764831   -0.967528
    109          6           0       25.762182    3.221611   -0.393980
    110          6           0       26.984810    2.785221   -1.156689
    111          7           0       22.290471   -0.598146   -1.103928
    112          6           0       23.539357   -0.421751   -1.650174
    113          6           0       24.085605   -1.670943   -2.039067
    114          6           0       23.195316   -2.665206   -1.568915
    115          6           0       22.179112   -1.926164   -0.899944
    116          6           0       25.403465   -1.924873   -2.653491
    117          6           0       22.871491   -4.088895   -1.405652
    118          8           0       23.474537   -5.073913   -1.852414
    119          6           0       21.562061   -4.186802   -0.532463
    120          6           0       20.483344   -4.670026   -1.352542
    121          8           0       19.929131   -3.928027   -2.197680
    122          8           0       20.297015   -5.968901   -1.045878
    123          6           0       19.110286   -6.670289   -1.607791
    124          1           0       17.422176    0.368670    2.390445
    125          1           0       21.010016    5.218247    0.589860
    126          1           0       25.077381    0.835889   -2.270622
    127          1           0       18.518224   -3.762362    0.494495
    128          1           0       18.104181   -1.980080    2.837351
    129          1           0       16.050428   -1.538968    1.525251
    130          1           0       16.241913   -3.283252    1.696237
    131          1           0       16.638357   -2.527686    0.186032
    132          1           0       18.979676   -3.885724    3.171899
    133          1           0       20.665488   -3.777375    2.570543
    134          1           0       20.529067   -5.958508    1.961656
    135          1           0       18.949999   -5.747122    1.187567
    136          1           0       17.168060    3.549760    3.973230
    137          1           0       16.542369    1.967293    3.454751
    138          1           0       15.926380    3.320574    2.665744
    139          1           0       18.677439    7.521088    1.608577
    140          1           0       19.249616    6.334031    0.328614
    141          1           0       20.147852    6.451794    1.916081
    142          1           0       23.918545    4.490848    0.598987
    143          1           0       24.751606    3.720207   -2.201880
    144          1           0       24.315385    5.987233   -1.543148
    145          1           0       23.316604    6.418374   -0.100787
    146          1           0       22.501637    5.947314   -1.528777
    147          1           0       25.644385    2.527816    0.438916
    148          1           0       26.049194    4.115566    0.159670
    149          1           0       26.857658    2.851946   -2.237036
    150          1           0       27.188346    1.747629   -0.891189
    151          1           0       27.874245    3.292148   -0.782608
    152          1           0       25.740396   -1.076522   -3.250051
    153          1           0       25.265160   -2.803285   -3.284327
    154          1           0       26.089897   -2.061230   -1.817522
    155          1           0       21.678953   -4.726267    0.407450
    156          1           0       19.524634   -7.671909   -1.731489
    157          1           0       18.728195   -6.229070   -2.527881
    158          1           0       18.348558   -6.839867   -0.846048
 ---------------------------------------------------------------------

 SCF Done:  E(RwB97XD) =  -4070.58359181     A.U. after   19 cycles

 Excitation energies and oscillator strengths:

 Excited State   1:      Singlet-A      1.6352 eV  758.23 nm  f=0.3929  <S**2>=0.000
     309 -> 316        0.17849
     312 -> 313        0.68596
     309 <- 316        0.11656
 This state for optimization and/or second-order correction.
 Total Energy, E(TD-HF/TD-DFT) =  -4070.52350010
 Copying the excited state density for this state as the 1-particle RhoCI density.

 Excited State   2:      Singlet-A      1.6725 eV  741.31 nm  f=0.3839  <S**2>=0.000
     310 -> 315       -0.17577
     311 -> 314        0.68524
     310 <- 315       -0.11221

 Excited State   3:      Singlet-A      2.1961 eV  564.56 nm  f=0.1024  <S**2>=0.000
     309 -> 313        0.63429
     312 -> 316       -0.29404

 Excited State   4:      Singlet-A      2.2043 eV  562.46 nm  f=0.1155  <S**2>=0.000
     310 -> 314        0.63523
     311 -> 315        0.29117

 Excited State   5:      Singlet-A      3.2887 eV  377.00 nm  f=0.0021  <S**2>=0.000
     302 -> 314        0.11966
     308 -> 314        0.66477

 The electronic state is 1-A.
 Alpha  occ. eigenvalues --  -46.96156 -46.94854 -19.31687 -19.30358 -19.25665
 Alpha  occ. eigenvalues --  -19.24771 -19.24682 -19.24571 -19.23756 -19.23254
 Alpha  occ. eigenvalues --  -14.47163 -14.46936 -14.46766 -14.46624 -14.44841
 Alpha  occ. eigenvalues --  -14.44156 -14.43629 -14.43028 -10.43951 -10.43313
 Alpha  occ. eigenvalues --  -10.40425 -10.39463 -10.39388 -10.37983 -10.36564
 Alpha  occ. eigenvalues --  -10.35914 -10.35714 -10.35694 -10.35496 -10.35306
 Alpha  occ. eigenvalues --  -10.35188 -10.35125 -10.35087 -10.34590 -10.34535
 Alpha  occ. eigenvalues --  -10.34502 -10.34462 -10.33684 -10.33607 -10.33361
 Alpha  occ. eigenvalues --  -10.32992 -10.32720 -10.32702 -10.32621 -10.32569
 Alpha  occ. eigenvalues --  -10.32559 -10.32398 -10.32397 -10.32353 -10.32263
 Alpha  occ. eigenvalues --  -10.32182 -10.32109 -10.32032 -10.32003 -10.31957
 Alpha  occ. eigenvalues --  -10.31954 -10.31789 -10.31715 -10.31692 -10.31630
 Alpha  occ. eigenvalues --  -10.31320 -10.31267 -10.31118 -10.31047 -10.30972
 Alpha  occ. eigenvalues --  -10.30957 -10.30949 -10.30749 -10.30594 -10.30502
 Alpha  occ. eigenvalues --  -10.30371 -10.30366 -10.30308 -10.30256 -10.30226
 Alpha  occ. eigenvalues --  -10.30218 -10.30040 -10.29679 -10.29672 -10.29642
 Alpha  occ. eigenvalues --  -10.29534 -10.29433 -10.29250 -10.28959 -10.28839
 Alpha  occ. eigenvalues --  -10.28639  -3.22041  -3.20894  -1.95571  -1.95214
 Alpha  occ. eigenvalues --   -1.94972  -1.94459  -1.93998  -1.93885  -1.18789
 Alpha  occ. eigenvalues --   -1.18238  -1.14211  -1.12997  -1.12563  -1.10932
 Alpha  occ. eigenvalues --   -1.10860  -1.09539  -1.06903  -1.06136  -1.05223
 Alpha  occ. eigenvalues --   -1.04977  -1.04830  -1.04393  -1.03744  -1.03642
 Alpha  occ. eigenvalues --   -0.94200  -0.94146  -0.91500  -0.91194  -0.91110
 Alpha  occ. eigenvalues --   -0.90665  -0.90276  -0.90077  -0.89270  -0.88813
 Alpha  occ. eigenvalues --   -0.88615  -0.88405  -0.88394  -0.87772  -0.86702
 Alpha  occ. eigenvalues --   -0.86110  -0.86005  -0.85248  -0.85170  -0.84626
 Alpha  occ. eigenvalues --   -0.84169  -0.83817  -0.83108  -0.83088  -0.82244
 Alpha  occ. eigenvalues --   -0.82232  -0.79760  -0.79633  -0.79317  -0.79307
 Alpha  occ. eigenvalues --   -0.78699  -0.78595  -0.78149  -0.78060  -0.77081
 Alpha  occ. eigenvalues --   -0.76901  -0.74711  -0.74660  -0.73691  -0.73339
 Alpha  occ. eigenvalues --   -0.71227  -0.71148  -0.70501  -0.70421  -0.69698
 Alpha  occ. eigenvalues --   -0.69415  -0.69221  -0.68486  -0.67857  -0.67636
 Alpha  occ. eigenvalues --   -0.67480  -0.66987  -0.66843  -0.66545  -0.66463
 Alpha  occ. eigenvalues --   -0.66107  -0.64805  -0.64198  -0.62168  -0.61706
 Alpha  occ. eigenvalues --   -0.61593  -0.61445  -0.61370  -0.60991  -0.60535
 Alpha  occ. eigenvalues --   -0.60442  -0.60177  -0.59988  -0.59463  -0.59128
 Alpha  occ. eigenvalues --   -0.58361  -0.58340  -0.57974  -0.57293  -0.56952
 Alpha  occ. eigenvalues --   -0.56947  -0.56698  -0.56605  -0.56184  -0.55935
 Alpha  occ. eigenvalues --   -0.55752  -0.55190  -0.55083  -0.54805  -0.54685
 Alpha  occ. eigenvalues --   -0.54509  -0.54420  -0.54410  -0.54340  -0.54048
 Alpha  occ. eigenvalues --   -0.53702  -0.53612  -0.53597  -0.53375  -0.53127
 Alpha  occ. eigenvalues --   -0.52963  -0.52715  -0.52436  -0.52252  -0.52166
 Alpha  occ. eigenvalues --   -0.52061  -0.52021  -0.51913  -0.51734  -0.51689
 Alpha  occ. eigenvalues --   -0.51588  -0.51157  -0.51151  -0.51053  -0.50866
 Alpha  occ. eigenvalues --   -0.50720  -0.50374  -0.50367  -0.50146  -0.49952
 Alpha  occ. eigenvalues --   -0.49933  -0.49806  -0.49440  -0.49398  -0.49230
 Alpha  occ. eigenvalues --   -0.49000  -0.48929  -0.48874  -0.48361  -0.48347
 Alpha  occ. eigenvalues --   -0.48220  -0.48086  -0.48012  -0.47890  -0.47582
 Alpha  occ. eigenvalues --   -0.47557  -0.47224  -0.47179  -0.47035  -0.46889
 Alpha  occ. eigenvalues --   -0.46864  -0.46744  -0.46664  -0.46436  -0.46224
 Alpha  occ. eigenvalues --   -0.46049  -0.46030  -0.45903  -0.45723  -0.45457
 Alpha  occ. eigenvalues --   -0.45420  -0.45360  -0.45231  -0.45081  -0.44972
 Alpha  occ. eigenvalues --   -0.44729  -0.44697  -0.44625  -0.44496  -0.44433
 Alpha  occ. eigenvalues --   -0.44209  -0.44180  -0.43815  -0.43561  -0.43535
 Alpha  occ. eigenvalues --   -0.43391  -0.42957  -0.42890  -0.42489  -0.42366
 Alpha  occ. eigenvalues --   -0.42090  -0.41981  -0.41715  -0.41071  -0.40618
 Alpha  occ. eigenvalues --   -0.40371  -0.40183  -0.40106  -0.39701  -0.39559
 Alpha  occ. eigenvalues --   -0.39229  -0.39045  -0.38754  -0.38683  -0.38243
 Alpha  occ. eigenvalues --   -0.37916  -0.37575  -0.36755  -0.36250  -0.36216
 Alpha  occ. eigenvalues --   -0.36125  -0.35542  -0.35177  -0.34003  -0.33589
 Alpha  occ. eigenvalues --   -0.33457  -0.32964  -0.32715  -0.32644  -0.32436
 Alpha  occ. eigenvalues --   -0.31945  -0.31300  -0.31044  -0.26263  -0.26192
 Alpha  occ. eigenvalues --   -0.23047  -0.22988
 Alpha virt. eigenvalues --   -0.07126  -0.07074   0.00245   0.00249   0.02510
 Alpha virt. eigenvalues --    0.02673   0.04251   0.04491   0.04808   0.05466
 Alpha virt. eigenvalues --    0.06723   0.06776   0.07082   0.07243   0.08118

 Mulliken charges:
               1
     1  Mg   0.960923
     2  C   -0.078265
     3  C   -0.075537
     4  C   -0.093973
     5  C   -0.091119
     6  N   -0.325384
     7  C   -0.039486
     8  C   -0.084223
     9  C   -0.134132
    10  C    0.034716
    11  C    0.014957
    12  C    0.053065
    13  C   -0.094500
    14  H    0.019860
    15  N   -0.466599
    16  C    0.174562
    17  C   -0.161935
    18  C   -0.102680
    19  C    0.203860
    20  C    0.095502
    21  C    0.075917
    22  O   -0.234438
    23  C   -0.028029
    24  N   -0.403905
    25  C    0.073550
    26  C   -0.123908
    27  C   -0.024177
    28  C    0.034694
    29  C    0.024335
    30  C   -0.029732
    31  C   -0.054242
    32  N   -0.416159
    33  C    0.139545
    34  C   -0.160907
    35  C   -0.085666
    36  C    0.221781
    37  C    0.066588
    38  C    0.109023
    39  O   -0.181747
    40  C   -0.079641
    41  C    0.276088
    42  O   -0.220972
    43  O   -0.387132
    44  C    0.130546
    45  H    0.011427
    46  H   -0.019717
    47  H   -0.007300
    48  H    0.027323
    49  H    0.037126
    50  H    0.043848
    51  H    0.052419
    52  H    0.042181
    53  H    0.036901
    54  H    0.036929
    55  H    0.063481
    56  H    0.049718
    57  H    0.010697
    58  H    0.056756
    59  H    0.066354
    60  H    0.071052
    61  H    0.057629
    62  H    0.067755
    63  H    0.055946
    64  H    0.043579
    65  H    0.039934
    66  H    0.046119
    67  H    0.045236
    68  H    0.031547
    69  H    0.018916
    70  H    0.040063
    71  H    0.034079
    72  H    0.032262
    73  H    0.049865
    74  H    0.043576
    75  H    0.043560
    76  H    0.072429
    77  H    0.046037
    78  H    0.054201
    79  H    0.067047
    80  Mg   0.984582
    81  C   -0.043504
    82  C   -0.132020
    83  C   -0.102564
    84  C   -0.063534
    85  N   -0.377730
    86  C    0.011490
    87  C   -0.047207
    88  C   -0.123597
    89  C    0.121245
    90  C    0.014123
    91  C    0.012157
    92  C   -0.135670
    93  H    0.033915
    94  N   -0.504923
    95  C    0.212655
    96  C   -0.172057
    97  C   -0.054830
    98  C    0.150058
    99  C    0.105635
   100  C    0.008206
   101  O   -0.195202
   102  C   -0.027835
   103  N   -0.393433
   104  C    0.110723
   105  C   -0.081167
   106  C   -0.082614
   107  C    0.108034
   108  C    0.029353
   109  C   -0.045299
   110  C   -0.025510
   111  N   -0.385844
   112  C    0.093612
   113  C   -0.223095
   114  C    0.000590
   115  C    0.116410
   116  C    0.079619
   117  C    0.128980
   118  O   -0.222420
   119  C   -0.072430
   120  C    0.292468
   121  O   -0.279959
   122  O   -0.349473
   123  C    0.124689
   124  H   -0.016723
   125  H   -0.040295
   126  H   -0.012816
   127  H    0.028290
   128  H    0.045429
   129  H    0.027713
   130  H    0.042807
   131  H    0.043038
   132  H    0.041062
   133  H    0.048464
   134  H    0.069467
   135  H    0.033009
   136  H    0.061858
   137  H    0.011519
   138  H    0.062782
   139  H    0.058176
   140  H    0.066203
   141  H    0.068478
   142  H    0.046800
   143  H    0.038412
   144  H    0.041312
   145  H    0.031648
   146  H    0.038573
   147  H    0.030394
   148  H    0.021505
   149  H    0.036054
   150  H    0.030035
   151  H    0.032933
   152  H    0.030618
   153  H    0.066799
   154  H    0.060779
   155  H    0.055731
   156  H    0.061726
   157  H    0.085151
   158  H    0.056438
 Sum of Mulliken charges =  -0.00000

 Dipole moment (field-independent basis, Debye):
    X=             -3.5034    Y=              1.7837    Z=              0.8832  Tot=              4.0293
 Quadrupole moment (field-independent basis, Debye-Ang):
   XX=           -424.4199   YY=           -485.1783   ZZ=           -518.5631
   XY=             17.9273   XZ=             50.3453   YZ=            -22.9364

 Normal termination of Gaussian 16 at Sun Sep 19 03:38:43 2021.
