 Gaussian 16, Revision A.03,
 Gaussian 16:  ES64L-G16RevA.03 25-Dec-2016

 --------------------------------
 #p wB97XD/Def2SVP td=(nstates=5)
 --------------------------------

 --------------------------------
 TDDFT excited states in gaussian
 --------------------------------
 Symbolic Z-matrix:
 Charge =  0 Multiplicity = 1

                         Standard orientation:
 ---------------------------------------------------------------------
 Center     Atomic      Atomic             Coordinates (Angstroms)
 Number     Number       Type             X           Y           Z
 ---------------------------------------------------------------------
      1         12           0      -26.519697    0.283195   -0.561127
      2          6           0      -25.006342   -2.263192    1.351943
      3          6           0      -27.050876    2.039086    2.345092
      4          6           0      -28.044979    2.717446   -2.301373
      5          6           0      -26.476982   -1.780700   -3.386317
      6          7           0      -25.931734   -0.084239    1.512656
      7          6           0      -25.343473   -1.103803    2.131708
      8          6           0      -25.129396   -0.956432    3.652570
      9          6           0      -26.086655    0.315223    3.859364
     10          6           0      -26.423505    0.770814    2.460571
     11          6           0      -27.326570    0.017158    4.666893
     12          6           0      -23.588489   -0.663131    4.087481
     13          6           0      -23.264608   -1.136451    5.507522
     14          1           0      -22.153637   -2.215612    5.578402
     15          7           0      -27.299755    2.238368   -0.089177
     16          6           0      -27.460770    2.738951    1.226529
     17          6           0      -27.815980    4.134425    1.099223
     18          6           0      -28.090528    4.372355   -0.244506
     19          6           0      -27.800747    3.097092   -0.972192
     20          6           0      -28.070459    5.053305    2.279198
     21          6           0      -28.520695    5.624225   -0.974258
     22          8           0      -28.620951    5.611966   -2.166367
     23          6           0      -28.757856    6.918167   -0.261512
     24          7           0      -27.350457    0.391161   -2.490703
     25          6           0      -27.870297    1.538970   -3.014173
     26          6           0      -28.157620    1.244412   -4.512652
     27          6           0      -27.192941    0.144746   -4.918922
     28          6           0      -26.979056   -0.512578   -3.535105
     29          6           0      -29.591893    0.739218   -4.662591
     30          6           0      -25.949098    0.620054   -5.573861
     31          6           0      -25.189686    1.769839   -4.959555
     32          7           0      -25.860159   -1.617125   -1.004438
     33          6           0      -25.904721   -2.348878   -2.176203
     34          6           0      -25.273967   -3.657096   -1.942048
     35          6           0      -24.895507   -3.636156   -0.588384
     36          6           0      -25.260449   -2.418034   -0.083434
     37          6           0      -25.137242   -4.745983   -2.916510
     38          6           0      -24.155690   -4.318472    0.439241
     39          8           0      -23.534101   -5.421281    0.419065
     40          6           0      -24.192179   -3.391846    1.745029
     41          6           0      -24.885098   -4.194184    2.815749
     42          8           0      -25.912809   -4.775267    2.629057
     43          8           0      -24.267888   -4.170224    4.095751
     44          6           0      -25.111710   -4.684300    5.217139
     45          1           0      -27.275176    2.588227    3.261295
     46          1           0      -28.626271    3.438756   -2.880159
     47          1           0      -26.273523   -2.404475   -4.259527
     48          1           0      -25.411496   -1.879592    4.160362
     49          1           0      -25.456598    1.030333    4.389714
     50          1           0      -27.106437    0.334481    5.686054
     51          1           0      -27.658138   -1.016728    4.568448
     52          1           0      -28.048858    0.753233    4.314065
     53          1           0      -23.390809    0.408511    4.047894
     54          1           0      -22.896646   -1.106821    3.371239
     55          1           0      -24.242757   -1.475170    5.849603
     56          1           0      -23.023011   -0.306997    6.171881
     57          1           0      -27.574963    4.558601    3.113714
     58          1           0      -29.145871    4.959894    2.427699
     59          1           0      -27.652879    6.049194    2.129708
     60          1           0      -27.727514    7.175429   -0.015329
     61          1           0      -29.329681    6.830322    0.661889
     62          1           0      -29.222202    7.641344   -0.932836
     63          1           0      -28.092981    2.105728   -5.176623
     64          1           0      -27.580563   -0.572074   -5.642052
     65          1           0      -29.779439   -0.326413   -4.794734
     66          1           0      -30.031308    1.261368   -5.512455
     67          1           0      -30.154411    1.064350   -3.786656
     68          1           0      -26.107225    0.852019   -6.627355
     69          1           0      -25.294625   -0.251079   -5.550464
     70          1           0      -24.257842    1.341262   -4.589537
     71          1           0      -25.572927    2.379364   -4.140661
     72          1           0      -24.909442    2.454215   -5.760145
     73          1           0      -26.128229   -5.160035   -3.102234
     74          1           0      -24.435977   -5.431159   -2.440344
     75          1           0      -24.782096   -4.377795   -3.879950
     76          1           0      -23.147161   -3.142763    1.930329
     77          1           0      -25.128052   -5.774102    5.208992
     78          1           0      -26.138413   -4.316766    5.185854
     79          1           0      -24.745227   -4.479695    6.222678
     80         12           0       26.500792   -0.636083    0.309239
     81          6           0       25.612539    2.835437    0.386446
     82          6           0       23.148074   -1.298793   -0.606823
     83          6           0       27.436465   -3.750075   -0.520134
     84          6           0       29.814602    0.299338    0.548046
     85          7           0       24.564400    0.616920   -0.065069
     86          6           0       24.542834    1.981359    0.012516
     87          6           0       23.244465    2.505361   -0.580366
     88          6           0       22.427686    1.145971   -0.598161
     89          6           0       23.392863    0.036174   -0.422656
     90          6           0       21.263959    0.994930    0.438262
     91          6           0       23.529372    3.249704   -1.924211
     92          6           0       22.835163    4.642989   -2.216806
     93          1           0       21.882788    4.783333   -3.417912
     94          7           0       25.482271   -2.300078   -0.252955
     95          6           0       24.102915   -2.403717   -0.573288
     96          6           0       23.759378   -3.774880   -0.901998
     97          6           0       25.031472   -4.479039   -0.879642
     98          6           0       26.035238   -3.491563   -0.529670
     99          6           0       22.398294   -4.156601   -1.311759
    100          6           0       25.154115   -5.986583   -1.161820
    101          8           0       24.093807   -6.576776   -1.521383
    102          6           0       26.448296   -6.818838   -1.040425
    103          7           0       28.386648   -1.615330   -0.231102
    104          6           0       28.520193   -2.921660   -0.357565
    105          6           0       29.971348   -3.236121   -0.528156
    106          6           0       30.694104   -1.925120   -0.118249
    107          6           0       29.556040   -0.958793    0.001765
    108          6           0       30.597575   -4.507331    0.189582
    109          6           0       31.832891   -1.415132   -1.143924
    110          6           0       33.302140   -1.376280   -0.656842
    111          7           0       27.514528    1.103521    0.632424
    112          6           0       28.835169    1.339722    0.707930
    113          6           0       29.107078    2.713231    0.925699
    114          6           0       27.853336    3.324409    0.850516
    115          6           0       26.895407    2.303854    0.624458
    116          6           0       30.376734    3.421917    1.178653
    117          6           0       27.254171    4.622669    0.890363
    118          8           0       27.796819    5.700307    0.989234
    119          6           0       25.664017    4.335922    0.521459
    120          6           0       24.805901    4.803617    1.616517
    121          8           0       25.020552    4.630385    2.822930
    122          8           0       23.726501    5.430897    1.031765
    123          6           0       22.727380    5.987748    1.942246
    124          1           0       22.129087   -1.568253   -0.888773
    125          1           0       27.807547   -4.712248   -0.878280
    126          1           0       30.813712    0.615923    0.855254
    127          1           0       22.780245    3.115286    0.195039
    128          1           0       22.148241    1.156713   -1.652332
    129          1           0       21.467771    0.098783    1.026081
    130          1           0       20.281594    0.850590   -0.010891
    131          1           0       21.187060    1.790514    1.179994
    132          1           0       23.157803    2.498903   -2.621234
    133          1           0       24.579853    3.392955   -2.176330
    134          1           0       23.661624    5.347635   -2.307369
    135          1           0       22.374472    4.990174   -1.292466
    136          1           0       22.122593   -3.480600   -2.121490
    137          1           0       21.696164   -3.954019   -0.503277
    138          1           0       22.208233   -5.206403   -1.536660
    139          1           0       27.103005   -6.543167   -1.867308
    140          1           0       26.094407   -7.829640   -0.840269
    141          1           0       26.874732   -6.459607   -0.103225
    142          1           0       30.119234   -3.449489   -1.586065
    143          1           0       30.985462   -2.145908    0.908700
    144          1           0       31.423093   -4.801927   -0.458850
    145          1           0       29.822823   -5.268386    0.281298
    146          1           0       30.976940   -4.161902    1.151436
    147          1           0       31.489898   -0.421118   -1.430493
    148          1           0       31.722448   -1.989234   -2.063782
    149          1           0       33.790817   -0.425332   -0.864723
    150          1           0       33.848595   -2.186857   -1.139704
    151          1           0       33.418532   -1.604254    0.402842
    152          1           0       30.210171    4.403546    1.621099
    153          1           0       30.719530    3.473568    0.145086
    154          1           0       31.083902    2.704953    1.595568
    155          1           0       25.412601    4.715609   -0.468211
    156          1           0       23.182445    6.627589    2.698644
    157          1           0       22.165598    5.179062    2.412034
    158          1           0       22.039708    6.607606    1.366885
 ---------------------------------------------------------------------

 SCF Done:  E(RwB97XD) =  -4070.58694666     A.U. after   17 cycles

 Excitation energies and oscillator strengths:

 Excited State   1:      Singlet-A      1.6377 eV  757.08 nm  f=0.3790  <S**2>=0.000
     310 -> 316       -0.19094
     312 -> 314        0.68313
     310 <- 316       -0.12120
 This state for optimization and/or second-order correction.
 Total Energy, E(TD-HF/TD-DFT) =  -4070.52676383
 Copying the excited state density for this state as the 1-particle RhoCI density.

 Excited State   2:      Singlet-A      1.6528 eV  750.14 nm  f=0.3793  <S**2>=0.000
     309 -> 315       -0.17778
     311 -> 313        0.68531
     309 <- 315       -0.11377

 Excited State   3:      Singlet-A      2.1347 eV  580.80 nm  f=0.1154  <S**2>=0.000
     309 -> 313        0.64479
     311 -> 315        0.27144

 Excited State   4:      Singlet-A      2.1990 eV  563.83 nm  f=0.1291  <S**2>=0.000
     310 -> 314        0.63866
     312 -> 316        0.29226

 Excited State   5:      Singlet-A      3.3068 eV  374.94 nm  f=0.0054  <S**2>=0.000
     307 -> 314        0.66959
     307 -> 317        0.10687

 The electronic state is 1-A.
 Alpha  occ. eigenvalues --  -46.95244 -46.94955 -19.31505 -19.29713 -19.25525
 Alpha  occ. eigenvalues --  -19.24936 -19.24811 -19.24150 -19.23275 -19.23178
 Alpha  occ. eigenvalues --  -14.48033 -14.46543 -14.45967 -14.45932 -14.44552
 Alpha  occ. eigenvalues --  -14.44421 -14.44344 -14.43627 -10.43951 -10.43237
 Alpha  occ. eigenvalues --  -10.39496 -10.39244 -10.39185 -10.38755 -10.36197
 Alpha  occ. eigenvalues --  -10.35947 -10.35450 -10.35367 -10.35211 -10.35101
 Alpha  occ. eigenvalues --  -10.35065 -10.34784 -10.34755 -10.34671 -10.34518
 Alpha  occ. eigenvalues --  -10.34395 -10.34389 -10.34322 -10.33771 -10.33663
 Alpha  occ. eigenvalues --  -10.33346 -10.33095 -10.32958 -10.32957 -10.32786
 Alpha  occ. eigenvalues --  -10.32782 -10.32716 -10.32520 -10.32321 -10.32321
 Alpha  occ. eigenvalues --  -10.32313 -10.32251 -10.32250 -10.32189 -10.31846
 Alpha  occ. eigenvalues --  -10.31705 -10.31667 -10.31629 -10.31619 -10.31555
 Alpha  occ. eigenvalues --  -10.31542 -10.31436 -10.31232 -10.31190 -10.31179
 Alpha  occ. eigenvalues --  -10.31150 -10.31142 -10.31103 -10.30705 -10.30665
 Alpha  occ. eigenvalues --  -10.30618 -10.30554 -10.30501 -10.30476 -10.30303
 Alpha  occ. eigenvalues --  -10.30275 -10.30124 -10.29894 -10.29666 -10.29295
 Alpha  occ. eigenvalues --  -10.28975 -10.28961 -10.28921 -10.28615 -10.28391
 Alpha  occ. eigenvalues --  -10.28274  -3.21242  -3.20889  -1.94820  -1.94502
 Alpha  occ. eigenvalues --   -1.94354  -1.94226  -1.93989  -1.93876  -1.18729
 Alpha  occ. eigenvalues --   -1.17732  -1.14383  -1.13085  -1.10372  -1.09569
 Alpha  occ. eigenvalues --   -1.09450  -1.08846  -1.07467  -1.07321  -1.06753
 Alpha  occ. eigenvalues --   -1.05750  -1.05635  -1.04922  -1.04391  -1.03762
 Alpha  occ. eigenvalues --   -0.95160  -0.94919  -0.91996  -0.91323  -0.91241
 Alpha  occ. eigenvalues --   -0.90773  -0.90203  -0.90001  -0.89886  -0.89813
 Alpha  occ. eigenvalues --   -0.89414  -0.88851  -0.88110  -0.87968  -0.86615
 Alpha  occ. eigenvalues --   -0.86586  -0.85759  -0.85424  -0.84606  -0.84589
 Alpha  occ. eigenvalues --   -0.84429  -0.83916  -0.83330  -0.83047  -0.82442
 Alpha  occ. eigenvalues --   -0.81870  -0.80931  -0.80186  -0.79589  -0.79258
 Alpha  occ. eigenvalues --   -0.79006  -0.78820  -0.78221  -0.78213  -0.77284
 Alpha  occ. eigenvalues --   -0.76942  -0.75198  -0.74432  -0.74193  -0.73311
 Alpha  occ. eigenvalues --   -0.71727  -0.71609  -0.71379  -0.70849  -0.70431
 Alpha  occ. eigenvalues --   -0.69822  -0.69099  -0.68743  -0.68067  -0.67784
 Alpha  occ. eigenvalues --   -0.67620  -0.67113  -0.66964  -0.66776  -0.66207
 Alpha  occ. eigenvalues --   -0.65337  -0.64956  -0.63757  -0.62421  -0.62141
 Alpha  occ. eigenvalues --   -0.61926  -0.61911  -0.61504  -0.61154  -0.60959
 Alpha  occ. eigenvalues --   -0.60898  -0.60541  -0.60398  -0.59597  -0.59593
 Alpha  occ. eigenvalues --   -0.58424  -0.58178  -0.57900  -0.57760  -0.57599
 Alpha  occ. eigenvalues --   -0.56849  -0.56707  -0.56469  -0.56447  -0.56008
 Alpha  occ. eigenvalues --   -0.55944  -0.55679  -0.55662  -0.55602  -0.55289
 Alpha  occ. eigenvalues --   -0.54990  -0.54890  -0.54572  -0.54360  -0.54057
 Alpha  occ. eigenvalues --   -0.53814  -0.53641  -0.53628  -0.53452  -0.53348
 Alpha  occ. eigenvalues --   -0.53178  -0.52749  -0.52627  -0.52525  -0.52246
 Alpha  occ. eigenvalues --   -0.52202  -0.51988  -0.51915  -0.51897  -0.51629
 Alpha  occ. eigenvalues --   -0.51546  -0.51524  -0.51347  -0.51085  -0.51033
 Alpha  occ. eigenvalues --   -0.50725  -0.50402  -0.50274  -0.50157  -0.49854
 Alpha  occ. eigenvalues --   -0.49685  -0.49652  -0.49599  -0.49589  -0.49540
 Alpha  occ. eigenvalues --   -0.49395  -0.49092  -0.48980  -0.48673  -0.48573
 Alpha  occ. eigenvalues --   -0.48385  -0.48275  -0.48087  -0.47888  -0.47802
 Alpha  occ. eigenvalues --   -0.47541  -0.47463  -0.47377  -0.47335  -0.47115
 Alpha  occ. eigenvalues --   -0.46961  -0.46920  -0.46473  -0.46240  -0.46090
 Alpha  occ. eigenvalues --   -0.45682  -0.45650  -0.45570  -0.45531  -0.45443
 Alpha  occ. eigenvalues --   -0.45207  -0.45137  -0.45041  -0.45017  -0.44907
 Alpha  occ. eigenvalues --   -0.44779  -0.44768  -0.44468  -0.44403  -0.44242
 Alpha  occ. eigenvalues --   -0.43749  -0.43495  -0.43489  -0.43141  -0.43078
 Alpha  occ. eigenvalues --   -0.42958  -0.42899  -0.42781  -0.42290  -0.42240
 Alpha  occ. eigenvalues --   -0.42163  -0.42138  -0.41655  -0.41426  -0.40863
 Alpha  occ. eigenvalues --   -0.40658  -0.40313  -0.40214  -0.39768  -0.39687
 Alpha  occ. eigenvalues --   -0.39589  -0.39289  -0.39093  -0.38547  -0.38383
 Alpha  occ. eigenvalues --   -0.38228  -0.37751  -0.37146  -0.36628  -0.36508
 Alpha  occ. eigenvalues --   -0.36100  -0.35411  -0.35290  -0.33914  -0.33553
 Alpha  occ. eigenvalues --   -0.33380  -0.33148  -0.32340  -0.32322  -0.32236
 Alpha  occ. eigenvalues --   -0.32151  -0.31549  -0.31455  -0.26083  -0.26083
 Alpha  occ. eigenvalues --   -0.23212  -0.23113
 Alpha virt. eigenvalues --   -0.07303  -0.07290   0.00179   0.00180   0.02388
 Alpha virt. eigenvalues --    0.02474   0.04291   0.04502   0.05479   0.06257
 Alpha virt. eigenvalues --    0.06402   0.07141   0.07576   0.07712   0.08087

 Mulliken charges:
               1
     1  Mg   0.953878
     2  C   -0.043004
     3  C   -0.110344
     4  C   -0.074546
     5  C   -0.071330
     6  N   -0.321060
     7  C   -0.004072
     8  C   -0.076412
     9  C   -0.141354
    10  C    0.116654
    11  C    0.056695
    12  C    0.009070
    13  C   -0.101916
    14  H    0.060764
    15  N   -0.444671
    16  C    0.147282
    17  C   -0.177207
    18  C   -0.058229
    19  C    0.148182
    20  C    0.068319
    21  C    0.023144
    22  O   -0.209946
    23  C   -0.009781
    24  N   -0.406329
    25  C    0.080499
    26  C   -0.094048
    27  C   -0.044170
    28  C    0.108134
    29  C    0.034249
    30  C    0.007559
    31  C   -0.069566
    32  N   -0.442789
    33  C    0.083740
    34  C   -0.209109
    35  C    0.007083
    36  C    0.127398
    37  C    0.079109
    38  C    0.099142
    39  O   -0.251496
    40  C   -0.045559
    41  C    0.263315
    42  O   -0.210398
    43  O   -0.401504
    44  C    0.135670
    45  H    0.006484
    46  H    0.021247
    47  H   -0.000366
    48  H    0.038174
    49  H    0.035954
    50  H    0.032103
    51  H    0.057754
    52  H    0.022845
    53  H    0.027423
    54  H    0.042857
    55  H    0.027524
    56  H    0.044623
    57  H    0.032539
    58  H    0.076083
    59  H    0.059596
    60  H    0.059852
    61  H    0.052681
    62  H    0.061959
    63  H    0.025012
    64  H    0.018255
    65  H    0.044999
    66  H    0.032947
    67  H    0.031278
    68  H    0.032134
    69  H    0.016186
    70  H    0.030677
    71  H    0.056757
    72  H    0.029937
    73  H    0.053941
    74  H    0.066198
    75  H    0.035071
    76  H    0.077636
    77  H    0.056934
    78  H    0.049875
    79  H    0.051788
    80  Mg   0.980659
    81  C   -0.124076
    82  C   -0.080724
    83  C   -0.101679
    84  C   -0.096461
    85  N   -0.314532
    86  C   -0.024747
    87  C   -0.047823
    88  C   -0.085427
    89  C    0.060939
    90  C    0.030218
    91  C   -0.009499
    92  C   -0.101172
    93  H    0.050327
    94  N   -0.481335
    95  C    0.127816
    96  C   -0.142803
    97  C   -0.097813
    98  C    0.230064
    99  C    0.077125
   100  C    0.025839
   101  O   -0.277685
   102  C    0.020077
   103  N   -0.347083
   104  C    0.019036
   105  C   -0.090648
   106  C   -0.108989
   107  C    0.094313
   108  C    0.033671
   109  C    0.010054
   110  C   -0.047581
   111  N   -0.436772
   112  C    0.106403
   113  C   -0.206203
   114  C   -0.066892
   115  C    0.192982
   116  C    0.118104
   117  C    0.144220
   118  O   -0.188450
   119  C   -0.050649
   120  C    0.292280
   121  O   -0.254432
   122  O   -0.371179
   123  C    0.136625
   124  H   -0.000069
   125  H   -0.036510
   126  H    0.002959
   127  H    0.018587
   128  H    0.029566
   129  H    0.037178
   130  H    0.045346
   131  H    0.037049
   132  H    0.031097
   133  H    0.053690
   134  H    0.048089
   135  H    0.042417
   136  H    0.047736
   137  H    0.033317
   138  H    0.069395
   139  H    0.083973
   140  H    0.065116
   141  H    0.043351
   142  H    0.038415
   143  H    0.032678
   144  H    0.040665
   145  H    0.041130
   146  H    0.031825
   147  H    0.033601
   148  H    0.025562
   149  H    0.046665
   150  H    0.035590
   151  H    0.033274
   152  H    0.080974
   153  H    0.046766
   154  H    0.029894
   155  H    0.059540
   156  H    0.065639
   157  H    0.052754
   158  H    0.056648
 Sum of Mulliken charges =  -0.00000

 Dipole moment (field-independent basis, Debye):
    X=             -0.5389    Y=              5.7466    Z=              2.2470  Tot=              6.1938
 Quadrupole moment (field-independent basis, Debye-Ang):
   XX=           -345.4869   YY=           -567.1684   ZZ=           -480.0220
   XY=           -215.7170   XZ=           -104.1189   YZ=              4.0964

 Normal termination of Gaussian 16 at Sat Sep 18 06:23:47 2021.
