 Gaussian 16, Revision A.03,
 Gaussian 16:  ES64L-G16RevA.03 25-Dec-2016

 --------------------------------
 #p wB97XD/Def2SVP td=(nstates=5)
 --------------------------------

 --------------------------------
 TDDFT excited states in gaussian
 --------------------------------
 Symbolic Z-matrix:
 Charge =  0 Multiplicity = 1

                         Standard orientation:
 ---------------------------------------------------------------------
 Center     Atomic      Atomic             Coordinates (Angstroms)
 Number     Number       Type             X           Y           Z
 ---------------------------------------------------------------------
      1         12           0       21.124821    0.786766   -0.516312
      2          6           0       21.042475   -2.745509    0.474581
      3          6           0       17.947529    0.938380    0.848061
      4          6           0       21.535172    3.945880   -0.369756
      5          6           0       24.559095    0.181206   -1.382816
      6          7           0       19.703869   -0.807848    0.705521
      7          6           0       19.870077   -2.150495    0.966162
      8          6           0       18.665041   -2.665006    1.835609
      9          6           0       17.592806   -1.570597    1.694945
     10          6           0       18.449297   -0.415056    1.050723
     11          6           0       16.327063   -1.861669    0.786069
     12          6           0       19.056468   -3.011810    3.312903
     13          6           0       18.402946   -4.238677    3.911667
     14          1           0       17.213274   -3.992455    4.891778
     15          7           0       19.895597    2.243047    0.018069
     16          6           0       18.600389    2.152520    0.450234
     17          6           0       18.052486    3.515377    0.691515
     18          6           0       19.120063    4.388173    0.355706
     19          6           0       20.255712    3.531483    0.023556
     20          6           0       16.669997    3.872945    1.261240
     21          6           0       19.207535    5.905032    0.547069
     22          8           0       18.197840    6.479721    0.945009
     23          6           0       20.345641    6.689535    0.270557
     24          7           0       22.936000    1.888476   -0.585431
     25          6           0       22.710317    3.240711   -0.749859
     26          6           0       24.068904    3.912722   -1.187986
     27          6           0       25.086251    2.715917   -1.197591
     28          6           0       24.111621    1.514818   -1.148994
     29          6           0       24.029991    4.700458   -2.526262
     30          6           0       26.209557    2.658413   -0.085295
     31          6           0       27.457988    3.538129   -0.271779
     32          7           0       22.574596   -0.888731   -0.544303
     33          6           0       23.859522   -0.977434   -1.041368
     34          6           0       24.328195   -2.341473   -1.080792
     35          6           0       23.231719   -3.083119   -0.501066
     36          6           0       22.172346   -2.188943   -0.116603
     37          6           0       25.692855   -2.749554   -1.543556
     38          6           0       22.849261   -4.360174   -0.092208
     39          8           0       23.485449   -5.402039   -0.008882
     40          6           0       21.498864   -4.206147    0.665695
     41          6           0       20.555645   -5.147595   -0.046195
     42          8           0       19.840622   -5.964476    0.539499
     43          8           0       20.410358   -4.924516   -1.474531
     44          6           0       19.241695   -5.605587   -2.029410
     45          1           0       16.917661    1.000118    1.204469
     46          1           0       21.764237    4.999414   -0.543083
     47          1           0       25.584122    0.145227   -1.757391
     48          1           0       18.201725   -3.506127    1.317928
     49          1           0       17.276974   -1.185587    2.664536
     50          1           0       15.512384   -2.016031    1.493266
     51          1           0       16.445978   -2.791957    0.231376
     52          1           0       16.102912   -1.105136    0.034133
     53          1           0       18.751046   -2.269387    4.050657
     54          1           0       20.128901   -3.193047    3.387762
     55          1           0       19.200052   -4.839652    4.349371
     56          1           0       17.986104   -4.821369    3.089579
     57          1           0       16.267260    4.739042    0.735420
     58          1           0       16.860807    4.036810    2.321761
     59          1           0       15.956505    3.067946    1.090483
     60          1           0       20.515330    6.668309   -0.806417
     61          1           0       21.233588    6.428383    0.846359
     62          1           0       20.035799    7.649056    0.686001
     63          1           0       24.453167    4.634282   -0.467798
     64          1           0       25.573978    2.617653   -2.167117
     65          1           0       24.794932    4.237863   -3.150092
     66          1           0       24.293021    5.737335   -2.319307
     67          1           0       23.003570    4.565353   -2.869491
     68          1           0       26.508646    1.609741   -0.086268
     69          1           0       25.823041    2.994940    0.876937
     70          1           0       27.259032    3.960834   -1.257001
     71          1           0       28.353999    2.929818   -0.403173
     72          1           0       27.625545    4.325493    0.462727
     73          1           0       26.386423   -2.190462   -0.916854
     74          1           0       25.926989   -2.416533   -2.554525
     75          1           0       25.926598   -3.788845   -1.312297
     76          1           0       21.660456   -4.581702    1.675931
     77          1           0       19.113442   -4.925598   -2.872442
     78          1           0       18.452224   -5.738074   -1.289655
     79          1           0       19.605499   -6.546321   -2.442834
     80         12           0      -21.758189    0.453457   -0.384723
     81          6           0      -18.835002   -1.487139   -0.097490
     82          6           0      -23.534372   -2.477821    0.204000
     83          6           0      -24.564517    2.236301   -0.190931
     84          6           0      -19.781355    3.283180   -0.026684
     85          7           0      -21.164848   -1.704939    0.170813
     86          6           0      -19.934011   -2.329159    0.113528
     87          6           0      -19.975138   -3.841433    0.047434
     88          6           0      -21.487975   -4.157980    0.120618
     89          6           0      -22.131243   -2.734002    0.185593
     90          6           0      -22.033218   -5.022251   -1.087812
     91          6           0      -19.174699   -4.625374    1.180957
     92          6           0      -19.065496   -3.972863    2.568728
     93          1           0      -19.957353   -4.528101    3.718459
     94          7           0      -23.725298   -0.047195   -0.056807
     95          6           0      -24.261764   -1.293308    0.101737
     96          6           0      -25.727618   -1.204039    0.159014
     97          6           0      -26.053857    0.181672    0.040334
     98          6           0      -24.726844    0.862115   -0.067354
     99          6           0      -26.642440   -2.415292    0.295900
    100          6           0      -27.557970    0.628642    0.166762
    101          8           0      -28.393935   -0.233400    0.399351
    102          6           0      -27.945044    2.165068    0.085445
    103          7           0      -22.101314    2.423429   -0.021604
    104          6           0      -23.371038    2.982679   -0.146040
    105          6           0      -23.290920    4.611315   -0.086407
    106          6           0      -21.694389    4.817656    0.125105
    107          6           0      -21.174709    3.420798    0.009976
    108          6           0      -23.853546    5.287389   -1.371293
    109          6           0      -21.273280    5.487399    1.502912
    110          6           0      -20.336832    6.705459    1.482924
    111          7           0      -19.695878    0.882245   -0.236005
    112          6           0      -19.010437    2.060265   -0.084048
    113          6           0      -17.568668    1.753392    0.025866
    114          6           0      -17.478332    0.341077   -0.099157
    115          6           0      -18.820736   -0.118474   -0.205954
    116          6           0      -16.436730    2.718653    0.244542
    117          6           0      -16.510179   -0.770706   -0.049631
    118          8           0      -15.271233   -0.808577   -0.028666
    119          6           0      -17.381517   -2.001403   -0.252010
    120          6           0      -17.099385   -2.687169   -1.467876
    121          8           0      -17.536229   -2.285169   -2.577322
    122          8           0      -16.328334   -3.844570   -1.241485
    123          6           0      -16.090669   -4.746978   -2.363514
    124          1           0      -24.148180   -3.380582    0.212150
    125          1           0      -25.466891    2.842595   -0.289633
    126          1           0      -19.228618    4.223197    0.022431
    127          1           0      -19.534717   -4.045942   -0.927693
    128          1           0      -21.650863   -4.569227    1.116177
    129          1           0      -22.304415   -6.015346   -0.729710
    130          1           0      -21.218180   -5.072637   -1.810305
    131          1           0      -22.922895   -4.572445   -1.529802
    132          1           0      -18.172247   -4.646398    0.751586
    133          1           0      -19.555034   -5.645136    1.244645
    134          1           0      -19.256175   -2.901053    2.504926
    135          1           0      -18.023916   -4.022325    2.883407
    136          1           0      -27.058167   -2.563647    1.292549
    137          1           0      -26.197139   -3.296966   -0.165203
    138          1           0      -27.504036   -2.324448   -0.365306
    139          1           0      -27.432721    2.572467   -0.786466
    140          1           0      -27.605040    2.634495    1.008174
    141          1           0      -29.014714    2.357782    0.167700
    142          1           0      -23.974909    4.912861    0.706337
    143          1           0      -21.333341    5.386025   -0.732342
    144          1           0      -23.010598    5.474337   -2.036240
    145          1           0      -24.450608    6.173750   -1.156551
    146          1           0      -24.586915    4.684920   -1.907043
    147          1           0      -20.861316    4.689514    2.121618
    148          1           0      -22.241171    5.809698    1.886831
    149          1           0      -19.846700    6.861281    2.444354
    150          1           0      -21.024345    7.519655    1.254878
    151          1           0      -19.619049    6.474968    0.695394
    152          1           0      -16.903174    3.558585    0.758659
    153          1           0      -16.196902    3.026260   -0.773263
    154          1           0      -15.543293    2.293651    0.702920
    155          1           0      -17.110907   -2.599038    0.618172
    156          1           0      -15.496111   -4.367936   -3.194777
    157          1           0      -17.041421   -5.094174   -2.769085
    158          1           0      -15.701682   -5.670974   -1.935391
 ---------------------------------------------------------------------

 SCF Done:  E(RwB97XD) =  -4070.55106195     A.U. after   18 cycles

 Excitation energies and oscillator strengths:

 Excited State   1:      Singlet-A      1.6637 eV  745.25 nm  f=0.4212  <S**2>=0.000
     310 -> 316        0.18540
     312 -> 314        0.67746
     310 <- 316        0.11614
 This state for optimization and/or second-order correction.
 Total Energy, E(TD-HF/TD-DFT) =  -4070.48992339
 Copying the excited state density for this state as the 1-particle RhoCI density.

 Excited State   2:      Singlet-A      1.6687 eV  742.99 nm  f=0.3072  <S**2>=0.000
     309 -> 315        0.20053
     311 -> 313        0.67174
     309 <- 315        0.11862

 Excited State   3:      Singlet-A      2.1895 eV  566.26 nm  f=0.0672  <S**2>=0.000
     309 -> 313        0.61430
     311 -> 315       -0.33156

 Excited State   4:      Singlet-A      2.2612 eV  548.30 nm  f=0.0696  <S**2>=0.000
     310 -> 314        0.61504
     312 -> 316       -0.33675

 Excited State   5:      Singlet-A      3.2145 eV  385.71 nm  f=0.0157  <S**2>=0.000
     308 -> 313        0.61815
     308 -> 317        0.12007
     311 -> 315        0.24323

 The electronic state is 1-A.
 Alpha  occ. eigenvalues --  -46.97075 -46.95302 -19.31039 -19.28915 -19.25216
 Alpha  occ. eigenvalues --  -19.25009 -19.24660 -19.24273 -19.23810 -19.22878
 Alpha  occ. eigenvalues --  -14.47327 -14.47306 -14.46672 -14.46544 -14.45394
 Alpha  occ. eigenvalues --  -14.44576 -14.43910 -14.43721 -10.43906 -10.43249
 Alpha  occ. eigenvalues --  -10.40522 -10.39401 -10.38872 -10.37465 -10.36391
 Alpha  occ. eigenvalues --  -10.35989 -10.35943 -10.35861 -10.35625 -10.35583
 Alpha  occ. eigenvalues --  -10.35436 -10.35436 -10.35022 -10.34984 -10.34633
 Alpha  occ. eigenvalues --  -10.34597 -10.34470 -10.34120 -10.33914 -10.33852
 Alpha  occ. eigenvalues --  -10.33380 -10.33344 -10.33212 -10.33043 -10.32982
 Alpha  occ. eigenvalues --  -10.32956 -10.32878 -10.32656 -10.32575 -10.32532
 Alpha  occ. eigenvalues --  -10.32426 -10.32372 -10.32364 -10.32350 -10.32278
 Alpha  occ. eigenvalues --  -10.32277 -10.32250 -10.32145 -10.32093 -10.31900
 Alpha  occ. eigenvalues --  -10.31820 -10.31629 -10.31570 -10.31377 -10.31372
 Alpha  occ. eigenvalues --  -10.31267 -10.31038 -10.30845 -10.30828 -10.30771
 Alpha  occ. eigenvalues --  -10.30757 -10.30707 -10.30693 -10.30680 -10.30594
 Alpha  occ. eigenvalues --  -10.30501 -10.30493 -10.30457 -10.30098 -10.30016
 Alpha  occ. eigenvalues --  -10.29876 -10.29716 -10.29634 -10.29431 -10.29242
 Alpha  occ. eigenvalues --  -10.29233  -3.22978  -3.21368  -1.96502  -1.96144
 Alpha  occ. eigenvalues --   -1.95897  -1.94913  -1.94506  -1.94343  -1.17158
 Alpha  occ. eigenvalues --   -1.16060  -1.12664  -1.12658  -1.11308  -1.11173
 Alpha  occ. eigenvalues --   -1.09233  -1.08529  -1.07087  -1.06167  -1.05611
 Alpha  occ. eigenvalues --   -1.05342  -1.05332  -1.04621  -1.03917  -1.03068
 Alpha  occ. eigenvalues --   -0.95145  -0.94854  -0.91073  -0.90876  -0.90801
 Alpha  occ. eigenvalues --   -0.90728  -0.90387  -0.89969  -0.88964  -0.88864
 Alpha  occ. eigenvalues --   -0.88739  -0.88028  -0.87835  -0.87552  -0.86905
 Alpha  occ. eigenvalues --   -0.86474  -0.85799  -0.85750  -0.85580  -0.84701
 Alpha  occ. eigenvalues --   -0.84462  -0.83587  -0.83094  -0.82967  -0.82060
 Alpha  occ. eigenvalues --   -0.81827  -0.80220  -0.80109  -0.79260  -0.79171
 Alpha  occ. eigenvalues --   -0.78938  -0.78710  -0.78460  -0.77746  -0.77210
 Alpha  occ. eigenvalues --   -0.76875  -0.74808  -0.74336  -0.73901  -0.73742
 Alpha  occ. eigenvalues --   -0.71248  -0.71082  -0.70885  -0.70534  -0.70382
 Alpha  occ. eigenvalues --   -0.69692  -0.68981  -0.68839  -0.67706  -0.67492
 Alpha  occ. eigenvalues --   -0.67309  -0.67202  -0.66982  -0.66596  -0.66200
 Alpha  occ. eigenvalues --   -0.66013  -0.64448  -0.63867  -0.62396  -0.62254
 Alpha  occ. eigenvalues --   -0.61793  -0.61614  -0.61244  -0.61042  -0.60890
 Alpha  occ. eigenvalues --   -0.60660  -0.59734  -0.59214  -0.59168  -0.58981
 Alpha  occ. eigenvalues --   -0.58649  -0.58124  -0.57572  -0.57546  -0.56894
 Alpha  occ. eigenvalues --   -0.56731  -0.56379  -0.56279  -0.56164  -0.55818
 Alpha  occ. eigenvalues --   -0.55729  -0.55665  -0.55458  -0.55210  -0.55002
 Alpha  occ. eigenvalues --   -0.54832  -0.54512  -0.54422  -0.54315  -0.54069
 Alpha  occ. eigenvalues --   -0.53888  -0.53660  -0.53496  -0.53401  -0.53169
 Alpha  occ. eigenvalues --   -0.52952  -0.52897  -0.52669  -0.52506  -0.52250
 Alpha  occ. eigenvalues --   -0.51958  -0.51798  -0.51778  -0.51491  -0.51332
 Alpha  occ. eigenvalues --   -0.51266  -0.51196  -0.51084  -0.50918  -0.50881
 Alpha  occ. eigenvalues --   -0.50547  -0.50491  -0.50317  -0.50276  -0.50087
 Alpha  occ. eigenvalues --   -0.50068  -0.49880  -0.49645  -0.49284  -0.49221
 Alpha  occ. eigenvalues --   -0.49204  -0.48639  -0.48563  -0.48449  -0.48391
 Alpha  occ. eigenvalues --   -0.48180  -0.48094  -0.48025  -0.47833  -0.47693
 Alpha  occ. eigenvalues --   -0.47307  -0.47299  -0.46909  -0.46887  -0.46736
 Alpha  occ. eigenvalues --   -0.46590  -0.46584  -0.46479  -0.46421  -0.46299
 Alpha  occ. eigenvalues --   -0.46133  -0.46008  -0.45883  -0.45707  -0.45546
 Alpha  occ. eigenvalues --   -0.45168  -0.45136  -0.45028  -0.44895  -0.44660
 Alpha  occ. eigenvalues --   -0.44540  -0.44368  -0.44367  -0.44241  -0.44189
 Alpha  occ. eigenvalues --   -0.44061  -0.44024  -0.43889  -0.43561  -0.43406
 Alpha  occ. eigenvalues --   -0.43238  -0.42970  -0.42500  -0.42158  -0.42153
 Alpha  occ. eigenvalues --   -0.42101  -0.41815  -0.41775  -0.41611  -0.41197
 Alpha  occ. eigenvalues --   -0.40853  -0.40760  -0.39795  -0.39612  -0.39598
 Alpha  occ. eigenvalues --   -0.39474  -0.39168  -0.39145  -0.38998  -0.38653
 Alpha  occ. eigenvalues --   -0.38267  -0.37324  -0.36754  -0.36528  -0.36325
 Alpha  occ. eigenvalues --   -0.35920  -0.35486  -0.35250  -0.33821  -0.33550
 Alpha  occ. eigenvalues --   -0.33509  -0.33249  -0.33188  -0.33030  -0.32457
 Alpha  occ. eigenvalues --   -0.32101  -0.31777  -0.30849  -0.26383  -0.26082
 Alpha  occ. eigenvalues --   -0.23251  -0.22649
 Alpha virt. eigenvalues --   -0.07119  -0.06519  -0.00785   0.00101   0.01896
 Alpha virt. eigenvalues --    0.02330   0.03660   0.04093   0.04336   0.04910
 Alpha virt. eigenvalues --    0.05566   0.06834   0.06999   0.07480   0.07795

 Mulliken charges:
               1
     1  Mg   0.966253
     2  C   -0.023850
     3  C   -0.063194
     4  C   -0.092044
     5  C   -0.100967
     6  N   -0.282715
     7  C   -0.034024
     8  C    0.018218
     9  C   -0.119644
    10  C   -0.008093
    11  C    0.015352
    12  C    0.017589
    13  C   -0.125826
    14  H    0.022256
    15  N   -0.499496
    16  C    0.163139
    17  C   -0.190099
    18  C   -0.055602
    19  C    0.215188
    20  C    0.096878
    21  C    0.017718
    22  O   -0.245719
    23  C    0.020176
    24  N   -0.384798
    25  C    0.048480
    26  C   -0.125728
    27  C   -0.090060
    28  C    0.045010
    29  C    0.037756
    30  C   -0.003796
    31  C   -0.042740
    32  N   -0.423492
    33  C    0.155358
    34  C   -0.159607
    35  C   -0.021052
    36  C    0.159156
    37  C    0.093585
    38  C    0.074478
    39  O   -0.216383
    40  C   -0.098808
    41  C    0.286847
    42  O   -0.256896
    43  O   -0.417841
    44  C    0.139185
    45  H   -0.001229
    46  H   -0.023798
    47  H   -0.001954
    48  H    0.034670
    49  H    0.044293
    50  H    0.048620
    51  H    0.036656
    52  H    0.049398
    53  H    0.048465
    54  H    0.043886
    55  H    0.057341
    56  H    0.052622
    57  H    0.068315
    58  H    0.069375
    59  H    0.030928
    60  H    0.075423
    61  H    0.063986
    62  H    0.054815
    63  H    0.035867
    64  H    0.019919
    65  H    0.037831
    66  H    0.042210
    67  H    0.042245
    68  H    0.028939
    69  H    0.036383
    70  H    0.015397
    71  H    0.040170
    72  H    0.050233
    73  H    0.034097
    74  H    0.047803
    75  H    0.062807
    76  H    0.072078
    77  H    0.050731
    78  H    0.068783
    79  H    0.052548
    80  Mg   0.987441
    81  C   -0.108840
    82  C   -0.085572
    83  C   -0.110629
    84  C   -0.096020
    85  N   -0.342138
    86  C   -0.038411
    87  C   -0.062333
    88  C   -0.058523
    89  C    0.026724
    90  C    0.027357
    91  C   -0.015139
    92  C   -0.118695
    93  H    0.036894
    94  N   -0.448711
    95  C    0.153361
    96  C   -0.157765
    97  C   -0.113647
    98  C    0.206969
    99  C    0.095511
   100  C    0.069679
   101  O   -0.226559
   102  C   -0.026108
   103  N   -0.421947
   104  C    0.079294
   105  C   -0.103141
   106  C   -0.075728
   107  C    0.085831
   108  C    0.009844
   109  C   -0.024263
   110  C   -0.038126
   111  N   -0.406818
   112  C    0.119544
   113  C   -0.211663
   114  C   -0.096343
   115  C    0.263695
   116  C    0.092522
   117  C    0.145471
   118  O   -0.217892
   119  C   -0.059404
   120  C    0.315833
   121  O   -0.277633
   122  O   -0.382217
   123  C    0.152235
   124  H   -0.009105
   125  H   -0.035056
   126  H   -0.015872
   127  H    0.049463
   128  H    0.045663
   129  H    0.043713
   130  H    0.040414
   131  H    0.046389
   132  H    0.038319
   133  H    0.048335
   134  H    0.063093
   135  H    0.056403
   136  H    0.065387
   137  H    0.023003
   138  H    0.044070
   139  H    0.073623
   140  H    0.060921
   141  H    0.052787
   142  H    0.044442
   143  H    0.036122
   144  H    0.037583
   145  H    0.038516
   146  H    0.031788
   147  H    0.048519
   148  H    0.025119
   149  H    0.051615
   150  H    0.041620
   151  H    0.037686
   152  H    0.034749
   153  H    0.054914
   154  H    0.066660
   155  H    0.059811
   156  H    0.069353
   157  H    0.033794
   158  H    0.052221
 Sum of Mulliken charges =  -0.00000

 Dipole moment (field-independent basis, Debye):
    X=             -2.0724    Y=              6.1097    Z=             -3.1013  Tot=              7.1583
 Quadrupole moment (field-independent basis, Debye-Ang):
   XX=           -436.7674   YY=           -504.1919   ZZ=           -509.1656
   XY=            104.3398   XZ=            -31.8617   YZ=              5.2521

 Normal termination of Gaussian 16 at Mon Sep 20 07:08:01 2021.
