 Gaussian 16, Revision A.03,
 Gaussian 16:  ES64L-G16RevA.03 25-Dec-2016

 --------------------------------
 #p wB97XD/Def2SVP td=(nstates=5)
 --------------------------------

 --------------------------------
 TDDFT excited states in gaussian
 --------------------------------
 Symbolic Z-matrix:
 Charge =  0 Multiplicity = 1

                         Standard orientation:
 ---------------------------------------------------------------------
 Center     Atomic      Atomic             Coordinates (Angstroms)
 Number     Number       Type             X           Y           Z
 ---------------------------------------------------------------------
      1         12           0      -28.277370   -0.700861   -0.113425
      2          6           0      -26.274814    2.325267   -0.917060
      3          6           0      -29.063857    0.973981    2.715048
      4          6           0      -29.711526   -3.436279    0.599533
      5          6           0      -26.509400   -2.281719   -2.768437
      6          7           0      -27.675695    1.369937    0.777792
      7          6           0      -27.030256    2.446785    0.193857
      8          6           0      -27.171963    3.767559    0.959034
      9          6           0      -27.669305    3.196500    2.322812
     10          6           0      -28.175522    1.746898    1.960305
     11          6           0      -26.644784    3.165601    3.412908
     12          6           0      -28.069730    4.875903    0.313670
     13          6           0      -27.725704    6.302946    0.581841
     14          1           0      -28.917009    7.241627    0.744573
     15          7           0      -29.328175   -1.186862    1.462423
     16          6           0      -29.618355   -0.336538    2.549881
     17          6           0      -30.582233   -1.002327    3.377849
     18          6           0      -30.877051   -2.235120    2.648484
     19          6           0      -29.976388   -2.295838    1.554433
     20          6           0      -31.260043   -0.382082    4.655235
     21          6           0      -31.932793   -3.229591    3.023657
     22          8           0      -32.093935   -4.301085    2.390144
     23          6           0      -32.899438   -3.011916    4.129918
     24          7           0      -28.051882   -2.635439   -0.818117
     25          6           0      -28.799264   -3.644044   -0.365257
     26          6           0      -28.566915   -4.993026   -1.118467
     27          6           0      -27.899214   -4.423471   -2.425275
     28          6           0      -27.403279   -3.021435   -1.977089
     29          6           0      -27.598997   -5.943955   -0.343437
     30          6           0      -28.935463   -4.278253   -3.617672
     31          6           0      -29.779230   -5.498731   -4.041800
     32          7           0      -26.750878   -0.122874   -1.585218
     33          6           0      -26.210582   -0.879481   -2.618832
     34          6           0      -25.237682   -0.091752   -3.339016
     35          6           0      -25.260497    1.171160   -2.733595
     36          6           0      -26.130393    1.096621   -1.611230
     37          6           0      -24.491874   -0.493575   -4.566877
     38          6           0      -24.693416    2.511554   -2.801900
     39          8           0      -23.920162    3.069061   -3.569507
     40          6           0      -25.460404    3.308240   -1.623588
     41          6           0      -24.416739    3.950541   -0.843251
     42          8           0      -23.516844    3.390079   -0.197997
     43          8           0      -24.308957    5.240695   -1.277306
     44          6           0      -23.304635    6.086595   -0.716724
     45          1           0      -29.392143    1.624742    3.528404
     46          1           0      -30.187811   -4.396771    0.806148
     47          1           0      -26.011460   -2.816526   -3.580384
     48          1           0      -26.167226    4.169677    1.090784
     49          1           0      -28.577908    3.706087    2.642164
     50          1           0      -26.351464    2.123869    3.542912
     51          1           0      -27.098837    3.480906    4.352223
     52          1           0      -25.735314    3.746623    3.261274
     53          1           0      -29.072719    4.741724    0.717772
     54          1           0      -28.122868    4.666963   -0.754460
     55          1           0      -27.159439    6.596977   -0.301667
     56          1           0      -26.954898    6.412175    1.344873
     57          1           0      -32.297697   -0.072777    4.533451
     58          1           0      -30.664014    0.432841    5.065156
     59          1           0      -31.184462   -1.212861    5.357899
     60          1           0      -32.378062   -3.169772    5.074377
     61          1           0      -33.676765   -3.763849    3.991346
     62          1           0      -33.318092   -2.016943    3.982421
     63          1           0      -29.554719   -5.439190   -1.238544
     64          1           0      -27.034300   -4.974957   -2.792657
     65          1           0      -28.198784   -6.795276   -0.020588
     66          1           0      -27.052086   -5.495035    0.485060
     67          1           0      -26.918851   -6.253814   -1.138111
     68          1           0      -28.384399   -4.021311   -4.522019
     69          1           0      -29.545306   -3.406697   -3.380467
     70          1           0      -30.812374   -5.173244   -3.921190
     71          1           0      -29.544133   -6.255599   -3.292932
     72          1           0      -29.600893   -5.793409   -5.075839
     73          1           0      -25.003662   -1.393441   -4.908848
     74          1           0      -23.477844   -0.723512   -4.239930
     75          1           0      -24.420380    0.290122   -5.321050
     76          1           0      -26.130348    4.048360   -2.060814
     77          1           0      -22.732989    5.576806    0.059112
     78          1           0      -23.854220    6.901023   -0.244580
     79          1           0      -22.698661    6.550204   -1.493857
     80         12           0       28.150501   -0.522441    0.302800
     81          6           0       26.193467    2.289304    0.881231
     82          6           0       29.891906    1.308168   -2.018735
     83          6           0       29.932602   -3.374686   -0.474187
     84          6           0       26.004911   -2.471777    2.238546
     85          7           0       28.095760    1.585342   -0.389639
     86          6           0       27.306952    2.582222    0.046528
     87          6           0       27.669634    3.983377   -0.498317
     88          6           0       28.722491    3.604673   -1.626121
     89          6           0       28.917033    2.031430   -1.384580
     90          6           0       28.135725    3.999959   -3.028057
     91          6           0       28.279891    4.827023    0.735416
     92          6           0       27.622919    6.208507    1.026086
     93          1           0       26.833183    6.810810   -0.191818
     94          7           0       29.642604   -1.035762   -1.085285
     95          6           0       30.288850   -0.085875   -1.903075
     96          6           0       31.442260   -0.709507   -2.515981
     97          6           0       31.446672   -2.056548   -2.132337
     98          6           0       30.343725   -2.209490   -1.112686
     99          6           0       32.223351   -0.009664   -3.637271
    100          6           0       32.407665   -3.181097   -2.601138
    101          8           0       32.366022   -4.365300   -2.218338
    102          6           0       33.553806   -2.804821   -3.555816
    103          7           0       27.901131   -2.626573    0.777586
    104          6           0       28.858723   -3.593644    0.344668
    105          6           0       28.397101   -5.014880    0.729131
    106          6           0       27.294507   -4.673046    1.836567
    107          6           0       27.077323   -3.149481    1.641657
    108          6           0       27.945865   -5.756324   -0.518419
    109          6           0       27.826435   -4.977294    3.300307
    110          6           0       29.168541   -4.440830    3.904913
    111          7           0       26.423609   -0.230494    1.283462
    112          6           0       25.627322   -1.106932    2.027043
    113          6           0       24.521626   -0.385557    2.568516
    114          6           0       24.712830    0.932691    2.195783
    115          6           0       25.827030    0.984837    1.322181
    116          6           0       23.345445   -0.946846    3.341120
    117          6           0       24.178757    2.231329    2.313822
    118          8           0       23.156303    2.544194    2.835540
    119          6           0       25.060479    3.141724    1.362403
    120          6           0       24.153676    3.570910    0.242272
    121          8           0       24.207180    3.122448   -0.883833
    122          8           0       23.300258    4.473072    0.741073
    123          6           0       22.117584    4.635363   -0.068599
    124          1           0       30.504339    1.902456   -2.699706
    125          1           0       30.341024   -4.290069   -0.905916
    126          1           0       25.316470   -3.070976    2.838972
    127          1           0       26.831546    4.559111   -0.890581
    128          1           0       29.704515    4.063520   -1.508999
    129          1           0       28.278310    3.258788   -3.814821
    130          1           0       28.721319    4.902428   -3.201058
    131          1           0       27.104760    4.310118   -2.859392
    132          1           0       29.358767    4.873108    0.588567
    133          1           0       28.158265    4.207592    1.624356
    134          1           0       28.500461    6.803748    1.276149
    135          1           0       26.944476    6.225738    1.878520
    136          1           0       32.203392   -0.674069   -4.501510
    137          1           0       33.271350    0.076158   -3.347030
    138          1           0       31.782985    0.965453   -3.843098
    139          1           0       33.102205   -2.621700   -4.531694
    140          1           0       34.144717   -3.712968   -3.673776
    141          1           0       34.205254   -2.076284   -3.073790
    142          1           0       29.252503   -5.450007    1.246721
    143          1           0       26.436312   -5.333775    1.719372
    144          1           0       28.453903   -5.421500   -1.422941
    145          1           0       26.873602   -5.634434   -0.669990
    146          1           0       28.194691   -6.815122   -0.449774
    147          1           0       27.805523   -6.058220    3.439447
    148          1           0       27.080973   -4.486596    3.926140
    149          1           0       29.961035   -5.145876    3.653585
    150          1           0       29.007256   -4.414114    4.983220
    151          1           0       29.424501   -3.408016    3.666371
    152          1           0       23.654937   -1.444444    4.260379
    153          1           0       22.916226   -1.681304    2.659924
    154          1           0       22.654865   -0.209547    3.752896
    155          1           0       25.472919    4.061367    1.777824
    156          1           0       21.226221    4.901496    0.499023
    157          1           0       21.845031    3.910981   -0.835988
    158          1           0       22.180371    5.472391   -0.764308
 ---------------------------------------------------------------------

 SCF Done:  E(RwB97XD) =  -4070.60926128     A.U. after   19 cycles

 Excitation energies and oscillator strengths:

 Excited State   1:      Singlet-A      1.6008 eV  774.49 nm  f=0.3898  <S**2>=0.000
     309 -> 316       -0.16172
     311 -> 313        0.68932
     309 <- 316       -0.11300
 This state for optimization and/or second-order correction.
 Total Energy, E(TD-HF/TD-DFT) =  -4070.55043125
 Copying the excited state density for this state as the 1-particle RhoCI density.

 Excited State   2:      Singlet-A      1.6514 eV  750.79 nm  f=0.3875  <S**2>=0.000
     310 -> 315       -0.18082
     312 -> 314        0.68426
     310 <- 315       -0.11556

 Excited State   3:      Singlet-A      2.1247 eV  583.53 nm  f=0.2107  <S**2>=0.000
     309 -> 313        0.66537
     311 -> 316        0.22070

 Excited State   4:      Singlet-A      2.1706 eV  571.20 nm  f=0.1250  <S**2>=0.000
     310 -> 314        0.64463
     312 -> 315        0.27782

 Excited State   5:      Singlet-A      3.1834 eV  389.47 nm  f=0.0051  <S**2>=0.000
     305 -> 313       -0.18207
     306 -> 313        0.66082

 The electronic state is 1-A.
 Alpha  occ. eigenvalues --  -46.95239 -46.94405 -19.31380 -19.30056 -19.25004
 Alpha  occ. eigenvalues --  -19.24998 -19.24431 -19.24402 -19.23564 -19.22446
 Alpha  occ. eigenvalues --  -14.46938 -14.46823 -14.46004 -14.46003 -14.44277
 Alpha  occ. eigenvalues --  -14.44201 -14.44099 -14.43686 -10.43153 -10.43020
 Alpha  occ. eigenvalues --  -10.40056 -10.39033 -10.38850 -10.37927 -10.35654
 Alpha  occ. eigenvalues --  -10.35459 -10.35091 -10.34855 -10.34795 -10.34777
 Alpha  occ. eigenvalues --  -10.34693 -10.34678 -10.34483 -10.34448 -10.34314
 Alpha  occ. eigenvalues --  -10.34263 -10.33872 -10.33844 -10.33805 -10.33597
 Alpha  occ. eigenvalues --  -10.33586 -10.33209 -10.33120 -10.32948 -10.32916
 Alpha  occ. eigenvalues --  -10.32600 -10.32427 -10.32395 -10.32332 -10.32271
 Alpha  occ. eigenvalues --  -10.32189 -10.32184 -10.32166 -10.32062 -10.32044
 Alpha  occ. eigenvalues --  -10.32001 -10.31895 -10.31739 -10.31707 -10.31692
 Alpha  occ. eigenvalues --  -10.31616 -10.31543 -10.31416 -10.31060 -10.31022
 Alpha  occ. eigenvalues --  -10.30995 -10.30773 -10.30764 -10.30732 -10.30559
 Alpha  occ. eigenvalues --  -10.30468 -10.30326 -10.30181 -10.30091 -10.29785
 Alpha  occ. eigenvalues --  -10.29643 -10.29642 -10.29622 -10.29601 -10.29560
 Alpha  occ. eigenvalues --  -10.29437 -10.29409 -10.29379 -10.29163 -10.29065
 Alpha  occ. eigenvalues --  -10.28765  -3.21342  -3.20437  -1.94901  -1.94464
 Alpha  occ. eigenvalues --   -1.94329  -1.94029  -1.93539  -1.93430  -1.20350
 Alpha  occ. eigenvalues --   -1.18741  -1.14290  -1.12516  -1.11267  -1.10467
 Alpha  occ. eigenvalues --   -1.09638  -1.09231  -1.06929  -1.06169  -1.06058
 Alpha  occ. eigenvalues --   -1.05667  -1.05314  -1.04727  -1.04598  -1.03120
 Alpha  occ. eigenvalues --   -0.95714  -0.94808  -0.91419  -0.90682  -0.90416
 Alpha  occ. eigenvalues --   -0.89972  -0.89959  -0.89611  -0.89394  -0.89008
 Alpha  occ. eigenvalues --   -0.88791  -0.88413  -0.88182  -0.87906  -0.86635
 Alpha  occ. eigenvalues --   -0.85980  -0.85867  -0.85245  -0.85027  -0.84137
 Alpha  occ. eigenvalues --   -0.84021  -0.83143  -0.83035  -0.82788  -0.82783
 Alpha  occ. eigenvalues --   -0.81854  -0.80511  -0.79624  -0.79422  -0.79219
 Alpha  occ. eigenvalues --   -0.79001  -0.78643  -0.78173  -0.77768  -0.77386
 Alpha  occ. eigenvalues --   -0.76870  -0.75364  -0.74948  -0.73125  -0.72902
 Alpha  occ. eigenvalues --   -0.71216  -0.70806  -0.70618  -0.70596  -0.70180
 Alpha  occ. eigenvalues --   -0.69919  -0.68916  -0.68309  -0.67795  -0.67657
 Alpha  occ. eigenvalues --   -0.67088  -0.66901  -0.66528  -0.66462  -0.66441
 Alpha  occ. eigenvalues --   -0.65851  -0.64353  -0.64055  -0.62738  -0.61969
 Alpha  occ. eigenvalues --   -0.61787  -0.61501  -0.61399  -0.60889  -0.60843
 Alpha  occ. eigenvalues --   -0.60392  -0.60371  -0.59981  -0.59701  -0.59224
 Alpha  occ. eigenvalues --   -0.58193  -0.57860  -0.57645  -0.57608  -0.56889
 Alpha  occ. eigenvalues --   -0.56863  -0.56618  -0.56350  -0.56100  -0.55877
 Alpha  occ. eigenvalues --   -0.55666  -0.55298  -0.55187  -0.55045  -0.54775
 Alpha  occ. eigenvalues --   -0.54470  -0.54423  -0.54354  -0.54084  -0.53881
 Alpha  occ. eigenvalues --   -0.53810  -0.53700  -0.53665  -0.53351  -0.53187
 Alpha  occ. eigenvalues --   -0.52937  -0.52850  -0.52564  -0.52222  -0.51846
 Alpha  occ. eigenvalues --   -0.51831  -0.51822  -0.51746  -0.51640  -0.51452
 Alpha  occ. eigenvalues --   -0.51438  -0.51159  -0.51045  -0.50723  -0.50654
 Alpha  occ. eigenvalues --   -0.50467  -0.50256  -0.50207  -0.50075  -0.49835
 Alpha  occ. eigenvalues --   -0.49787  -0.49645  -0.49518  -0.49379  -0.49172
 Alpha  occ. eigenvalues --   -0.49074  -0.48565  -0.48455  -0.48357  -0.48167
 Alpha  occ. eigenvalues --   -0.48146  -0.48074  -0.47898  -0.47733  -0.47469
 Alpha  occ. eigenvalues --   -0.47380  -0.47125  -0.47038  -0.46922  -0.46880
 Alpha  occ. eigenvalues --   -0.46744  -0.46506  -0.46422  -0.46297  -0.46233
 Alpha  occ. eigenvalues --   -0.45921  -0.45671  -0.45655  -0.45558  -0.45353
 Alpha  occ. eigenvalues --   -0.45183  -0.45062  -0.44978  -0.44894  -0.44765
 Alpha  occ. eigenvalues --   -0.44598  -0.44556  -0.44271  -0.44038  -0.43916
 Alpha  occ. eigenvalues --   -0.43782  -0.43689  -0.43604  -0.43250  -0.43241
 Alpha  occ. eigenvalues --   -0.42677  -0.42657  -0.42589  -0.42584  -0.42167
 Alpha  occ. eigenvalues --   -0.41746  -0.41435  -0.41375  -0.41234  -0.41027
 Alpha  occ. eigenvalues --   -0.40478  -0.40166  -0.39690  -0.39648  -0.39376
 Alpha  occ. eigenvalues --   -0.39233  -0.39081  -0.38964  -0.38425  -0.38407
 Alpha  occ. eigenvalues --   -0.38137  -0.37863  -0.36739  -0.36627  -0.36274
 Alpha  occ. eigenvalues --   -0.36067  -0.35399  -0.34915  -0.33792  -0.33784
 Alpha  occ. eigenvalues --   -0.33445  -0.33037  -0.32467  -0.32292  -0.32248
 Alpha  occ. eigenvalues --   -0.32076  -0.31771  -0.31676  -0.26178  -0.25669
 Alpha  occ. eigenvalues --   -0.23551  -0.22763
 Alpha virt. eigenvalues --   -0.08027  -0.06883   0.00624   0.01137   0.02354
 Alpha virt. eigenvalues --    0.02632   0.04277   0.04618   0.04940   0.05636
 Alpha virt. eigenvalues --    0.06099   0.07126   0.07643   0.08301   0.08341

 Mulliken charges:
               1
     1  Mg   0.983541
     2  C   -0.013856
     3  C   -0.065913
     4  C   -0.042922
     5  C   -0.083056
     6  N   -0.296747
     7  C   -0.036606
     8  C   -0.083944
     9  C   -0.102328
    10  C   -0.016654
    11  C    0.047868
    12  C    0.043069
    13  C   -0.116524
    14  H    0.053873
    15  N   -0.496755
    16  C    0.190233
    17  C   -0.170656
    18  C   -0.082074
    19  C    0.147968
    20  C    0.071634
    21  C    0.008639
    22  O   -0.274938
    23  C    0.009926
    24  N   -0.391774
    25  C    0.045206
    26  C   -0.110549
    27  C   -0.102324
    28  C    0.088901
    29  C    0.051784
    30  C   -0.033917
    31  C   -0.032740
    32  N   -0.400183
    33  C    0.123277
    34  C   -0.202644
    35  C   -0.040081
    36  C    0.129454
    37  C    0.087853
    38  C    0.156518
    39  O   -0.192274
    40  C   -0.059857
    41  C    0.245493
    42  O   -0.268763
    43  O   -0.350397
    44  C    0.133685
    45  H   -0.007691
    46  H    0.013677
    47  H    0.005012
    48  H    0.033315
    49  H    0.025423
    50  H    0.044492
    51  H    0.034254
    52  H    0.048409
    53  H    0.032027
    54  H    0.031278
    55  H    0.048015
    56  H    0.042914
    57  H    0.068038
    58  H    0.040303
    59  H    0.043099
    60  H    0.063964
    61  H    0.055081
    62  H    0.045498
    63  H    0.047075
    64  H    0.025423
    65  H    0.046376
    66  H    0.060249
    67  H    0.027969
    68  H    0.024659
    69  H    0.033419
    70  H    0.042563
    71  H    0.036232
    72  H    0.048606
    73  H    0.031159
    74  H    0.060022
    75  H    0.065028
    76  H    0.071902
    77  H    0.066078
    78  H    0.033735
    79  H    0.061950
    80  Mg   0.964215
    81  C   -0.022225
    82  C   -0.067182
    83  C   -0.064473
    84  C   -0.108218
    85  N   -0.333659
    86  C    0.014139
    87  C   -0.076082
    88  C   -0.120553
    89  C    0.066929
    90  C    0.027397
    91  C   -0.000209
    92  C   -0.127133
    93  H    0.035007
    94  N   -0.460695
    95  C    0.133590
    96  C   -0.174097
    97  C   -0.090037
    98  C    0.138150
    99  C    0.086130
   100  C    0.051104
   101  O   -0.252420
   102  C   -0.016031
   103  N   -0.338724
   104  C    0.022059
   105  C   -0.061278
   106  C   -0.072418
   107  C    0.096884
   108  C    0.041991
   109  C   -0.059410
   110  C   -0.054440
   111  N   -0.488592
   112  C    0.148326
   113  C   -0.183972
   114  C   -0.008242
   115  C    0.148150
   116  C    0.079482
   117  C    0.095174
   118  O   -0.162824
   119  C   -0.097347
   120  C    0.245589
   121  O   -0.237004
   122  O   -0.309763
   123  C    0.140934
   124  H   -0.012953
   125  H    0.030850
   126  H    0.003270
   127  H    0.039858
   128  H    0.038814
   129  H    0.052155
   130  H    0.032872
   131  H    0.049476
   132  H    0.033226
   133  H    0.042324
   134  H    0.057006
   135  H    0.070033
   136  H    0.044635
   137  H    0.039430
   138  H    0.041569
   139  H    0.061772
   140  H    0.044428
   141  H    0.063871
   142  H    0.035090
   143  H    0.030290
   144  H    0.046250
   145  H    0.035069
   146  H    0.037251
   147  H    0.038899
   148  H    0.021497
   149  H    0.047718
   150  H    0.037245
   151  H    0.043649
   152  H    0.037575
   153  H    0.056858
   154  H    0.057403
   155  H    0.056421
   156  H    0.058026
   157  H    0.054728
   158  H    0.025171
 Sum of Mulliken charges =  -0.00000

 Dipole moment (field-independent basis, Debye):
    X=             -1.5952    Y=              3.5876    Z=              1.6367  Tot=              4.2538
 Quadrupole moment (field-independent basis, Debye-Ang):
   XX=           -315.7294   YY=           -486.6754   ZZ=           -491.5419
   XY=             17.8592   XZ=            -19.0468   YZ=              9.7244

 Normal termination of Gaussian 16 at Sat Sep 18 18:16:47 2021.
