 Gaussian 16, Revision A.03,
 Gaussian 16:  ES64L-G16RevA.03 25-Dec-2016

 --------------------------------
 #p wB97XD/Def2SVP td=(nstates=5)
 --------------------------------

 --------------------------------
 TDDFT excited states in gaussian
 --------------------------------
 Symbolic Z-matrix:
 Charge =  0 Multiplicity = 1

                         Standard orientation:
 ---------------------------------------------------------------------
 Center     Atomic      Atomic             Coordinates (Angstroms)
 Number     Number       Type             X           Y           Z
 ---------------------------------------------------------------------
      1         12           0      -24.696840   -0.807739   -0.023178
      2          6           0      -25.996378    2.253569    0.731308
      3          6           0      -22.472843    0.782947   -2.267608
      4          6           0      -23.550493   -3.809737   -0.965052
      5          6           0      -26.858671   -2.234253    2.232997
      6          7           0      -24.483820    1.211106   -0.927870
      7          6           0      -25.075452    2.340148   -0.347098
      8          6           0      -24.601572    3.657727   -1.023396
      9          6           0      -23.544511    3.065326   -1.992870
     10          6           0      -23.524427    1.562909   -1.776841
     11          6           0      -23.561945    3.397127   -3.545809
     12          6           0      -23.997333    4.777571   -0.066633
     13          6           0      -23.527358    6.026583   -0.859461
     14          1           0      -24.432477    7.243330   -0.661640
     15          7           0      -23.144624   -1.427239   -1.423901
     16          6           0      -22.229264   -0.596902   -2.034134
     17          6           0      -21.381280   -1.468159   -2.839265
     18          6           0      -21.712428   -2.807299   -2.454832
     19          6           0      -22.825274   -2.746724   -1.560312
     20          6           0      -20.361155   -0.905485   -3.752151
     21          6           0      -21.034836   -4.072264   -3.088327
     22          8           0      -21.453573   -5.236127   -2.923975
     23          6           0      -19.855780   -3.910522   -4.011991
     24          7           0      -25.134238   -2.641032    0.497697
     25          6           0      -24.523584   -3.807703   -0.042451
     26          6           0      -25.287178   -5.050935    0.354019
     27          6           0      -25.937113   -4.558226    1.645535
     28          6           0      -25.952522   -3.042288    1.509851
     29          6           0      -26.332210   -5.496626   -0.723255
     30          6           0      -25.113998   -4.915048    2.903487
     31          6           0      -25.319204   -6.265615    3.535424
     32          7           0      -26.206174   -0.218767    1.251792
     33          6           0      -26.894641   -0.854057    2.213830
     34          6           0      -27.777077    0.073355    2.858078
     35          6           0      -27.462477    1.311515    2.339607
     36          6           0      -26.458321    1.092905    1.383665
     37          6           0      -28.718159   -0.333541    3.937771
     38          6           0      -27.777608    2.673222    2.429013
     39          8           0      -28.550273    3.279681    3.145655
     40          6           0      -26.812133    3.370971    1.360114
     41          6           0      -27.662853    4.125363    0.400741
     42          8           0      -28.432722    3.667256   -0.408098
     43          8           0      -27.374760    5.430148    0.421110
     44          6           0      -28.138664    6.302049   -0.552287
     45          1           0      -21.721414    1.354638   -2.815961
     46          1           0      -23.182237   -4.795206   -1.257229
     47          1           0      -27.482231   -2.594225    3.053569
     48          1           0      -25.434820    4.072719   -1.590567
     49          1           0      -22.548342    3.374981   -1.675446
     50          1           0      -22.589889    3.508987   -4.026853
     51          1           0      -24.276712    4.195945   -3.744342
     52          1           0      -23.948295    2.486879   -4.004181
     53          1           0      -23.213847    4.248272    0.474279
     54          1           0      -24.765566    5.060559    0.652859
     55          1           0      -23.360433    5.762772   -1.903801
     56          1           0      -22.562351    6.311110   -0.441080
     57          1           0      -20.678462   -1.110527   -4.774766
     58          1           0      -19.406711   -1.308579   -3.413514
     59          1           0      -20.264916    0.170835   -3.608686
     60          1           0      -19.478860   -4.889922   -4.306639
     61          1           0      -19.078973   -3.492348   -3.370361
     62          1           0      -19.995062   -3.276684   -4.887355
     63          1           0      -24.612982   -5.891978    0.518258
     64          1           0      -26.958655   -4.913524    1.779313
     65          1           0      -27.199464   -4.837492   -0.725090
     66          1           0      -26.637277   -6.528959   -0.549966
     67          1           0      -25.802686   -5.447258   -1.674072
     68          1           0      -25.205397   -4.172201    3.694888
     69          1           0      -24.051505   -4.812605    2.682329
     70          1           0      -24.353125   -6.769026    3.511898
     71          1           0      -25.927091   -6.790072    2.798024
     72          1           0      -25.800508   -6.240850    4.513227
     73          1           0      -28.283444   -0.130104    4.915638
     74          1           0      -29.170117   -1.324560    3.886182
     75          1           0      -29.561196    0.351830    3.848563
     76          1           0      -26.153545    4.057463    1.892673
     77          1           0      -28.045981    5.837614   -1.534272
     78          1           0      -27.726143    7.307085   -0.644567
     79          1           0      -29.178281    6.331470   -0.225309
     80         12           0       25.348413   -0.484318    0.135162
     81          6           0       23.955337    2.616446    0.965369
     82          6           0       25.947097    0.641535   -3.035743
     83          6           0       26.332194   -3.538598   -0.667799
     84          6           0       24.491019   -1.589967    3.424362
     85          7           0       24.932233    1.425426   -0.909564
     86          6           0       24.423791    2.597298   -0.394883
     87          6           0       24.626998    3.739816   -1.372797
     88          6           0       24.998501    2.995478   -2.715863
     89          6           0       25.402810    1.598879   -2.132086
     90          6           0       23.840506    2.898335   -3.700918
     91          6           0       25.621287    4.795751   -0.765946
     92          6           0       26.054097    5.890723   -1.780062
     93          1           0       25.053299    6.253398   -2.857473
     94          7           0       26.035601   -1.296132   -1.548058
     95          6           0       26.122913   -0.714537   -2.806608
     96          6           0       26.595991   -1.674388   -3.819558
     97          6           0       26.740952   -2.892727   -3.087219
     98          6           0       26.352791   -2.601231   -1.709715
     99          6           0       26.869758   -1.300741   -5.228162
    100          6           0       27.191794   -4.216991   -3.647604
    101          8           0       27.336539   -5.236743   -2.917905
    102          6           0       27.569162   -4.364407   -5.096720
    103          7           0       25.452888   -2.307140    1.262109
    104          6           0       25.906837   -3.402308    0.652135
    105          6           0       25.766091   -4.667188    1.608373
    106          6           0       25.114169   -4.029842    2.958829
    107          6           0       24.994715   -2.566263    2.531758
    108          6           0       24.861541   -5.746612    0.884128
    109          6           0       26.036206   -4.136933    4.247833
    110          6           0       25.920710   -5.461756    5.055144
    111          7           0       24.380703    0.252674    1.820663
    112          6           0       24.194549   -0.246201    3.136985
    113          6           0       23.561988    0.837613    4.009037
    114          6           0       23.380968    1.948333    3.191088
    115          6           0       23.974045    1.560652    1.885779
    116          6           0       23.236849    0.766958    5.468214
    117          6           0       22.943882    3.322667    3.114653
    118          8           0       22.431641    4.077010    3.947702
    119          6           0       23.467483    3.887454    1.702208
    120          6           0       22.403163    4.648934    0.945771
    121          8           0       21.603114    4.136123    0.210773
    122          8           0       22.619997    6.043132    1.025760
    123          6           0       21.972858    6.884964    0.008286
    124          1           0       26.027327    1.130118   -4.009413
    125          1           0       26.643590   -4.548491   -0.943321
    126          1           0       24.109019   -1.888519    4.402929
    127          1           0       23.671320    4.251447   -1.479556
    128          1           0       25.871579    3.382089   -3.242562
    129          1           0       24.199056    3.360241   -4.620677
    130          1           0       22.960696    3.350802   -3.243992
    131          1           0       23.666367    1.880346   -4.048634
    132          1           0       26.337165    4.147311   -0.261787
    133          1           0       25.073165    5.268448    0.048359
    134          1           0       26.967321    5.478690   -2.209518
    135          1           0       26.274517    6.799225   -1.219762
    136          1           0       26.129435   -1.887204   -5.772027
    137          1           0       27.898293   -1.492784   -5.532504
    138          1           0       26.695493   -0.274725   -5.554758
    139          1           0       28.441564   -3.744546   -5.298977
    140          1           0       26.628140   -4.034814   -5.538872
    141          1           0       27.738976   -5.379993   -5.453207
    142          1           0       26.818673   -4.923956    1.733912
    143          1           0       24.062239   -4.239152    3.157679
    144          1           0       24.485267   -5.440381   -0.091806
    145          1           0       23.990097   -5.971557    1.499600
    146          1           0       25.520645   -6.592084    0.689221
    147          1           0       25.997700   -3.236618    4.860399
    148          1           0       27.060065   -4.125924    3.875489
    149          1           0       26.927294   -5.872535    5.125141
    150          1           0       25.191060   -6.104113    4.561934
    151          1           0       25.569086   -5.291424    6.072992
    152          1           0       23.977654    1.387515    5.972882
    153          1           0       23.269211   -0.267406    5.812613
    154          1           0       22.278021    1.168071    5.795970
    155          1           0       24.323132    4.521539    1.932560
    156          1           0       20.936897    6.967895    0.335854
    157          1           0       22.152135    6.489883   -0.991854
    158          1           0       22.491087    7.843131    0.035485
 ---------------------------------------------------------------------

 SCF Done:  E(RwB97XD) =  -4070.64690447     A.U. after   19 cycles

 Excitation energies and oscillator strengths:

 Excited State   1:      Singlet-A      1.5970 eV  776.38 nm  f=0.3897  <S**2>=0.000
     309 -> 316       -0.16563
     311 -> 313        0.68829
     309 <- 316       -0.11238
 This state for optimization and/or second-order correction.
 Total Energy, E(TD-HF/TD-DFT) =  -4070.58821724
 Copying the excited state density for this state as the 1-particle RhoCI density.

 Excited State   2:      Singlet-A      1.6549 eV  749.20 nm  f=0.3808  <S**2>=0.000
     310 -> 315       -0.20543
     312 -> 314        0.67803
     310 <- 315       -0.12142

 Excited State   3:      Singlet-A      2.1950 eV  564.85 nm  f=0.1054  <S**2>=0.000
     309 -> 313        0.63718
     311 -> 316        0.28949

 Excited State   4:      Singlet-A      2.2347 eV  554.82 nm  f=0.0335  <S**2>=0.000
     310 -> 314        0.58751
     312 -> 315        0.38606

 Excited State   5:      Singlet-A      3.2153 eV  385.60 nm  f=0.0019  <S**2>=0.000
     308 -> 313        0.67728

 The electronic state is 1-A.
 Alpha  occ. eigenvalues --  -46.94436 -46.93855 -19.30153 -19.29236 -19.25243
 Alpha  occ. eigenvalues --  -19.24491 -19.24284 -19.23701 -19.23549 -19.23470
 Alpha  occ. eigenvalues --  -14.47340 -14.46757 -14.46366 -14.46139 -14.44597
 Alpha  occ. eigenvalues --  -14.44521 -14.43480 -14.43432 -10.43298 -10.42380
 Alpha  occ. eigenvalues --  -10.39599 -10.39252 -10.39166 -10.39003 -10.36139
 Alpha  occ. eigenvalues --  -10.36070 -10.35508 -10.35403 -10.34957 -10.34776
 Alpha  occ. eigenvalues --  -10.34678 -10.34526 -10.34406 -10.34388 -10.34383
 Alpha  occ. eigenvalues --  -10.34191 -10.34027 -10.33609 -10.33540 -10.33510
 Alpha  occ. eigenvalues --  -10.33464 -10.33425 -10.33258 -10.33255 -10.33034
 Alpha  occ. eigenvalues --  -10.33023 -10.32675 -10.32652 -10.32635 -10.32365
 Alpha  occ. eigenvalues --  -10.32311 -10.32272 -10.32261 -10.32149 -10.31869
 Alpha  occ. eigenvalues --  -10.31820 -10.31794 -10.31770 -10.31715 -10.31585
 Alpha  occ. eigenvalues --  -10.31517 -10.31393 -10.31351 -10.31158 -10.31130
 Alpha  occ. eigenvalues --  -10.31003 -10.30726 -10.30666 -10.30654 -10.30410
 Alpha  occ. eigenvalues --  -10.30394 -10.30379 -10.30321 -10.30102 -10.30089
 Alpha  occ. eigenvalues --  -10.30071 -10.29676 -10.29636 -10.29589 -10.29512
 Alpha  occ. eigenvalues --  -10.29492 -10.29444 -10.29213 -10.29212 -10.29101
 Alpha  occ. eigenvalues --  -10.28894  -3.20534  -3.20040  -1.94134  -1.93647
 Alpha  occ. eigenvalues --   -1.93639  -1.93538  -1.93185  -1.93014  -1.19103
 Alpha  occ. eigenvalues --   -1.17640  -1.12734  -1.11395  -1.10455  -1.10040
 Alpha  occ. eigenvalues --   -1.10002  -1.09357  -1.07518  -1.06344  -1.05933
 Alpha  occ. eigenvalues --   -1.05495  -1.05095  -1.04842  -1.03976  -1.03421
 Alpha  occ. eigenvalues --   -0.95358  -0.93598  -0.90943  -0.90869  -0.90671
 Alpha  occ. eigenvalues --   -0.90550  -0.90450  -0.89874  -0.89765  -0.89504
 Alpha  occ. eigenvalues --   -0.89116  -0.88661  -0.88483  -0.88256  -0.86284
 Alpha  occ. eigenvalues --   -0.86169  -0.85844  -0.84863  -0.84421  -0.84133
 Alpha  occ. eigenvalues --   -0.83831  -0.83499  -0.83168  -0.82707  -0.82578
 Alpha  occ. eigenvalues --   -0.81977  -0.80957  -0.80342  -0.79478  -0.79362
 Alpha  occ. eigenvalues --   -0.79144  -0.78912  -0.78150  -0.77716  -0.77136
 Alpha  occ. eigenvalues --   -0.76497  -0.75230  -0.74086  -0.73784  -0.73454
 Alpha  occ. eigenvalues --   -0.71430  -0.71361  -0.70930  -0.70529  -0.70306
 Alpha  occ. eigenvalues --   -0.70220  -0.69101  -0.68051  -0.67771  -0.67424
 Alpha  occ. eigenvalues --   -0.67130  -0.66878  -0.66641  -0.66155  -0.65930
 Alpha  occ. eigenvalues --   -0.65781  -0.64106  -0.63291  -0.62676  -0.62210
 Alpha  occ. eigenvalues --   -0.62023  -0.61485  -0.61128  -0.60872  -0.60719
 Alpha  occ. eigenvalues --   -0.60321  -0.59998  -0.59754  -0.59539  -0.58778
 Alpha  occ. eigenvalues --   -0.58530  -0.58147  -0.57999  -0.57836  -0.57019
 Alpha  occ. eigenvalues --   -0.56688  -0.56544  -0.56211  -0.56148  -0.55900
 Alpha  occ. eigenvalues --   -0.55618  -0.55386  -0.55326  -0.55217  -0.54829
 Alpha  occ. eigenvalues --   -0.54650  -0.54461  -0.54227  -0.54162  -0.53848
 Alpha  occ. eigenvalues --   -0.53729  -0.53663  -0.53591  -0.53369  -0.53271
 Alpha  occ. eigenvalues --   -0.53111  -0.52805  -0.52410  -0.52289  -0.52175
 Alpha  occ. eigenvalues --   -0.52052  -0.51928  -0.51832  -0.51680  -0.51476
 Alpha  occ. eigenvalues --   -0.51393  -0.51251  -0.51175  -0.50934  -0.50880
 Alpha  occ. eigenvalues --   -0.50794  -0.50684  -0.50446  -0.50167  -0.50071
 Alpha  occ. eigenvalues --   -0.50036  -0.49983  -0.49687  -0.49437  -0.49373
 Alpha  occ. eigenvalues --   -0.49084  -0.48837  -0.48798  -0.48449  -0.48407
 Alpha  occ. eigenvalues --   -0.48119  -0.48028  -0.47952  -0.47851  -0.47689
 Alpha  occ. eigenvalues --   -0.47527  -0.47445  -0.47220  -0.47154  -0.47111
 Alpha  occ. eigenvalues --   -0.46784  -0.46653  -0.46640  -0.46176  -0.46120
 Alpha  occ. eigenvalues --   -0.45929  -0.45681  -0.45670  -0.45485  -0.45433
 Alpha  occ. eigenvalues --   -0.45271  -0.45083  -0.45014  -0.44852  -0.44806
 Alpha  occ. eigenvalues --   -0.44492  -0.44240  -0.44116  -0.43907  -0.43721
 Alpha  occ. eigenvalues --   -0.43537  -0.43531  -0.43507  -0.43313  -0.43100
 Alpha  occ. eigenvalues --   -0.42841  -0.42825  -0.42550  -0.42289  -0.42270
 Alpha  occ. eigenvalues --   -0.42100  -0.41961  -0.41734  -0.41133  -0.40972
 Alpha  occ. eigenvalues --   -0.40482  -0.40312  -0.40118  -0.40031  -0.39913
 Alpha  occ. eigenvalues --   -0.39390  -0.39033  -0.38843  -0.38665  -0.38569
 Alpha  occ. eigenvalues --   -0.38271  -0.37823  -0.36503  -0.36253  -0.36156
 Alpha  occ. eigenvalues --   -0.35996  -0.35465  -0.35427  -0.33679  -0.33494
 Alpha  occ. eigenvalues --   -0.33290  -0.33083  -0.32808  -0.32613  -0.32466
 Alpha  occ. eigenvalues --   -0.32428  -0.32250  -0.31243  -0.26539  -0.25929
 Alpha  occ. eigenvalues --   -0.22923  -0.22237
 Alpha virt. eigenvalues --   -0.07423  -0.06255  -0.00257   0.00373   0.01818
 Alpha virt. eigenvalues --    0.02449   0.04239   0.04475   0.06296   0.06379
 Alpha virt. eigenvalues --    0.06686   0.07302   0.07681   0.08000   0.08390

 Mulliken charges:
               1
     1  Mg   0.971181
     2  C   -0.006279
     3  C   -0.072364
     4  C   -0.076238
     5  C   -0.099535
     6  N   -0.341020
     7  C   -0.009262
     8  C   -0.022506
     9  C   -0.153795
    10  C    0.065384
    11  C    0.013364
    12  C   -0.006059
    13  C   -0.111463
    14  H    0.047894
    15  N   -0.435213
    16  C    0.162657
    17  C   -0.218369
    18  C   -0.077961
    19  C    0.134295
    20  C    0.083606
    21  C    0.066566
    22  O   -0.256626
    23  C   -0.006727
    24  N   -0.468516
    25  C    0.098780
    26  C   -0.069482
    27  C   -0.080556
    28  C    0.140110
    29  C    0.040734
    30  C   -0.043682
    31  C   -0.003978
    32  N   -0.428116
    33  C    0.106668
    34  C   -0.178888
    35  C    0.017716
    36  C    0.137219
    37  C    0.064690
    38  C    0.098750
    39  O   -0.191656
    40  C   -0.123597
    41  C    0.249352
    42  O   -0.247108
    43  O   -0.362903
    44  C    0.139188
    45  H   -0.004138
    46  H    0.019909
    47  H   -0.001754
    48  H    0.044515
    49  H    0.034751
    50  H    0.042250
    51  H    0.043391
    52  H    0.037636
    53  H    0.035436
    54  H    0.054711
    55  H    0.050941
    56  H    0.053007
    57  H    0.065776
    58  H    0.049379
    59  H    0.025706
    60  H    0.051269
    61  H    0.045809
    62  H    0.060760
    63  H    0.028079
    64  H    0.023062
    65  H    0.041804
    66  H    0.042115
    67  H    0.041572
    68  H    0.022342
    69  H    0.020637
    70  H    0.035348
    71  H    0.017894
    72  H    0.051253
    73  H    0.062389
    74  H    0.045005
    75  H    0.051485
    76  H    0.073850
    77  H    0.057971
    78  H    0.059961
    79  H    0.069622
    80  Mg   0.984766
    81  C   -0.030051
    82  C   -0.097676
    83  C   -0.088077
    84  C   -0.091607
    85  N   -0.320705
    86  C   -0.001353
    87  C   -0.052273
    88  C   -0.133773
    89  C    0.011187
    90  C    0.044514
    91  C   -0.023282
    92  C   -0.099770
    93  H    0.046638
    94  N   -0.499666
    95  C    0.214630
    96  C   -0.158545
    97  C   -0.076576
    98  C    0.175380
    99  C    0.073508
   100  C    0.037522
   101  O   -0.272489
   102  C    0.020996
   103  N   -0.348949
   104  C    0.045823
   105  C   -0.087837
   106  C   -0.049376
   107  C    0.040467
   108  C    0.013480
   109  C   -0.039896
   110  C   -0.032203
   111  N   -0.451838
   112  C    0.125069
   113  C   -0.194115
   114  C   -0.008970
   115  C    0.138989
   116  C    0.070666
   117  C    0.151092
   118  O   -0.215027
   119  C   -0.144156
   120  C    0.289124
   121  O   -0.219273
   122  O   -0.405874
   123  C    0.143384
   124  H   -0.011140
   125  H    0.021204
   126  H    0.001202
   127  H    0.028619
   128  H    0.029454
   129  H    0.028585
   130  H    0.059075
   131  H    0.036167
   132  H    0.041271
   133  H    0.036907
   134  H    0.058417
   135  H    0.059619
   136  H    0.054158
   137  H    0.057891
   138  H    0.036149
   139  H    0.065585
   140  H    0.039103
   141  H    0.055189
   142  H    0.050641
   143  H    0.044458
   144  H    0.052657
   145  H    0.038274
   146  H    0.049607
   147  H    0.034801
   148  H    0.019207
   149  H    0.041767
   150  H    0.039433
   151  H    0.036827
   152  H    0.060601
   153  H    0.027126
   154  H    0.060449
   155  H    0.091831
   156  H    0.068521
   157  H    0.050135
   158  H    0.052334
 Sum of Mulliken charges =  -0.00000

 Dipole moment (field-independent basis, Debye):
    X=              6.4726    Y=              2.1028    Z=             -4.1808  Tot=              7.9872
 Quadrupole moment (field-independent basis, Debye-Ang):
   XX=           -543.9079   YY=           -504.8930   ZZ=           -482.2807
   XY=             10.6721   XZ=            -69.6817   YZ=            -56.9190

 Normal termination of Gaussian 16 at Mon Sep 20 02:58:48 2021.
