 Gaussian 16, Revision A.03,
 Gaussian 16:  ES64L-G16RevA.03 25-Dec-2016

 --------------------------------
 #p wB97XD/Def2SVP td=(nstates=5)
 --------------------------------

 --------------------------------
 TDDFT excited states in gaussian
 --------------------------------
 Symbolic Z-matrix:
 Charge =  0 Multiplicity = 1

                         Standard orientation:
 ---------------------------------------------------------------------
 Center     Atomic      Atomic             Coordinates (Angstroms)
 Number     Number       Type             X           Y           Z
 ---------------------------------------------------------------------
      1         12           0      -19.438652    0.065148   -0.369825
      2          6           0      -16.878098   -1.066327    1.556007
      3          6           0      -19.884192    2.919063    1.516902
      4          6           0      -22.118681    0.898273   -2.331128
      5          6           0      -19.363071   -3.082657   -2.152098
      6          7           0      -18.620943    0.708746    1.446870
      7          6           0      -17.372196    0.212706    1.951312
      8          6           0      -16.780557    1.158186    2.918665
      9          6           0      -17.988052    2.175433    3.140854
     10          6           0      -18.926966    1.954372    1.975880
     11          6           0      -18.752656    1.955276    4.540533
     12          6           0      -15.388743    1.729052    2.506910
     13          6           0      -14.361989    1.751994    3.593058
     14          1           0      -14.878664    2.159136    5.029082
     15          7           0      -20.768881    1.725650   -0.445934
     16          6           0      -20.748860    2.752831    0.450093
     17          6           0      -21.767613    3.670841    0.071098
     18          6           0      -22.413623    3.169953   -1.125983
     19          6           0      -21.724558    1.871652   -1.431703
     20          6           0      -22.115355    4.911104    0.923059
     21          6           0      -23.493585    3.711846   -2.009375
     22          8           0      -24.058234    3.159419   -2.960193
     23          6           0      -23.921982    5.197668   -1.707322
     24          7           0      -20.686305   -1.007018   -1.984191
     25          6           0      -21.630020   -0.400139   -2.659921
     26          6           0      -22.042038   -1.174960   -3.909933
     27          6           0      -21.148181   -2.445656   -3.834126
     28          6           0      -20.346476   -2.184336   -2.560552
     29          6           0      -23.615068   -1.526371   -3.964366
     30          6           0      -20.230153   -2.503978   -5.133759
     31          6           0      -19.121050   -1.450581   -5.376160
     32          7           0      -18.458115   -1.791698   -0.221925
     33          6           0      -18.503913   -2.907955   -1.035611
     34          6           0      -17.406135   -3.790992   -0.591856
     35          6           0      -16.706276   -3.168215    0.397532
     36          6           0      -17.411071   -1.924445    0.587149
     37          6           0      -17.225575   -5.195504   -1.055030
     38          6           0      -15.583157   -3.241724    1.331719
     39          8           0      -14.757097   -4.117297    1.527753
     40          6           0      -15.682030   -1.861567    2.118323
     41          6           0      -15.942679   -2.186542    3.535402
     42          8           0      -16.871847   -2.864984    4.006926
     43          8           0      -14.910513   -1.572205    4.215163
     44          6           0      -15.048072   -1.594684    5.677291
     45          1           0      -20.022896    3.858542    2.055694
     46          1           0      -22.902468    1.280543   -2.989393
     47          1           0      -19.274290   -4.004970   -2.728865
     48          1           0      -16.615996    0.557984    3.814426
     49          1           0      -17.585882    3.186792    3.089971
     50          1           0      -18.203380    1.330626    5.244955
     51          1           0      -19.629917    1.350706    4.310725
     52          1           0      -19.005302    2.968386    4.850624
     53          1           0      -15.502703    2.753755    2.153102
     54          1           0      -15.075120    1.044008    1.719346
     55          1           0      -13.580167    2.491665    3.425140
     56          1           0      -13.733018    0.886712    3.802759
     57          1           0      -21.424838    5.750656    0.843671
     58          1           0      -22.186073    4.489421    1.925560
     59          1           0      -23.034973    5.401593    0.604683
     60          1           0      -24.506100    5.216334   -0.787202
     61          1           0      -24.345783    5.616525   -2.619856
     62          1           0      -23.079690    5.880198   -1.592354
     63          1           0      -21.760749   -0.590975   -4.785931
     64          1           0      -21.714324   -3.376017   -3.788366
     65          1           0      -24.042581   -0.858917   -4.713449
     66          1           0      -24.080051   -1.317930   -3.000264
     67          1           0      -23.936152   -2.520726   -4.271997
     68          1           0      -20.771021   -2.563022   -6.078118
     69          1           0      -19.693525   -3.437767   -4.962797
     70          1           0      -18.212893   -2.051721   -5.329532
     71          1           0      -19.144832   -0.639525   -4.649418
     72          1           0      -19.182396   -0.959682   -6.347397
     73          1           0      -16.143638   -5.318856   -1.018298
     74          1           0      -17.625055   -5.367617   -2.054651
     75          1           0      -17.546749   -5.846292   -0.242802
     76          1           0      -14.651218   -1.525662    2.008799
     77          1           0      -14.095232   -1.174692    6.000779
     78          1           0      -15.068482   -2.647888    5.957385
     79          1           0      -15.959998   -1.148902    6.075029
     80         12           0       19.316960   -0.328663    0.341190
     81          6           0       17.964733    2.692024   -0.442866
     82          6           0       16.060050   -1.512517    1.047954
     83          6           0       20.487884   -3.442924    0.050498
     84          6           0       22.508836    0.799472   -0.916529
     85          7           0       17.317519    0.527622    0.317055
     86          6           0       16.945836    1.717651   -0.021178
     87          6           0       15.451751    2.030035    0.346597
     88          6           0       14.948434    0.738744    1.097204
     89          6           0       16.189700   -0.189337    0.862289
     90          6           0       14.412512    0.941698    2.515101
     91          6           0       14.571409    2.480346   -0.964559
     92          6           0       15.048428    2.056666   -2.344309
     93          1           0       14.085615    2.049914   -3.531666
     94          7           0       18.384605   -2.212196    0.518196
     95          6           0       17.088210   -2.498517    0.872834
     96          6           0       16.894756   -3.883422    0.871360
     97          6           0       18.161395   -4.503926    0.542652
     98          6           0       19.094776   -3.370607    0.308904
     99          6           0       15.587787   -4.487682    1.351059
    100          6           0       18.383102   -6.024964    0.458332
    101          8           0       17.403719   -6.770027    0.686562
    102          6           0       19.621126   -6.673847    0.136321
    103          7           0       21.242933   -1.238793   -0.510691
    104          6           0       21.450528   -2.505966   -0.290631
    105          6           0       22.917061   -2.940195   -0.572588
    106          6           0       23.588630   -1.574200   -0.833416
    107          6           0       22.405341   -0.527739   -0.744004
    108          6           0       23.572660   -3.665546    0.546681
    109          6           0       24.385513   -1.528216   -2.221336
    110          6           0       25.963800   -1.442847   -2.117276
    111          7           0       20.178913    1.388938   -0.404889
    112          6           0       21.461017    1.745140   -0.841609
    113          6           0       21.454349    3.195986   -1.206819
    114          6           0       20.102683    3.551975   -1.096496
    115          6           0       19.352728    2.427129   -0.641326
    116          6           0       22.551956    4.036832   -1.645402
    117          6           0       19.256929    4.631109   -1.329804
    118          8           0       19.438239    5.797107   -1.710083
    119          6           0       17.857504    4.167428   -0.834729
    120          6           0       17.377981    5.160422    0.250583
    121          8           0       16.326340    5.776615    0.280629
    122          8           0       18.298411    5.305995    1.265925
    123          6           0       17.980207    6.252351    2.341753
    124          1           0       15.015844   -1.794774    1.196626
    125          1           0       20.967579   -4.422605    0.097020
    126          1           0       23.513699    1.169439   -1.130094
    127          1           0       15.485583    2.787288    1.130330
    128          1           0       14.157604    0.226405    0.548421
    129          1           0       15.066419    0.441035    3.228868
    130          1           0       13.417731    0.513979    2.645142
    131          1           0       14.266378    1.977386    2.821983
    132          1           0       14.523073    3.560346   -0.823415
    133          1           0       13.556936    2.082878   -1.002334
    134          1           0       15.418044    1.045983   -2.173062
    135          1           0       15.921355    2.677922   -2.545461
    136          1           0       15.590803   -5.207971    2.169565
    137          1           0       15.057520   -4.894944    0.489895
    138          1           0       14.934794   -3.686074    1.695668
    139          1           0       20.469041   -6.511912    0.801606
    140          1           0       20.031653   -6.268644   -0.788000
    141          1           0       19.515436   -7.736882   -0.077960
    142          1           0       23.111155   -3.614903   -1.406271
    143          1           0       24.240410   -1.252811   -0.020928
    144          1           0       23.676368   -4.740784    0.401888
    145          1           0       22.934232   -3.665330    1.430871
    146          1           0       24.553938   -3.236632    0.749071
    147          1           0       24.110172   -0.606251   -2.735253
    148          1           0       24.252880   -2.410249   -2.846395
    149          1           0       26.414203   -2.156955   -2.805545
    150          1           0       26.252642   -1.803047   -1.129808
    151          1           0       26.210480   -0.435142   -2.452123
    152          1           0       23.425943    3.620825   -1.143671
    153          1           0       22.401718    5.066654   -1.319396
    154          1           0       22.529879    4.021472   -2.734669
    155          1           0       17.058460    4.381019   -1.544290
    156          1           0       18.915160    6.579031    2.797389
    157          1           0       17.396955    5.891733    3.188871
    158          1           0       17.374866    7.099596    2.018177
 ---------------------------------------------------------------------

 SCF Done:  E(RwB97XD) =  -4070.57388578     A.U. after   19 cycles

 Excitation energies and oscillator strengths:

 Excited State   1:      Singlet-A      1.6459 eV  753.28 nm  f=0.3398  <S**2>=0.000
     310 -> 315        0.19116
     312 -> 314        0.67943
     310 <- 315        0.11782
 This state for optimization and/or second-order correction.
 Total Energy, E(TD-HF/TD-DFT) =  -4070.51339937
 Copying the excited state density for this state as the 1-particle RhoCI density.

 Excited State   2:      Singlet-A      1.6548 eV  749.26 nm  f=0.4714  <S**2>=0.000
     309 -> 316        0.16579
     311 -> 313        0.68437
     309 <- 316        0.11117

 Excited State   3:      Singlet-A      2.1981 eV  564.05 nm  f=0.1165  <S**2>=0.000
     309 -> 313        0.64041
     311 -> 316       -0.27519

 Excited State   4:      Singlet-A      2.2138 eV  560.04 nm  f=0.0442  <S**2>=0.000
     310 -> 314        0.60812
     312 -> 315       -0.34951

 Excited State   5:      Singlet-A      3.2246 eV  384.50 nm  f=0.0080  <S**2>=0.000
     302 -> 313       -0.15741
     308 -> 313        0.66837
     308 -> 318        0.10510

 The electronic state is 1-A.
 Alpha  occ. eigenvalues --  -46.96680 -46.95594 -19.30860 -19.30186 -19.25197
 Alpha  occ. eigenvalues --  -19.25114 -19.24581 -19.24574 -19.24135 -19.22399
 Alpha  occ. eigenvalues --  -14.47823 -14.46896 -14.46778 -14.46510 -14.45194
 Alpha  occ. eigenvalues --  -14.44390 -14.44108 -14.44062 -10.43649 -10.43364
 Alpha  occ. eigenvalues --  -10.39732 -10.39417 -10.38816 -10.38170 -10.37088
 Alpha  occ. eigenvalues --  -10.36062 -10.35928 -10.35811 -10.35570 -10.35342
 Alpha  occ. eigenvalues --  -10.35298 -10.34886 -10.34761 -10.34708 -10.34627
 Alpha  occ. eigenvalues --  -10.34494 -10.34424 -10.34137 -10.33962 -10.33878
 Alpha  occ. eigenvalues --  -10.33558 -10.33535 -10.33445 -10.33379 -10.33049
 Alpha  occ. eigenvalues --  -10.32960 -10.32937 -10.32777 -10.32564 -10.32445
 Alpha  occ. eigenvalues --  -10.32410 -10.32389 -10.32356 -10.32168 -10.32004
 Alpha  occ. eigenvalues --  -10.31942 -10.31800 -10.31745 -10.31648 -10.31608
 Alpha  occ. eigenvalues --  -10.31528 -10.31487 -10.31421 -10.31400 -10.31393
 Alpha  occ. eigenvalues --  -10.31156 -10.31138 -10.31083 -10.31071 -10.30856
 Alpha  occ. eigenvalues --  -10.30811 -10.30751 -10.30463 -10.30430 -10.30338
 Alpha  occ. eigenvalues --  -10.30270 -10.30006 -10.29867 -10.29752 -10.29747
 Alpha  occ. eigenvalues --  -10.29715 -10.29470 -10.29415 -10.29298 -10.28778
 Alpha  occ. eigenvalues --  -10.28733  -3.22553  -3.21452  -1.96114  -1.95704
 Alpha  occ. eigenvalues --   -1.95483  -1.95041  -1.94562  -1.94421  -1.18370
 Alpha  occ. eigenvalues --   -1.18119  -1.12415  -1.11862  -1.11381  -1.09769
 Alpha  occ. eigenvalues --   -1.09646  -1.09623  -1.07124  -1.07071  -1.06528
 Alpha  occ. eigenvalues --   -1.05775  -1.05736  -1.04949  -1.04245  -1.03727
 Alpha  occ. eigenvalues --   -0.95067  -0.94326  -0.91626  -0.91299  -0.91029
 Alpha  occ. eigenvalues --   -0.90925  -0.90660  -0.90344  -0.89896  -0.89701
 Alpha  occ. eigenvalues --   -0.89196  -0.88840  -0.88225  -0.87205  -0.86575
 Alpha  occ. eigenvalues --   -0.86574  -0.86077  -0.85272  -0.84841  -0.84419
 Alpha  occ. eigenvalues --   -0.84287  -0.83467  -0.83461  -0.83175  -0.82281
 Alpha  occ. eigenvalues --   -0.81925  -0.80459  -0.80044  -0.79355  -0.79277
 Alpha  occ. eigenvalues --   -0.79128  -0.78886  -0.78311  -0.77722  -0.77230
 Alpha  occ. eigenvalues --   -0.76911  -0.75421  -0.74438  -0.74164  -0.73957
 Alpha  occ. eigenvalues --   -0.71785  -0.71632  -0.71215  -0.70854  -0.70359
 Alpha  occ. eigenvalues --   -0.70317  -0.69442  -0.68836  -0.67958  -0.67647
 Alpha  occ. eigenvalues --   -0.67251  -0.66943  -0.66842  -0.66669  -0.66556
 Alpha  occ. eigenvalues --   -0.66363  -0.65373  -0.64503  -0.62903  -0.62320
 Alpha  occ. eigenvalues --   -0.62001  -0.61379  -0.60935  -0.60903  -0.60765
 Alpha  occ. eigenvalues --   -0.60539  -0.60024  -0.59928  -0.59479  -0.59244
 Alpha  occ. eigenvalues --   -0.58305  -0.57901  -0.57619  -0.57609  -0.57470
 Alpha  occ. eigenvalues --   -0.56939  -0.56901  -0.56756  -0.56500  -0.56362
 Alpha  occ. eigenvalues --   -0.55857  -0.55454  -0.55444  -0.55215  -0.55147
 Alpha  occ. eigenvalues --   -0.55116  -0.54802  -0.54608  -0.54301  -0.54193
 Alpha  occ. eigenvalues --   -0.54178  -0.54081  -0.53904  -0.53448  -0.53422
 Alpha  occ. eigenvalues --   -0.53268  -0.52982  -0.52851  -0.52834  -0.52615
 Alpha  occ. eigenvalues --   -0.52266  -0.51910  -0.51820  -0.51567  -0.51488
 Alpha  occ. eigenvalues --   -0.51221  -0.51173  -0.50935  -0.50888  -0.50762
 Alpha  occ. eigenvalues --   -0.50487  -0.50484  -0.50462  -0.50392  -0.50262
 Alpha  occ. eigenvalues --   -0.50079  -0.49613  -0.49574  -0.49350  -0.49306
 Alpha  occ. eigenvalues --   -0.49171  -0.49135  -0.48815  -0.48798  -0.48749
 Alpha  occ. eigenvalues --   -0.48698  -0.48121  -0.48114  -0.47862  -0.47767
 Alpha  occ. eigenvalues --   -0.47670  -0.47507  -0.47196  -0.47110  -0.46979
 Alpha  occ. eigenvalues --   -0.46841  -0.46696  -0.46548  -0.46483  -0.46397
 Alpha  occ. eigenvalues --   -0.45849  -0.45757  -0.45584  -0.45414  -0.45164
 Alpha  occ. eigenvalues --   -0.44937  -0.44870  -0.44725  -0.44716  -0.44557
 Alpha  occ. eigenvalues --   -0.44298  -0.44184  -0.44077  -0.44060  -0.44005
 Alpha  occ. eigenvalues --   -0.43901  -0.43866  -0.43603  -0.43437  -0.43427
 Alpha  occ. eigenvalues --   -0.42882  -0.42764  -0.42686  -0.42623  -0.42399
 Alpha  occ. eigenvalues --   -0.41981  -0.41768  -0.41681  -0.41397  -0.40986
 Alpha  occ. eigenvalues --   -0.40681  -0.40116  -0.39842  -0.39810  -0.39519
 Alpha  occ. eigenvalues --   -0.39094  -0.38826  -0.38709  -0.38523  -0.38414
 Alpha  occ. eigenvalues --   -0.38348  -0.38265  -0.36825  -0.36620  -0.36327
 Alpha  occ. eigenvalues --   -0.36255  -0.36196  -0.35711  -0.33803  -0.33418
 Alpha  occ. eigenvalues --   -0.33205  -0.33149  -0.33119  -0.32962  -0.32518
 Alpha  occ. eigenvalues --   -0.32082  -0.32024  -0.31141  -0.26877  -0.26344
 Alpha  occ. eigenvalues --   -0.23484  -0.22756
 Alpha virt. eigenvalues --   -0.07890  -0.06827  -0.00459   0.00023   0.01810
 Alpha virt. eigenvalues --    0.01987   0.03801   0.04232   0.04352   0.05063
 Alpha virt. eigenvalues --    0.06943   0.07182   0.07451   0.07601   0.07811

 Mulliken charges:
               1
     1  Mg   0.932637
     2  C   -0.005139
     3  C   -0.105883
     4  C   -0.037054
     5  C   -0.077797
     6  N   -0.442596
     7  C   -0.001075
     8  C   -0.039732
     9  C   -0.135990
    10  C    0.130748
    11  C    0.033356
    12  C    0.069939
    13  C   -0.138348
    14  H    0.000448
    15  N   -0.460790
    16  C    0.168989
    17  C   -0.150527
    18  C   -0.078145
    19  C    0.134193
    20  C    0.056688
    21  C    0.061922
    22  O   -0.237554
    23  C   -0.054920
    24  N   -0.260512
    25  C    0.017997
    26  C   -0.075306
    27  C   -0.047607
    28  C    0.027300
    29  C   -0.001694
    30  C   -0.063209
    31  C   -0.056318
    32  N   -0.406667
    33  C    0.141360
    34  C   -0.241020
    35  C   -0.006256
    36  C    0.119992
    37  C    0.082682
    38  C    0.139249
    39  O   -0.194677
    40  C   -0.109504
    41  C    0.275651
    42  O   -0.259093
    43  O   -0.369945
    44  C    0.139922
    45  H    0.001482
    46  H    0.024234
    47  H    0.003072
    48  H    0.030724
    49  H    0.027179
    50  H    0.043598
    51  H    0.045651
    52  H    0.050273
    53  H    0.039604
    54  H    0.041791
    55  H    0.043920
    56  H    0.061528
    57  H    0.055355
    58  H    0.062164
    59  H    0.016800
    60  H    0.079314
    61  H    0.051769
    62  H    0.042026
    63  H    0.050157
    64  H    0.039060
    65  H    0.042686
    66  H    0.048621
    67  H    0.040720
    68  H    0.041661
    69  H    0.020585
    70  H    0.044587
    71  H    0.039789
    72  H    0.038699
    73  H    0.047165
    74  H    0.040302
    75  H    0.066242
    76  H    0.068471
    77  H    0.059491
    78  H    0.056220
    79  H    0.059347
    80  Mg   0.957132
    81  C    0.004063
    82  C   -0.072050
    83  C   -0.043995
    84  C   -0.099344
    85  N   -0.349389
    86  C    0.011138
    87  C   -0.051025
    88  C   -0.100562
    89  C    0.039674
    90  C    0.023930
    91  C   -0.030438
    92  C   -0.101749
    93  H    0.062353
    94  N   -0.458895
    95  C    0.154315
    96  C   -0.150823
    97  C   -0.094544
    98  C    0.205537
    99  C    0.091940
   100  C    0.063199
   101  O   -0.267772
   102  C   -0.000100
   103  N   -0.297989
   104  C    0.010900
   105  C   -0.080699
   106  C   -0.045999
   107  C    0.048556
   108  C    0.002553
   109  C   -0.042806
   110  C   -0.065006
   111  N   -0.464729
   112  C    0.133658
   113  C   -0.171336
   114  C   -0.013232
   115  C    0.155566
   116  C    0.081421
   117  C    0.117932
   118  O   -0.220329
   119  C   -0.107991
   120  C    0.242664
   121  O   -0.244116
   122  O   -0.368835
   123  C    0.139788
   124  H    0.011773
   125  H   -0.042735
   126  H    0.000692
   127  H    0.052492
   128  H    0.038606
   129  H    0.039490
   130  H    0.034770
   131  H    0.041311
   132  H    0.057264
   133  H    0.041157
   134  H    0.052265
   135  H    0.036588
   136  H    0.060621
   137  H    0.046889
   138  H    0.000119
   139  H    0.063477
   140  H    0.040923
   141  H    0.054722
   142  H    0.045319
   143  H    0.032490
   144  H    0.028528
   145  H    0.031381
   146  H    0.039486
   147  H    0.036127
   148  H    0.041025
   149  H    0.033308
   150  H    0.036189
   151  H    0.047794
   152  H    0.043724
   153  H    0.066845
   154  H    0.074590
   155  H    0.058536
   156  H    0.052705
   157  H    0.037434
   158  H    0.061527
 Sum of Mulliken charges =  -0.00000

 Dipole moment (field-independent basis, Debye):
    X=              5.1172    Y=              3.6899    Z=              2.2144  Tot=              6.6862
 Quadrupole moment (field-independent basis, Debye-Ang):
   XX=           -346.6123   YY=           -559.7871   ZZ=           -489.1317
   XY=            -99.9149   XZ=             41.3668   YZ=             49.8377

 Normal termination of Gaussian 16 at Fri Sep 17 19:41:22 2021.
