 Gaussian 16, Revision A.03,
 Gaussian 16:  ES64L-G16RevA.03 25-Dec-2016

 --------------------------------
 #p wB97XD/Def2SVP td=(nstates=5)
 --------------------------------

 --------------------------------
 TDDFT excited states in gaussian
 --------------------------------
 Symbolic Z-matrix:
 Charge =  0 Multiplicity = 1

                         Standard orientation:
 ---------------------------------------------------------------------
 Center     Atomic      Atomic             Coordinates (Angstroms)
 Number     Number       Type             X           Y           Z
 ---------------------------------------------------------------------
      1         12           0      -21.435444   -0.791956   -0.312144
      2          6           0      -23.013933    2.131482    1.059142
      3          6           0      -19.502794    1.443414   -2.271448
      4          6           0      -19.866455   -3.493171   -1.873561
      5          6           0      -23.574931   -2.800201    1.284680
      6          7           0      -21.465460    1.599039   -0.689814
      7          6           0      -22.100972    2.516961    0.069692
      8          6           0      -21.777525    3.962127   -0.454769
      9          6           0      -20.818592    3.623163   -1.651513
     10          6           0      -20.490899    2.119414   -1.505591
     11          6           0      -21.442350    3.999719   -3.040649
     12          6           0      -21.119927    4.856019    0.596321
     13          6           0      -21.632067    6.256108    0.686142
     14          1           0      -21.083257    7.174620    1.787522
     15          7           0      -19.796530   -1.027791   -1.669529
     16          6           0      -19.171526    0.012910   -2.348459
     17          6           0      -18.121416   -0.553625   -3.171439
     18          6           0      -18.121223   -1.929699   -3.013989
     19          6           0      -19.353762   -2.224714   -2.208260
     20          6           0      -17.285689    0.224218   -4.146954
     21          6           0      -17.223389   -3.054790   -3.673894
     22          8           0      -17.281336   -4.246084   -3.490659
     23          6           0      -16.037035   -2.632661   -4.513309
     24          7           0      -21.744869   -2.789075   -0.437997
     25          6           0      -21.025681   -3.746511   -1.104687
     26          6           0      -21.701398   -5.136123   -1.039606
     27          6           0      -22.729258   -4.964504    0.158485
     28          6           0      -22.653708   -3.404451    0.371053
     29          6           0      -22.324614   -5.576963   -2.402624
     30          6           0      -22.364849   -5.767468    1.444207
     31          6           0      -21.116809   -5.296408    2.187383
     32          7           0      -22.980194   -0.491615    0.879695
     33          6           0      -23.784649   -1.444836    1.564178
     34          6           0      -24.786154   -0.773355    2.389600
     35          6           0      -24.479029    0.592703    2.256705
     36          6           0      -23.387942    0.731837    1.358544
     37          6           0      -25.804228   -1.423989    3.205819
     38          6           0      -24.919881    1.906080    2.715388
     39          8           0      -25.780382    2.194751    3.530058
     40          6           0      -24.041858    2.989494    1.886023
     41          6           0      -23.489370    3.814890    3.050570
     42          8           0      -22.616270    3.496555    3.877906
     43          8           0      -24.144632    4.961278    3.107349
     44          6           0      -23.609035    6.080624    3.983775
     45          1           0      -18.863365    2.142616   -2.813752
     46          1           0      -19.441078   -4.397572   -2.315510
     47          1           0      -24.190952   -3.515955    1.832472
     48          1           0      -22.755295    4.391426   -0.670728
     49          1           0      -19.860444    4.136026   -1.557565
     50          1           0      -20.846342    4.662476   -3.668044
     51          1           0      -22.485728    4.311483   -2.989409
     52          1           0      -21.508175    3.193471   -3.771563
     53          1           0      -20.176177    5.091921    0.104285
     54          1           0      -20.956800    4.351110    1.549094
     55          1           0      -22.706918    6.442584    0.711664
     56          1           0      -21.294129    6.697855   -0.251344
     57          1           0      -17.437949    1.297233   -4.033391
     58          1           0      -17.455039   -0.015533   -5.197841
     59          1           0      -16.206774    0.118267   -4.032557
     60          1           0      -15.320523   -2.035616   -3.949279
     61          1           0      -16.528978   -2.106782   -5.331627
     62          1           0      -15.685368   -3.574491   -4.934521
     63          1           0      -20.865834   -5.819896   -0.885887
     64          1           0      -23.791756   -5.008424   -0.081844
     65          1           0      -21.792584   -6.412574   -2.857300
     66          1           0      -22.500269   -4.813232   -3.159416
     67          1           0      -23.322861   -5.876668   -2.083079
     68          1           0      -22.474094   -6.826165    1.208571
     69          1           0      -23.173123   -5.614762    2.159180
     70          1           0      -20.534306   -4.518585    1.694982
     71          1           0      -20.474907   -6.173923    2.260947
     72          1           0      -21.292386   -4.796059    3.139014
     73          1           0      -26.465716   -0.745858    3.745339
     74          1           0      -25.247074   -2.045412    3.906788
     75          1           0      -26.374833   -2.084866    2.551781
     76          1           0      -24.665489    3.692065    1.333260
     77          1           0      -24.097594    6.989046    3.630691
     78          1           0      -22.541841    6.252720    3.847175
     79          1           0      -23.754038    5.905092    5.050365
     80         12           0       21.324758   -0.660205    0.515632
     81          6           0       21.035369    2.092781   -1.758604
     82          6           0       21.868346    1.761283    3.022519
     83          6           0       22.317667   -3.007508    2.567086
     84          6           0       21.133620   -2.799237   -2.120743
     85          7           0       21.380144    1.651677    0.590186
     86          6           0       21.123263    2.471111   -0.457592
     87          6           0       21.025751    3.898438    0.055307
     88          6           0       21.254822    3.872991    1.592851
     89          6           0       21.483520    2.359936    1.773248
     90          6           0       22.481813    4.827483    2.088306
     91          6           0       19.623941    4.573085   -0.266573
     92          6           0       19.663005    5.977236   -0.870542
     93          1           0       20.802910    7.001231   -0.479524
     94          7           0       22.057105   -0.619234    2.523546
     95          6           0       22.161725    0.420233    3.324125
     96          6           0       22.672541   -0.054941    4.579006
     97          6           0       22.695122   -1.472707    4.585892
     98          6           0       22.392022   -1.747915    3.205847
     99          6           0       22.828776    0.847665    5.801730
    100          6           0       22.868996   -2.528066    5.666804
    101          8           0       22.920788   -3.720384    5.426568
    102          6           0       22.913627   -2.022994    7.082731
    103          7           0       22.010811   -2.556751    0.156008
    104          6           0       22.179386   -3.418845    1.241122
    105          6           0       22.137094   -4.918415    0.839870
    106          6           0       21.593184   -4.768574   -0.630866
    107          6           0       21.567256   -3.264358   -0.901768
    108          6           0       23.524017   -5.562131    0.981415
    109          6           0       20.098525   -5.312354   -0.819478
    110          6           0       19.897260   -6.606838   -1.533486
    111          7           0       21.017990   -0.451817   -1.468252
    112          6           0       20.996735   -1.434793   -2.433990
    113          6           0       20.902357   -0.896329   -3.788391
    114          6           0       20.908282    0.528729   -3.577786
    115          6           0       21.103282    0.734657   -2.191622
    116          6           0       20.634013   -1.717333   -4.997474
    117          6           0       20.746907    1.826802   -4.214578
    118          8           0       20.533735    2.050393   -5.420144
    119          6           0       20.855649    2.946150   -3.030248
    120          6           0       22.018653    3.746077   -3.380516
    121          8           0       23.125640    3.284944   -3.553380
    122          8           0       21.710778    5.045118   -3.473647
    123          6           0       22.715823    6.077468   -3.878481
    124          1           0       21.969730    2.465671    3.850674
    125          1           0       22.220444   -3.864909    3.237290
    126          1           0       20.992964   -3.526552   -2.922705
    127          1           0       21.839839    4.458334   -0.405022
    128          1           0       20.409828    4.293577    2.138269
    129          1           0       22.680289    5.613760    1.359904
    130          1           0       23.326904    4.149925    2.212843
    131          1           0       22.238982    5.263569    3.057170
    132          1           0       18.918701    4.592251    0.563184
    133          1           0       19.107296    3.979885   -1.020991
    134          1           0       18.724673    6.509028   -0.711559
    135          1           0       19.683877    5.774426   -1.941311
    136          1           0       21.990411    0.806394    6.497300
    137          1           0       23.095009    1.866367    5.518219
    138          1           0       23.719443    0.495664    6.321727
    139          1           0       22.204589   -1.227879    7.315252
    140          1           0       23.883487   -1.644867    7.402954
    141          1           0       22.518322   -2.794362    7.743712
    142          1           0       21.435997   -5.412704    1.511807
    143          1           0       22.263876   -5.318099   -1.291522
    144          1           0       24.257502   -4.945688    1.500941
    145          1           0       23.971679   -5.770109    0.010224
    146          1           0       23.425796   -6.511840    1.508272
    147          1           0       19.431009   -4.638876   -1.356989
    148          1           0       19.560760   -5.394808    0.124320
    149          1           0       19.464029   -7.344950   -0.859711
    150          1           0       20.910243   -6.882870   -1.826944
    151          1           0       19.223050   -6.475322   -2.379745
    152          1           0       20.014192   -1.178774   -5.713521
    153          1           0       20.238359   -2.667155   -4.638230
    154          1           0       21.601874   -1.910884   -5.461969
    155          1           0       19.976866    3.588883   -2.999843
    156          1           0       23.217827    5.754446   -4.790673
    157          1           0       23.479936    6.240044   -3.117951
    158          1           0       22.303558    7.082982   -3.957966
 ---------------------------------------------------------------------

 SCF Done:  E(RwB97XD) =  -4070.58918424     A.U. after   20 cycles

 Excitation energies and oscillator strengths:

 Excited State   1:      Singlet-A      1.5888 eV  780.35 nm  f=0.3624  <S**2>=0.000
     309 -> 315       -0.18990
     312 -> 314        0.68302
     309 <- 315       -0.12269
 This state for optimization and/or second-order correction.
 Total Energy, E(TD-HF/TD-DFT) =  -4070.53079596
 Copying the excited state density for this state as the 1-particle RhoCI density.

 Excited State   2:      Singlet-A      1.6235 eV  763.66 nm  f=0.4077  <S**2>=0.000
     310 -> 316       -0.17885
     311 -> 313        0.68447
     310 <- 316       -0.11639

 Excited State   3:      Singlet-A      2.1424 eV  578.72 nm  f=0.1269  <S**2>=0.000
     310 -> 313        0.64797
     311 -> 316        0.26645

 Excited State   4:      Singlet-A      2.1589 eV  574.31 nm  f=0.0904  <S**2>=0.000
     309 -> 314        0.62441
     312 -> 315        0.32205

 Excited State   5:      Singlet-A      3.3490 eV  370.21 nm  f=0.0016  <S**2>=0.000
     306 -> 313       -0.11172
     308 -> 313        0.67180

 The electronic state is 1-A.
 Alpha  occ. eigenvalues --  -46.94980 -46.94633 -19.30474 -19.30150 -19.24561
 Alpha  occ. eigenvalues --  -19.24546 -19.24409 -19.24121 -19.23460 -19.22976
 Alpha  occ. eigenvalues --  -14.47078 -14.46500 -14.46321 -14.46143 -14.44736
 Alpha  occ. eigenvalues --  -14.44305 -14.44010 -14.43664 -10.42330 -10.42321
 Alpha  occ. eigenvalues --  -10.39760 -10.39582 -10.39546 -10.39426 -10.36292
 Alpha  occ. eigenvalues --  -10.35992 -10.35474 -10.35390 -10.35385 -10.35275
 Alpha  occ. eigenvalues --  -10.35143 -10.35137 -10.34802 -10.34704 -10.34516
 Alpha  occ. eigenvalues --  -10.34282 -10.34038 -10.33947 -10.33686 -10.33620
 Alpha  occ. eigenvalues --  -10.33218 -10.33032 -10.32941 -10.32902 -10.32756
 Alpha  occ. eigenvalues --  -10.32735 -10.32667 -10.32641 -10.32511 -10.32485
 Alpha  occ. eigenvalues --  -10.32474 -10.32420 -10.32403 -10.32343 -10.32274
 Alpha  occ. eigenvalues --  -10.32239 -10.32174 -10.32003 -10.31866 -10.31848
 Alpha  occ. eigenvalues --  -10.31689 -10.31659 -10.31346 -10.31163 -10.30980
 Alpha  occ. eigenvalues --  -10.30857 -10.30775 -10.30687 -10.30667 -10.30617
 Alpha  occ. eigenvalues --  -10.30318 -10.30267 -10.30098 -10.30031 -10.29960
 Alpha  occ. eigenvalues --  -10.29934 -10.29929 -10.29885 -10.29752 -10.29657
 Alpha  occ. eigenvalues --  -10.29631 -10.29608 -10.29468 -10.29317 -10.29220
 Alpha  occ. eigenvalues --  -10.28821  -3.21045  -3.20763  -1.94600  -1.94340
 Alpha  occ. eigenvalues --   -1.94176  -1.94023  -1.93902  -1.93736  -1.18736
 Alpha  occ. eigenvalues --   -1.18136  -1.13690  -1.13067  -1.12278  -1.10707
 Alpha  occ. eigenvalues --   -1.09569  -1.07481  -1.06694  -1.05787  -1.05532
 Alpha  occ. eigenvalues --   -1.05155  -1.05128  -1.04270  -1.03939  -1.03751
 Alpha  occ. eigenvalues --   -0.94152  -0.92828  -0.91106  -0.90613  -0.90519
 Alpha  occ. eigenvalues --   -0.90166  -0.89980  -0.89938  -0.89306  -0.89068
 Alpha  occ. eigenvalues --   -0.88963  -0.88902  -0.88405  -0.88374  -0.86162
 Alpha  occ. eigenvalues --   -0.86046  -0.86022  -0.85472  -0.84572  -0.84276
 Alpha  occ. eigenvalues --   -0.83758  -0.83447  -0.83239  -0.82980  -0.82671
 Alpha  occ. eigenvalues --   -0.82138  -0.80236  -0.80111  -0.79615  -0.79221
 Alpha  occ. eigenvalues --   -0.78888  -0.78812  -0.78193  -0.77905  -0.77073
 Alpha  occ. eigenvalues --   -0.76799  -0.74588  -0.74493  -0.73631  -0.73410
 Alpha  occ. eigenvalues --   -0.71978  -0.70758  -0.70738  -0.69764  -0.69621
 Alpha  occ. eigenvalues --   -0.69506  -0.68937  -0.68263  -0.67486  -0.67433
 Alpha  occ. eigenvalues --   -0.67110  -0.67074  -0.66640  -0.66605  -0.66502
 Alpha  occ. eigenvalues --   -0.66081  -0.64423  -0.63783  -0.62504  -0.61609
 Alpha  occ. eigenvalues --   -0.61300  -0.61187  -0.60924  -0.60834  -0.60478
 Alpha  occ. eigenvalues --   -0.60044  -0.59717  -0.59474  -0.59374  -0.58197
 Alpha  occ. eigenvalues --   -0.58100  -0.57679  -0.57650  -0.57421  -0.57158
 Alpha  occ. eigenvalues --   -0.57048  -0.56590  -0.56299  -0.55903  -0.55457
 Alpha  occ. eigenvalues --   -0.55284  -0.55267  -0.55160  -0.54951  -0.54862
 Alpha  occ. eigenvalues --   -0.54842  -0.54657  -0.54555  -0.54338  -0.54264
 Alpha  occ. eigenvalues --   -0.54063  -0.54015  -0.53468  -0.53222  -0.53122
 Alpha  occ. eigenvalues --   -0.52907  -0.52847  -0.52550  -0.52478  -0.52068
 Alpha  occ. eigenvalues --   -0.52009  -0.51938  -0.51753  -0.51566  -0.51223
 Alpha  occ. eigenvalues --   -0.51183  -0.51170  -0.51017  -0.50917  -0.50714
 Alpha  occ. eigenvalues --   -0.50572  -0.50500  -0.50372  -0.50337  -0.50081
 Alpha  occ. eigenvalues --   -0.50042  -0.49684  -0.49451  -0.49370  -0.49367
 Alpha  occ. eigenvalues --   -0.48681  -0.48668  -0.48587  -0.48542  -0.48298
 Alpha  occ. eigenvalues --   -0.48173  -0.48128  -0.48060  -0.47835  -0.47755
 Alpha  occ. eigenvalues --   -0.47436  -0.47237  -0.47217  -0.47048  -0.46839
 Alpha  occ. eigenvalues --   -0.46470  -0.46344  -0.46201  -0.46075  -0.45899
 Alpha  occ. eigenvalues --   -0.45764  -0.45602  -0.45551  -0.45473  -0.45275
 Alpha  occ. eigenvalues --   -0.45074  -0.44983  -0.44962  -0.44911  -0.44700
 Alpha  occ. eigenvalues --   -0.44611  -0.44516  -0.44453  -0.44068  -0.43788
 Alpha  occ. eigenvalues --   -0.43780  -0.43493  -0.43350  -0.43308  -0.43207
 Alpha  occ. eigenvalues --   -0.42921  -0.42836  -0.42444  -0.42277  -0.42196
 Alpha  occ. eigenvalues --   -0.42115  -0.41623  -0.41474  -0.41273  -0.41092
 Alpha  occ. eigenvalues --   -0.40539  -0.40294  -0.39984  -0.39863  -0.39550
 Alpha  occ. eigenvalues --   -0.39066  -0.38720  -0.38546  -0.38238  -0.38132
 Alpha  occ. eigenvalues --   -0.38043  -0.37658  -0.36459  -0.35908  -0.35714
 Alpha  occ. eigenvalues --   -0.35346  -0.35245  -0.34721  -0.33704  -0.33609
 Alpha  occ. eigenvalues --   -0.33412  -0.32995  -0.32812  -0.32795  -0.32516
 Alpha  occ. eigenvalues --   -0.32278  -0.32157  -0.31593  -0.26031  -0.25762
 Alpha  occ. eigenvalues --   -0.22776  -0.22764
 Alpha virt. eigenvalues --   -0.07091  -0.07071  -0.00132   0.00790   0.02202
 Alpha virt. eigenvalues --    0.02699   0.04144   0.04475   0.04925   0.06500
 Alpha virt. eigenvalues --    0.07355   0.07587   0.07855   0.07966   0.08146

 Mulliken charges:
               1
     1  Mg   0.988097
     2  C    0.030683
     3  C   -0.071710
     4  C   -0.057233
     5  C   -0.104993
     6  N   -0.311573
     7  C   -0.008522
     8  C   -0.088435
     9  C   -0.082988
    10  C    0.047697
    11  C    0.016133
    12  C    0.051413
    13  C   -0.150224
    14  H    0.031543
    15  N   -0.450306
    16  C    0.180652
    17  C   -0.160798
    18  C   -0.081926
    19  C    0.134137
    20  C    0.055055
    21  C    0.057031
    22  O   -0.216011
    23  C   -0.009359
    24  N   -0.398499
    25  C    0.036387
    26  C   -0.083118
    27  C   -0.076556
    28  C    0.060740
    29  C    0.027344
    30  C   -0.006059
    31  C   -0.051454
    32  N   -0.527324
    33  C    0.158644
    34  C   -0.163706
    35  C   -0.041743
    36  C    0.162142
    37  C    0.081441
    38  C    0.128600
    39  O   -0.198768
    40  C   -0.130118
    41  C    0.252193
    42  O   -0.286973
    43  O   -0.341666
    44  C    0.147837
    45  H   -0.001404
    46  H    0.022954
    47  H   -0.006051
    48  H    0.039137
    49  H    0.035196
    50  H    0.033072
    51  H    0.038325
    52  H    0.025672
    53  H    0.023397
    54  H    0.069096
    55  H    0.048342
    56  H    0.037552
    57  H    0.022368
    58  H    0.055848
    59  H    0.037845
    60  H    0.076483
    61  H    0.035051
    62  H    0.053197
    63  H    0.040837
    64  H    0.043006
    65  H    0.048287
    66  H    0.047205
    67  H    0.024267
    68  H    0.039512
    69  H    0.022300
    70  H    0.040661
    71  H    0.045461
    72  H    0.042413
    73  H    0.065317
    74  H    0.051800
    75  H    0.044446
    76  H    0.067558
    77  H    0.057698
    78  H    0.052415
    79  H    0.073028
    80  Mg   0.966375
    81  C   -0.049369
    82  C   -0.089560
    83  C   -0.059794
    84  C   -0.106238
    85  N   -0.317420
    86  C    0.011376
    87  C   -0.040475
    88  C   -0.105323
    89  C    0.050195
    90  C   -0.005204
    91  C   -0.008600
    92  C   -0.109742
    93  H    0.017149
    94  N   -0.387911
    95  C    0.163987
    96  C   -0.188151
    97  C   -0.059140
    98  C    0.115154
    99  C    0.051762
   100  C    0.080644
   101  O   -0.219418
   102  C   -0.036702
   103  N   -0.403562
   104  C    0.019274
   105  C   -0.074874
   106  C   -0.053982
   107  C    0.103285
   108  C    0.032753
   109  C   -0.056486
   110  C   -0.031338
   111  N   -0.481657
   112  C    0.161651
   113  C   -0.187084
   114  C   -0.019257
   115  C    0.159996
   116  C    0.089883
   117  C    0.119807
   118  O   -0.226510
   119  C   -0.061702
   120  C    0.258015
   121  O   -0.245673
   122  O   -0.357591
   123  C    0.146442
   124  H   -0.009381
   125  H    0.024570
   126  H    0.001009
   127  H    0.044152
   128  H    0.046807
   129  H    0.047916
   130  H    0.045197
   131  H    0.037823
   132  H    0.030187
   133  H    0.028288
   134  H    0.044357
   135  H    0.052358
   136  H    0.066466
   137  H    0.038134
   138  H    0.031187
   139  H    0.035997
   140  H    0.074652
   141  H    0.049270
   142  H    0.043705
   143  H    0.035664
   144  H    0.053047
   145  H    0.026337
   146  H    0.041781
   147  H    0.029339
   148  H    0.020488
   149  H    0.036585
   150  H    0.025289
   151  H    0.038908
   152  H    0.066601
   153  H    0.037259
   154  H    0.055604
   155  H    0.057924
   156  H    0.070421
   157  H    0.046840
   158  H    0.060233
 Sum of Mulliken charges =  -0.00000

 Dipole moment (field-independent basis, Debye):
    X=             -1.2712    Y=              1.9299    Z=              0.1982  Tot=              2.3194
 Quadrupole moment (field-independent basis, Debye-Ang):
   XX=           -663.9371   YY=           -452.0641   ZZ=           -525.2476
   XY=             43.9098   XZ=            175.8290   YZ=              5.1708

 Normal termination of Gaussian 16 at Sun Sep 19 08:52:27 2021.
