 Gaussian 16, Revision A.03,
 Gaussian 16:  ES64L-G16RevA.03 25-Dec-2016

 --------------------------------
 #p wB97XD/Def2SVP td=(nstates=5)
 --------------------------------

 --------------------------------
 TDDFT excited states in gaussian
 --------------------------------
 Symbolic Z-matrix:
 Charge =  0 Multiplicity = 1

                         Standard orientation:
 ---------------------------------------------------------------------
 Center     Atomic      Atomic             Coordinates (Angstroms)
 Number     Number       Type             X           Y           Z
 ---------------------------------------------------------------------
      1         12           0       20.128871   -0.836665   -0.153693
      2          6           0       22.008480    2.234047   -0.155618
      3          6           0       17.756432    0.809948    1.666758
      4          6           0       18.532414   -3.775577    0.102403
      5          6           0       22.825023   -2.374071   -1.538722
      6          7           0       19.903792    1.394242    0.640063
      7          6           0       20.800485    2.404133    0.443861
      8          6           0       20.163118    3.653301    0.922067
      9          6           0       18.859174    3.201208    1.636008
     10          6           0       18.787540    1.671771    1.374924
     11          6           0       18.900933    3.499874    3.168494
     12          6           0       19.927543    4.714664   -0.123288
     13          6           0       19.500577    6.106143    0.315377
     14          1           0       20.252625    7.239212   -0.245433
     15          7           0       18.357962   -1.368940    0.650605
     16          6           0       17.537841   -0.548050    1.472996
     17          6           0       16.320075   -1.328722    1.761457
     18          6           0       16.608712   -2.638329    1.386596
     19          6           0       17.927286   -2.650000    0.727520
     20          6           0       15.153951   -0.716665    2.509146
     21          6           0       15.739626   -3.909450    1.500007
     22          8           0       16.171794   -5.066830    1.343724
     23          6           0       14.306273   -3.712833    1.783177
     24          7           0       20.620358   -2.851152   -0.589119
     25          6           0       19.842025   -3.902113   -0.431674
     26          6           0       20.506763   -5.234858   -0.873238
     27          6           0       21.742424   -4.705575   -1.604472
     28          6           0       21.710051   -3.232176   -1.268660
     29          6           0       20.865046   -6.135077    0.357051
     30          6           0       21.813321   -4.952729   -3.094529
     31          6           0       23.175702   -5.396172   -3.656570
     32          7           0       21.969651   -0.187086   -0.805803
     33          6           0       22.964390   -0.957445   -1.367326
     34          6           0       24.136735   -0.122875   -1.769020
     35          6           0       23.733898    1.096116   -1.262008
     36          6           0       22.475321    1.023430   -0.652914
     37          6           0       25.307437   -0.504151   -2.617009
     38          6           0       24.180064    2.475573   -1.133535
     39          8           0       25.212177    2.971560   -1.571080
     40          6           0       23.084094    3.291472   -0.410342
     41          6           0       23.739287    3.997209    0.661191
     42          8           0       24.125387    3.518365    1.754698
     43          8           0       23.745396    5.335548    0.409642
     44          6           0       24.107658    6.241377    1.477790
     45          1           0       16.950576    1.343623    2.174429
     46          1           0       18.098049   -4.751740    0.327302
     47          1           0       23.700011   -2.990525   -1.754259
     48          1           0       20.876085    4.017195    1.660744
     49          1           0       17.973764    3.697528    1.238370
     50          1           0       18.108594    4.027317    3.700566
     51          1           0       19.801990    4.099775    3.295245
     52          1           0       19.143515    2.644477    3.799582
     53          1           0       19.108069    4.439032   -0.787272
     54          1           0       20.709445    4.719706   -0.882193
     55          1           0       19.585169    6.211694    1.395914
     56          1           0       18.535530    6.271004   -0.163092
     57          1           0       14.761880   -1.338306    3.313826
     58          1           0       14.311407   -0.446762    1.872777
     59          1           0       15.387376    0.199009    3.052988
     60          1           0       13.911663   -2.987143    1.071869
     61          1           0       14.326076   -3.293497    2.788491
     62          1           0       13.818720   -4.662526    1.566103
     63          1           0       19.797502   -5.716378   -1.547297
     64          1           0       22.705819   -5.047680   -1.227483
     65          1           0       21.942980   -6.222445    0.489902
     66          1           0       20.509280   -7.155912    0.217566
     67          1           0       20.426276   -5.631110    1.218346
     68          1           0       21.480410   -4.086166   -3.664905
     69          1           0       20.949505   -5.585765   -3.294874
     70          1           0       22.967708   -5.988386   -4.547173
     71          1           0       23.813095   -5.870108   -2.909464
     72          1           0       23.628567   -4.431761   -3.885661
     73          1           0       25.233463   -0.180002   -3.655231
     74          1           0       25.451851   -1.569701   -2.440836
     75          1           0       26.222223   -0.144973   -2.143933
     76          1           0       22.823238    4.077331   -1.119145
     77          1           0       24.242281    5.767176    2.450323
     78          1           0       23.413493    7.080131    1.522296
     79          1           0       25.056995    6.741608    1.284621
     80         12           0      -21.096499   -0.485424   -0.005752
     81          6           0      -20.245736    2.783307   -0.907831
     82          6           0      -20.574145    0.405205    3.286763
     83          6           0      -21.222383   -3.782371    0.869096
     84          6           0      -20.935338   -1.370279   -3.350007
     85          7           0      -20.578227    1.388187    0.998142
     86          6           0      -20.495614    2.607129    0.449808
     87          6           0      -20.495592    3.765536    1.458016
     88          6           0      -20.411382    2.986158    2.826185
     89          6           0      -20.628712    1.433737    2.381348
     90          6           0      -19.131361    3.173688    3.668843
     91          6           0      -21.693608    4.708654    1.345718
     92          6           0      -21.396982    6.131842    1.852302
     93          1           0      -20.006867    6.452764    2.419302
     94          7           0      -21.037988   -1.548976    1.811812
     95          6           0      -20.877076   -0.985978    3.098867
     96          6           0      -20.963433   -2.052693    4.075947
     97          6           0      -21.089142   -3.311726    3.378558
     98          6           0      -21.158798   -2.925617    1.970116
     99          6           0      -21.001720   -1.752712    5.549181
    100          6           0      -21.301714   -4.789083    3.939431
    101          8           0      -21.535659   -5.745358    3.240931
    102          6           0      -21.178401   -4.961235    5.437835
    103          7           0      -20.985971   -2.300359   -1.069736
    104          6           0      -21.097756   -3.539665   -0.510527
    105          6           0      -21.116311   -4.682395   -1.591507
    106          6           0      -21.093630   -3.868584   -2.884320
    107          6           0      -20.993447   -2.434550   -2.399424
    108          6           0      -20.093178   -5.887627   -1.538378
    109          6           0      -22.368045   -4.116590   -3.724958
    110          6           0      -23.656241   -3.339129   -3.374944
    111          7           0      -20.829708    0.474098   -1.848569
    112          6           0      -20.788480   -0.006193   -3.131842
    113          6           0      -20.571773    1.043885   -4.069767
    114          6           0      -20.334925    2.218933   -3.223974
    115          6           0      -20.478013    1.804267   -1.957301
    116          6           0      -20.528603    1.048618   -5.533652
    117          6           0      -19.910710    3.612011   -3.205017
    118          8           0      -19.734842    4.401439   -4.139194
    119          6           0      -19.834044    4.064956   -1.717211
    120          6           0      -18.504288    4.559711   -1.375755
    121          8           0      -17.516082    3.872099   -1.141488
    122          8           0      -18.463920    5.916507   -1.577719
    123          6           0      -17.161604    6.597636   -1.712308
    124          1           0      -20.364680    0.771077    4.294301
    125          1           0      -21.447089   -4.816414    1.138641
    126          1           0      -20.979940   -1.628014   -4.410178
    127          1           0      -19.562752    4.327820    1.422854
    128          1           0      -21.285020    3.130522    3.460802
    129          1           0      -19.569664    3.461242    4.624347
    130          1           0      -18.517123    3.977208    3.263132
    131          1           0      -18.552846    2.250197    3.695930
    132          1           0      -22.570441    4.320234    1.862378
    133          1           0      -22.005424    4.796977    0.304666
    134          1           0      -22.167067    6.233970    2.617199
    135          1           0      -21.669545    6.890506    1.117262
    136          1           0      -20.755811   -0.694300    5.635928
    137          1           0      -20.273187   -2.383407    6.059101
    138          1           0      -21.972681   -1.959093    6.001946
    139          1           0      -20.173013   -4.939569    5.859598
    140          1           0      -21.696410   -5.881359    5.708255
    141          1           0      -21.759446   -4.115827    5.806144
    142          1           0      -22.091980   -5.127005   -1.396634
    143          1           0      -20.203385   -4.183024   -3.427817
    144          1           0      -19.593547   -6.102620   -2.482231
    145          1           0      -20.651097   -6.792103   -1.298080
    146          1           0      -19.398556   -5.694336   -0.720377
    147          1           0      -22.546275   -5.189505   -3.663937
    148          1           0      -22.066335   -3.900863   -4.750335
    149          1           0      -24.452056   -4.077614   -3.468591
    150          1           0      -23.883122   -2.539451   -4.079652
    151          1           0      -23.631703   -2.840934   -2.406410
    152          1           0      -21.057840    1.937371   -5.875569
    153          1           0      -20.950510    0.169408   -6.020661
    154          1           0      -19.513172    1.252310   -5.874002
    155          1           0      -20.601922    4.834320   -1.637714
    156          1           0      -16.323068    5.914816   -1.571154
    157          1           0      -17.102256    7.354240   -0.929535
    158          1           0      -17.236036    6.980381   -2.729573
 ---------------------------------------------------------------------

 SCF Done:  E(RwB97XD) =  -4070.63184913     A.U. after   20 cycles

 Excitation energies and oscillator strengths:

 Excited State   1:      Singlet-A      1.6570 eV  748.25 nm  f=0.4076  <S**2>=0.000
     310 -> 316        0.18733
     311 -> 313        0.68178
     310 <- 316        0.11634
 This state for optimization and/or second-order correction.
 Total Energy, E(TD-HF/TD-DFT) =  -4070.57095625
 Copying the excited state density for this state as the 1-particle RhoCI density.

 Excited State   2:      Singlet-A      1.6935 eV  732.11 nm  f=0.3789  <S**2>=0.000
     309 -> 315       -0.20455
     312 -> 314        0.67931
     309 <- 315       -0.12254

 Excited State   3:      Singlet-A      2.0777 eV  596.73 nm  f=0.1512  <S**2>=0.000
     310 -> 313        0.65642
     311 -> 316       -0.23989

 Excited State   4:      Singlet-A      2.2627 eV  547.96 nm  f=0.0702  <S**2>=0.000
     309 -> 314        0.61592
     312 -> 315        0.33991

 Excited State   5:      Singlet-A      3.1039 eV  399.45 nm  f=0.0053  <S**2>=0.000
     307 -> 313       -0.12877
     308 -> 313        0.67534

 The electronic state is 1-A.
 Alpha  occ. eigenvalues --  -46.94836 -46.94621 -19.30401 -19.29147 -19.24988
 Alpha  occ. eigenvalues --  -19.24070 -19.23957 -19.23819 -19.23795 -19.23668
 Alpha  occ. eigenvalues --  -14.46906 -14.46495 -14.46469 -14.45704 -14.44383
 Alpha  occ. eigenvalues --  -14.44182 -14.44088 -14.42805 -10.42993 -10.42541
 Alpha  occ. eigenvalues --  -10.40191 -10.39215 -10.39139 -10.38474 -10.34951
 Alpha  occ. eigenvalues --  -10.34951 -10.34939 -10.34923 -10.34785 -10.34743
 Alpha  occ. eigenvalues --  -10.34687 -10.34598 -10.34579 -10.34553 -10.34455
 Alpha  occ. eigenvalues --  -10.34432 -10.34410 -10.34078 -10.33928 -10.33190
 Alpha  occ. eigenvalues --  -10.32873 -10.32856 -10.32744 -10.32530 -10.32370
 Alpha  occ. eigenvalues --  -10.32324 -10.32298 -10.32180 -10.32163 -10.32132
 Alpha  occ. eigenvalues --  -10.32028 -10.32011 -10.31838 -10.31739 -10.31725
 Alpha  occ. eigenvalues --  -10.31721 -10.31714 -10.31488 -10.31486 -10.31424
 Alpha  occ. eigenvalues --  -10.31250 -10.31186 -10.31105 -10.31023 -10.30959
 Alpha  occ. eigenvalues --  -10.30957 -10.30953 -10.30907 -10.30671 -10.30304
 Alpha  occ. eigenvalues --  -10.30219 -10.30217 -10.30084 -10.30000 -10.29951
 Alpha  occ. eigenvalues --  -10.29863 -10.29837 -10.29832 -10.29831 -10.29762
 Alpha  occ. eigenvalues --  -10.29728 -10.29691 -10.29556 -10.29320 -10.28827
 Alpha  occ. eigenvalues --  -10.28638  -3.20872  -3.20583  -1.94473  -1.94173
 Alpha  occ. eigenvalues --   -1.93990  -1.93853  -1.93703  -1.93560  -1.18305
 Alpha  occ. eigenvalues --   -1.17287  -1.13830  -1.11709  -1.11272  -1.11133
 Alpha  occ. eigenvalues --   -1.08865  -1.08153  -1.07763  -1.06609  -1.06473
 Alpha  occ. eigenvalues --   -1.05355  -1.05081  -1.04505  -1.04228  -1.03087
 Alpha  occ. eigenvalues --   -0.95153  -0.94082  -0.91944  -0.91182  -0.91060
 Alpha  occ. eigenvalues --   -0.90675  -0.90407  -0.90102  -0.89533  -0.89047
 Alpha  occ. eigenvalues --   -0.89001  -0.88570  -0.88420  -0.88057  -0.86621
 Alpha  occ. eigenvalues --   -0.86153  -0.85948  -0.85355  -0.84813  -0.84521
 Alpha  occ. eigenvalues --   -0.84250  -0.83900  -0.83191  -0.82980  -0.82855
 Alpha  occ. eigenvalues --   -0.82161  -0.80626  -0.80121  -0.79640  -0.79367
 Alpha  occ. eigenvalues --   -0.79072  -0.78779  -0.78477  -0.77854  -0.77175
 Alpha  occ. eigenvalues --   -0.76990  -0.74982  -0.74449  -0.73922  -0.73098
 Alpha  occ. eigenvalues --   -0.71757  -0.71450  -0.71219  -0.70442  -0.70034
 Alpha  occ. eigenvalues --   -0.69680  -0.68523  -0.68322  -0.68094  -0.67366
 Alpha  occ. eigenvalues --   -0.67101  -0.66739  -0.66653  -0.66559  -0.66471
 Alpha  occ. eigenvalues --   -0.65760  -0.64530  -0.63424  -0.62384  -0.61893
 Alpha  occ. eigenvalues --   -0.61806  -0.61485  -0.61105  -0.61063  -0.60755
 Alpha  occ. eigenvalues --   -0.60358  -0.60308  -0.59685  -0.59618  -0.59428
 Alpha  occ. eigenvalues --   -0.58465  -0.57845  -0.57692  -0.57514  -0.57409
 Alpha  occ. eigenvalues --   -0.57145  -0.56637  -0.56365  -0.55955  -0.55822
 Alpha  occ. eigenvalues --   -0.55650  -0.55411  -0.55300  -0.55121  -0.54875
 Alpha  occ. eigenvalues --   -0.54817  -0.54644  -0.54275  -0.54083  -0.53920
 Alpha  occ. eigenvalues --   -0.53904  -0.53793  -0.53632  -0.53575  -0.53120
 Alpha  occ. eigenvalues --   -0.52762  -0.52712  -0.52609  -0.52443  -0.52214
 Alpha  occ. eigenvalues --   -0.52202  -0.51856  -0.51647  -0.51578  -0.51544
 Alpha  occ. eigenvalues --   -0.51339  -0.50999  -0.50997  -0.50937  -0.50595
 Alpha  occ. eigenvalues --   -0.50475  -0.50306  -0.50260  -0.50175  -0.50056
 Alpha  occ. eigenvalues --   -0.49873  -0.49752  -0.49579  -0.49288  -0.49155
 Alpha  occ. eigenvalues --   -0.49076  -0.48969  -0.48702  -0.48461  -0.48217
 Alpha  occ. eigenvalues --   -0.48149  -0.48064  -0.47960  -0.47810  -0.47588
 Alpha  occ. eigenvalues --   -0.47506  -0.47220  -0.47083  -0.47006  -0.46965
 Alpha  occ. eigenvalues --   -0.46593  -0.46457  -0.46266  -0.45908  -0.45870
 Alpha  occ. eigenvalues --   -0.45826  -0.45624  -0.45620  -0.45349  -0.45330
 Alpha  occ. eigenvalues --   -0.45178  -0.45058  -0.45010  -0.44767  -0.44686
 Alpha  occ. eigenvalues --   -0.44458  -0.44345  -0.44299  -0.43974  -0.43949
 Alpha  occ. eigenvalues --   -0.43666  -0.43640  -0.43501  -0.43435  -0.43206
 Alpha  occ. eigenvalues --   -0.43042  -0.42971  -0.42824  -0.42760  -0.42541
 Alpha  occ. eigenvalues --   -0.42181  -0.42037  -0.41845  -0.41805  -0.40704
 Alpha  occ. eigenvalues --   -0.40460  -0.40331  -0.39834  -0.39775  -0.39626
 Alpha  occ. eigenvalues --   -0.39216  -0.38802  -0.38075  -0.38011  -0.37907
 Alpha  occ. eigenvalues --   -0.37721  -0.37660  -0.36340  -0.35877  -0.35772
 Alpha  occ. eigenvalues --   -0.35534  -0.35488  -0.35160  -0.33772  -0.33589
 Alpha  occ. eigenvalues --   -0.33128  -0.32982  -0.32824  -0.32749  -0.32526
 Alpha  occ. eigenvalues --   -0.32430  -0.31818  -0.30865  -0.25997  -0.25449
 Alpha  occ. eigenvalues --   -0.23135  -0.22718
 Alpha virt. eigenvalues --   -0.07301  -0.06503   0.00105   0.00592   0.02621
 Alpha virt. eigenvalues --    0.02795   0.04567   0.04626   0.05658   0.06137
 Alpha virt. eigenvalues --    0.06687   0.07416   0.07748   0.08136   0.08443

 Mulliken charges:
               1
     1  Mg   0.974593
     2  C    0.002845
     3  C   -0.074000
     4  C   -0.058904
     5  C   -0.108676
     6  N   -0.330609
     7  C   -0.063331
     8  C    0.015640
     9  C   -0.121716
    10  C    0.063797
    11  C    0.011253
    12  C    0.011747
    13  C   -0.119990
    14  H    0.035303
    15  N   -0.515844
    16  C    0.189973
    17  C   -0.128828
    18  C   -0.091739
    19  C    0.167212
    20  C    0.036527
    21  C    0.055221
    22  O   -0.254773
    23  C    0.008751
    24  N   -0.326292
    25  C   -0.014136
    26  C   -0.060062
    27  C   -0.104817
    28  C    0.037512
    29  C    0.034238
    30  C    0.005172
    31  C   -0.035308
    32  N   -0.421120
    33  C    0.133145
    34  C   -0.209228
    35  C   -0.009022
    36  C    0.152723
    37  C    0.108954
    38  C    0.073391
    39  O   -0.209210
    40  C   -0.031945
    41  C    0.264644
    42  O   -0.283662
    43  O   -0.351479
    44  C    0.134929
    45  H   -0.012363
    46  H    0.030641
    47  H    0.003530
    48  H    0.033942
    49  H    0.037543
    50  H    0.041023
    51  H    0.017655
    52  H    0.035913
    53  H    0.014303
    54  H    0.025710
    55  H    0.056577
    56  H    0.056731
    57  H    0.040393
    58  H    0.054071
    59  H    0.038982
    60  H    0.053181
    61  H    0.060410
    62  H    0.061936
    63  H    0.043793
    64  H    0.028128
    65  H    0.033560
    66  H    0.048027
    67  H    0.054508
    68  H    0.023093
    69  H    0.008880
    70  H    0.052204
    71  H    0.038545
    72  H    0.041131
    73  H    0.077467
    74  H    0.017113
    75  H    0.049436
    76  H    0.080823
    77  H    0.066821
    78  H    0.047335
    79  H    0.046080
    80  Mg   0.960091
    81  C   -0.000753
    82  C   -0.090119
    83  C   -0.073916
    84  C   -0.087019
    85  N   -0.357199
    86  C   -0.011349
    87  C   -0.047882
    88  C   -0.148926
    89  C    0.067830
    90  C    0.032174
    91  C    0.017105
    92  C   -0.110748
    93  H    0.046809
    94  N   -0.477754
    95  C    0.165448
    96  C   -0.178459
    97  C   -0.089929
    98  C    0.129219
    99  C    0.057010
   100  C    0.082260
   101  O   -0.208402
   102  C   -0.022469
   103  N   -0.338015
   104  C    0.039882
   105  C   -0.081601
   106  C   -0.049230
   107  C    0.051133
   108  C    0.022580
   109  C   -0.042533
   110  C   -0.033356
   111  N   -0.449865
   112  C    0.142127
   113  C   -0.164966
   114  C   -0.034717
   115  C    0.132237
   116  C    0.085457
   117  C    0.094024
   118  O   -0.220693
   119  C   -0.059062
   120  C    0.274388
   121  O   -0.254809
   122  O   -0.379412
   123  C    0.128390
   124  H    0.001344
   125  H    0.020128
   126  H   -0.015925
   127  H    0.038814
   128  H    0.031215
   129  H    0.040112
   130  H    0.043080
   131  H    0.055405
   132  H    0.031094
   133  H    0.031070
   134  H    0.040515
   135  H    0.054375
   136  H    0.029129
   137  H    0.047922
   138  H    0.067845
   139  H    0.082014
   140  H    0.053816
   141  H    0.031810
   142  H    0.039776
   143  H    0.036093
   144  H    0.039816
   145  H    0.035681
   146  H    0.050955
   147  H    0.030150
   148  H    0.031105
   149  H    0.040386
   150  H    0.037224
   151  H    0.046604
   152  H    0.052952
   153  H    0.034616
   154  H    0.057825
   155  H    0.073292
   156  H    0.066839
   157  H    0.054419
   158  H    0.073522
 Sum of Mulliken charges =  -0.00000

 Dipole moment (field-independent basis, Debye):
    X=             -6.9237    Y=             -0.1113    Z=              2.6009  Tot=              7.3969
 Quadrupole moment (field-independent basis, Debye-Ang):
   XX=           -605.7937   YY=           -495.2282   ZZ=           -485.5304
   XY=            -19.3972   XZ=            -72.7906   YZ=             43.6791

 Normal termination of Gaussian 16 at Mon Sep 20 03:37:37 2021.
