 Gaussian 16, Revision A.03,
 Gaussian 16:  ES64L-G16RevA.03 25-Dec-2016

 --------------------------------
 #p wB97XD/Def2SVP td=(nstates=5)
 --------------------------------

 --------------------------------
 TDDFT excited states in gaussian
 --------------------------------
 Symbolic Z-matrix:
 Charge =  0 Multiplicity = 1

                         Standard orientation:
 ---------------------------------------------------------------------
 Center     Atomic      Atomic             Coordinates (Angstroms)
 Number     Number       Type             X           Y           Z
 ---------------------------------------------------------------------
      1         12           0       -0.727490    0.018221    0.432687
      2          6           0        2.784361    0.290181    0.162843
      3          6           0       -0.540799   -3.234828   -0.074527
      4          6           0       -4.088400    0.055333   -0.180290
      5          6           0       -0.804469    3.680724   -0.072618
      6          7           0        0.971313   -1.282022    0.027937
      7          6           0        2.280998   -1.011339    0.203275
      8          6           0        3.066259   -2.336056    0.267008
      9          6           0        2.036910   -3.419346    0.219432
     10          6           0        0.712435   -2.626497    0.003072
     11          6           0        2.403785   -4.575402   -0.798516
     12          6           0        4.119642   -2.525379    1.409330
     13          6           0        4.382975   -3.930707    2.101947
     14          1           0        5.835485   -4.368653    2.340352
     15          7           0       -2.135969   -1.450104    0.185175
     16          6           0       -1.838883   -2.781113   -0.002487
     17          6           0       -3.080360   -3.495855   -0.091770
     18          6           0       -4.186560   -2.562628   -0.168520
     19          6           0       -3.489027   -1.259201   -0.108158
     20          6           0       -3.027337   -4.961312   -0.251047
     21          6           0       -5.714974   -2.806630   -0.221942
     22          8           0       -6.462743   -1.890973   -0.326400
     23          6           0       -6.277190   -4.151329    0.106468
     24          7           0       -2.206709    1.670259   -0.114471
     25          6           0       -3.517286    1.341882   -0.163173
     26          6           0       -4.428997    2.594109   -0.366131
     27          6           0       -3.404908    3.767858   -0.294983
     28          6           0       -2.043880    3.039470   -0.169058
     29          6           0       -5.232999    2.615498   -1.638907
     30          6           0       -3.576951    4.832095    0.844664
     31          6           0       -3.139018    4.493518    2.229459
     32          7           0        0.603732    1.726407    0.121245
     33          6           0        0.413426    3.073065   -0.000308
     34          6           0        1.693274    3.738633    0.008162
     35          6           0        2.679750    2.719246    0.066588
     36          6           0        1.957738    1.508662    0.086736
     37          6           0        1.970250    5.184934   -0.205547
     38          6           0        4.084720    2.426906    0.066649
     39          8           0        5.090492    3.127398    0.068417
     40          6           0        4.221065    0.842246    0.179009
     41          6           0        5.169274    0.253436   -0.851874
     42          8           0        4.968668    0.276068   -2.038796
     43          8           0        6.242787   -0.333379   -0.200963
     44          6           0        7.233924   -0.900009   -1.116351
     45          1           0       -0.569326   -4.326029   -0.033339
     46          1           0       -5.168240   -0.017111   -0.323867
     47          1           0       -0.824009    4.771635   -0.115019
     48          1           0        3.639542   -2.219518   -0.652714
     49          1           0        2.047604   -3.921914    1.186990
     50          1           0        3.416471   -4.421273   -1.170733
     51          1           0        1.602149   -4.631436   -1.534902
     52          1           0        2.501946   -5.534207   -0.289102
     53          1           0        3.828973   -1.848458    2.213067
     54          1           0        5.107789   -2.172624    1.112821
     55          1           0        3.880686   -4.647672    1.452203
     56          1           0        3.865476   -3.954568    3.061046
     57          1           0       -3.851420   -5.211478   -0.918804
     58          1           0       -3.247375   -5.395246    0.723625
     59          1           0       -2.135952   -5.470890   -0.617298
     60          1           0       -6.330652   -4.623366   -0.873693
     61          1           0       -7.205589   -4.022074    0.663605
     62          1           0       -5.615721   -4.802267    0.678593
     63          1           0       -5.082087    2.763805    0.490129
     64          1           0       -3.216556    4.373008   -1.181231
     65          1           0       -5.206301    1.649055   -2.143946
     66          1           0       -4.841209    3.330869   -2.362472
     67          1           0       -6.250796    2.860054   -1.335977
     68          1           0       -4.624175    5.126312    0.915202
     69          1           0       -3.136376    5.764882    0.491940
     70          1           0       -3.122514    3.410793    2.355585
     71          1           0       -3.724306    4.800188    3.096632
     72          1           0       -2.174512    4.988779    2.345885
     73          1           0        1.623017    5.581912   -1.159019
     74          1           0        3.042143    5.245691   -0.395487
     75          1           0        1.634028    5.790962    0.636207
     76          1           0        4.590826    0.650526    1.186494
     77          1           0        6.967779   -1.904251   -0.788010
     78          1           0        8.179932   -0.539774   -0.712815
     79          1           0        7.040466   -0.659983   -2.162069
 ---------------------------------------------------------------------

 SCF Done:  E(RwB97XD) =  -2035.29056519     A.U. after   20 cycles

 Excitation energies and oscillator strengths:

 Excited State   1:      Singlet-A      1.6417 eV  755.22 nm  f=0.3839  <S**2>=0.000
     155 ->158         0.19313
     156 ->157         0.68164
     155 <-158         0.12005
 This state for optimization and/or second-order correction.
 Total Energy, E(TD-HF/TD-DFT) =  -2035.23023380
 Copying the excited state density for this state as the 1-particle RhoCI density.

 Excited State   2:      Singlet-A      2.1319 eV  581.57 nm  f=0.1061  <S**2>=0.000
     155 ->157         0.64022
     156 ->158        -0.28532

 Excited State   3:      Singlet-A      3.3482 eV  370.30 nm  f=0.0009  <S**2>=0.000
     153 ->157        -0.21515
     154 ->157         0.65106

 Excited State   4:      Singlet-A      3.4309 eV  361.37 nm  f=0.1116  <S**2>=0.000
     153 ->157         0.51897
     154 ->157         0.13802
     155 ->157         0.11127
     156 ->158         0.41218

 Excited State   5:      Singlet-A      3.6045 eV  343.97 nm  f=0.0073  <S**2>=0.000
     151 ->157         0.13746
     152 ->157         0.54238
     152 ->159         0.29997
     152 ->160         0.11245
     152 ->161        -0.20437

 The electronic state is 1-A.
 Alpha  occ. eigenvalues --  -46.96334 -19.29980 -19.24953 -19.24600 -19.23678
 Alpha  occ. eigenvalues --  -14.46797 -14.46378 -14.44106 -14.43386 -10.42963
 Alpha  occ. eigenvalues --  -10.39689 -10.38812 -10.35678 -10.35143 -10.34992
 Alpha  occ. eigenvalues --  -10.34967 -10.34744 -10.34351 -10.33608 -10.33482
 Alpha  occ. eigenvalues --  -10.33028 -10.32829 -10.32555 -10.32318 -10.32082
 Alpha  occ. eigenvalues --  -10.32068 -10.31877 -10.31696 -10.31670 -10.31401
 Alpha  occ. eigenvalues --  -10.31316 -10.30967 -10.30759 -10.30753 -10.30446
 Alpha  occ. eigenvalues --  -10.30433 -10.30419 -10.30257 -10.30049 -10.29264
 Alpha  occ. eigenvalues --  -10.28946 -10.28912 -10.28773  -3.22128  -1.95680
 Alpha  occ. eigenvalues --   -1.95250  -1.95079  -1.18454  -1.15127  -1.11440
 Alpha  occ. eigenvalues --   -1.10741  -1.06216  -1.05134  -1.04514  -1.03872
 Alpha  occ. eigenvalues --   -0.93572  -0.91160  -0.90737  -0.90188  -0.89304
 Alpha  occ. eigenvalues --   -0.89114  -0.88032  -0.85878  -0.85593  -0.84451
 Alpha  occ. eigenvalues --   -0.83902  -0.82780  -0.82364  -0.80263  -0.79059
 Alpha  occ. eigenvalues --   -0.79011  -0.77804  -0.76597  -0.74317  -0.73430
 Alpha  occ. eigenvalues --   -0.71726  -0.71189  -0.70208  -0.68932  -0.66927
 Alpha  occ. eigenvalues --   -0.66228  -0.66087  -0.66003  -0.63685  -0.62043
 Alpha  occ. eigenvalues --   -0.61506  -0.60801  -0.60315  -0.59976  -0.59386
 Alpha  occ. eigenvalues --   -0.58046  -0.57845  -0.57330  -0.56989  -0.56526
 Alpha  occ. eigenvalues --   -0.55996  -0.55672  -0.55294  -0.54709  -0.54291
 Alpha  occ. eigenvalues --   -0.53673  -0.53139  -0.52875  -0.52759  -0.52517
 Alpha  occ. eigenvalues --   -0.52232  -0.51952  -0.51428  -0.51105  -0.50933
 Alpha  occ. eigenvalues --   -0.50665  -0.50520  -0.50292  -0.49645  -0.49175
 Alpha  occ. eigenvalues --   -0.49070  -0.48725  -0.47965  -0.47752  -0.47460
 Alpha  occ. eigenvalues --   -0.47369  -0.46555  -0.46509  -0.46247  -0.46004
 Alpha  occ. eigenvalues --   -0.45643  -0.45569  -0.45219  -0.44977  -0.44905
 Alpha  occ. eigenvalues --   -0.44518  -0.44330  -0.43963  -0.43768  -0.43417
 Alpha  occ. eigenvalues --   -0.42806  -0.42481  -0.42021  -0.41100  -0.40843
 Alpha  occ. eigenvalues --   -0.40040  -0.39844  -0.39333  -0.38997  -0.37916
 Alpha  occ. eigenvalues --   -0.37666  -0.36596  -0.35560  -0.35371  -0.33753
 Alpha  occ. eigenvalues --   -0.33031  -0.32629  -0.32014  -0.31506  -0.25737
 Alpha  occ. eigenvalues --   -0.22850
 Alpha virt. eigenvalues --   -0.07000   0.00294   0.02470   0.04249   0.04638
 Alpha virt. eigenvalues --    0.07010   0.07798   0.08501   0.09978   0.11359
 Alpha virt. eigenvalues --    0.11667   0.12020   0.12753   0.13143   0.13736

 Mulliken charges:
               1
     1  Mg   0.948305
     2  C   -0.025672
     3  C   -0.065332
     4  C   -0.063930
     5  C   -0.102325
     6  N   -0.370959
     7  C   -0.015755
     8  C   -0.028318
     9  C   -0.134571
    10  C    0.098568
    11  C    0.020634
    12  C   -0.030062
    13  C   -0.123619
    14  H    0.053527
    15  N   -0.508246
    16  C    0.144352
    17  C   -0.142040
    18  C   -0.082449
    19  C    0.113033
    20  C    0.032960
    21  C    0.056446
    22  O   -0.199122
    23  C   -0.017909
    24  N   -0.306679
    25  C    0.065557
    26  C   -0.068862
    27  C   -0.047971
    28  C    0.007342
    29  C    0.036432
    30  C   -0.047576
    31  C   -0.031039
    32  N   -0.393293
    33  C    0.166156
    34  C   -0.184890
    35  C   -0.031403
    36  C    0.106005
    37  C    0.061929
    38  C    0.130827
    39  O   -0.210228
    40  C   -0.060581
    41  C    0.252661
    42  O   -0.228629
    43  O   -0.379415
    44  C    0.117923
    45  H   -0.017342
    46  H    0.026213
    47  H   -0.005165
    48  H    0.048798
    49  H    0.042232
    50  H    0.042698
    51  H    0.050112
    52  H    0.032134
    53  H    0.030186
    54  H    0.046346
    55  H    0.034872
    56  H    0.055838
    57  H    0.037187
    58  H    0.055389
    59  H    0.058290
    60  H    0.064540
    61  H    0.073660
    62  H    0.037379
    63  H    0.039937
    64  H    0.035228
    65  H    0.044178
    66  H    0.034850
    67  H    0.041320
    68  H    0.023719
    69  H    0.022421
    70  H    0.035744
    71  H    0.033338
    72  H    0.037191
    73  H    0.045456
    74  H    0.051373
    75  H    0.052637
    76  H    0.070906
    77  H    0.051488
    78  H    0.068781
    79  H    0.086288
 Sum of Mulliken charges =  -0.00000

 Dipole moment (field-independent basis, Debye):
    X=             -2.4044    Y=             -4.1754    Z=              2.5638  Tot=              5.4578
 Quadrupole moment (field-independent basis, Debye-Ang):
   XX=           -267.8765   YY=           -224.3378   ZZ=           -258.4039
   XY=            -22.3216   XZ=             -0.7808   YZ=             -0.1480

 Normal termination of Gaussian 16 at Sun Sep 19 02:42:47 2021.
