 Gaussian 16, Revision A.03,
 Gaussian 16:  ES64L-G16RevA.03 25-Dec-2016

 --------------------------------
 #p wB97XD/Def2SVP td=(nstates=5)
 --------------------------------

 --------------------------------
 TDDFT excited states in gaussian
 --------------------------------
 Symbolic Z-matrix:
 Charge =  0 Multiplicity = 1

                         Standard orientation:
 ---------------------------------------------------------------------
 Center     Atomic      Atomic             Coordinates (Angstroms)
 Number     Number       Type             X           Y           Z
 ---------------------------------------------------------------------
      1         12           0      -11.370701    0.703981   -0.059063
      2          6           0       -9.884106   -2.360874   -0.539238
      3          6           0      -12.946065   -0.386002    2.779524
      4          6           0      -12.714397    3.888039    0.513357
      5          6           0       -9.217523    2.131024   -2.351131
      6          7           0      -11.185665   -1.140751    1.065220
      7          6           0      -10.672793   -2.364630    0.626846
      8          6           0      -10.879170   -3.464422    1.671423
      9          6           0      -11.972172   -2.788692    2.537885
     10          6           0      -12.005179   -1.289111    2.178311
     11          6           0      -13.332768   -3.516486    2.473241
     12          6           0       -9.583138   -3.790549    2.439734
     13          6           0       -9.285844   -5.305055    2.714745
     14          1           0       -8.544721   -5.609534    3.957707
     15          7           0      -12.665007    1.571508    1.381377
     16          6           0      -13.276252    0.944396    2.412363
     17          6           0      -14.300125    1.739046    3.021974
     18          6           0      -14.356600    2.942651    2.300200
     19          6           0      -13.212857    2.837579    1.302332
     20          6           0      -15.236007    1.244000    4.126547
     21          6           0      -15.339095    4.146180    2.537833
     22          8           0      -16.121078    4.093863    3.521433
     23          6           0      -15.462619    5.391600    1.558394
     24          7           0      -10.806745    2.780973   -0.602059
     25          6           0      -11.600164    3.851375   -0.354198
     26          6           0      -11.214001    5.067348   -1.156589
     27          6           0      -10.064632    4.548583   -2.047439
     28          6           0      -10.038058    3.060297   -1.690110
     29          6           0      -12.396540    5.747359   -1.923158
     30          6           0       -8.698104    5.364020   -1.856825
     31          6           0       -8.360369    6.323596   -3.003768
     32          7           0       -9.891972    0.052142   -1.266190
     33          6           0       -9.079711    0.722791   -2.206947
     34          6           0       -8.341163   -0.267367   -3.001727
     35          6           0       -8.700382   -1.473223   -2.415883
     36          6           0       -9.525341   -1.189236   -1.315121
     37          6           0       -7.402189   -0.077143   -4.138734
     38          6           0       -8.476966   -2.924502   -2.481940
     39          8           0       -7.962615   -3.643375   -3.354474
     40          6           0       -9.278732   -3.572550   -1.282899
     41          6           0      -10.346435   -4.535216   -1.785084
     42          8           0      -11.146841   -4.358687   -2.708974
     43          8           0      -10.154618   -5.648095   -1.021413
     44          6           0      -10.922346   -6.826508   -1.387576
     45          1           0      -13.458595   -0.723312    3.682744
     46          1           0      -13.116719    4.903052    0.534601
     47          1           0       -8.517281    2.515861   -3.095224
     48          1           0      -11.209255   -4.379185    1.178009
     49          1           0      -11.590221   -2.902243    3.552393
     50          1           0      -13.369339   -4.560368    2.161748
     51          1           0      -13.906699   -2.991361    1.709879
     52          1           0      -13.861024   -3.487792    3.425961
     53          1           0       -9.492713   -3.234822    3.372661
     54          1           0       -8.790039   -3.314396    1.862713
     55          1           0       -8.724049   -5.712770    1.874399
     56          1           0      -10.237034   -5.827540    2.825658
     57          1           0      -16.244321    1.374661    3.734347
     58          1           0      -14.951894    1.694044    5.077856
     59          1           0      -15.063639    0.168372    4.163105
     60          1           0      -14.684159    6.090680    1.861730
     61          1           0      -16.444701    5.825731    1.744405
     62          1           0      -15.508493    4.981376    0.549213
     63          1           0      -10.832287    5.817627   -0.464026
     64          1           0      -10.275292    4.469898   -3.113734
     65          1           0      -12.123684    5.986404   -2.950656
     66          1           0      -12.730008    6.669300   -1.447142
     67          1           0      -13.272163    5.101806   -1.868902
     68          1           0       -7.826863    4.711023   -1.807150
     69          1           0       -8.702183    5.879111   -0.896281
     70          1           0       -7.931759    7.241179   -2.600347
     71          1           0       -9.266431    6.566919   -3.558279
     72          1           0       -7.655596    5.916199   -3.728394
     73          1           0       -7.411268    0.982432   -4.394388
     74          1           0       -7.586544   -0.831736   -4.903649
     75          1           0       -6.403749   -0.232047   -3.728401
     76          1           0       -8.625113   -4.073692   -0.568443
     77          1           0      -11.971116   -6.620982   -1.605650
     78          1           0      -10.911395   -7.662661   -0.688440
     79          1           0      -10.496805   -7.276737   -2.284775
     80         12           0       11.646529    0.554700    0.393485
     81          6           0        9.098234   -2.020968   -0.434546
     82          6           0       11.653000    1.144457   -2.934587
     83          6           0       14.012301    2.513512    1.176941
     84          6           0       11.838105   -1.007104    3.586913
     85          7           0       10.538656   -0.384857   -1.432530
     86          6           0        9.458537   -1.249822   -1.481022
     87          6           0        8.760957   -1.324311   -2.844054
     88          6           0        9.874226   -0.662987   -3.713897
     89          6           0       10.775151    0.090650   -2.660629
     90          6           0       10.677708   -1.609630   -4.548877
     91          6           0        7.336337   -0.684725   -2.954931
     92          6           0        6.372996   -1.279549   -3.926980
     93          1           0        5.469714   -0.281191   -4.644040
     94          7           0       12.702078    1.752881   -0.735171
     95          6           0       12.537343    1.928566   -2.125069
     96          6           0       13.352788    3.039680   -2.522989
     97          6           0       13.916711    3.527334   -1.264875
     98          6           0       13.542453    2.603060   -0.256174
     99          6           0       13.407819    3.648211   -3.972992
    100          6           0       14.740568    4.769081   -1.111108
    101          8           0       15.248528    5.099681   -0.011979
    102          6           0       14.980331    5.728921   -2.218725
    103          7           0       12.896274    0.666182    2.041434
    104          6           0       13.830727    1.611914    2.156919
    105          6           0       14.574699    1.603424    3.530782
    106          6           0       13.524939    0.778042    4.364276
    107          6           0       12.707429    0.047606    3.263970
    108          6           0       15.953050    0.871442    3.452354
    109          6           0       12.570180    1.709627    5.222934
    110          6           0       13.187253    2.747958    6.183396
    111          7           0       10.659627   -1.122431    1.415089
    112          6           0       10.822750   -1.558580    2.725012
    113          6           0        9.967042   -2.696469    2.967272
    114          6           0        9.252708   -2.884260    1.777119
    115          6           0        9.759008   -1.963184    0.819384
    116          6           0        9.771979   -3.410683    4.262333
    117          6           0        8.220102   -3.697567    1.148503
    118          8           0        7.490898   -4.598326    1.542012
    119          6           0        8.060262   -3.039747   -0.318849
    120          6           0        8.147254   -4.147528   -1.254780
    121          8           0        9.122329   -4.892978   -1.438660
    122          8           0        6.873452   -4.518412   -1.577879
    123          6           0        6.667331   -5.636710   -2.441235
    124          1           0       11.497081    1.382166   -3.989098
    125          1           0       14.824437    3.172450    1.490498
    126          1           0       11.930955   -1.433093    4.588479
    127          1           0        8.687768   -2.379529   -3.108085
    128          1           0        9.460146    0.146902   -4.313766
    129          1           0       11.657553   -1.693752   -4.078802
    130          1           0       10.841986   -1.179000   -5.536533
    131          1           0       10.286983   -2.618892   -4.677086
    132          1           0        7.479167    0.343728   -3.285344
    133          1           0        6.921344   -0.644263   -1.948191
    134          1           0        5.759267   -1.932964   -3.307234
    135          1           0        6.837886   -2.019594   -4.578517
    136          1           0       12.896135    4.601441   -4.102440
    137          1           0       13.070257    2.928978   -4.718741
    138          1           0       14.483370    3.765140   -4.111414
    139          1           0       15.716351    5.292788   -2.894609
    140          1           0       15.379146    6.627041   -1.746316
    141          1           0       14.006251    5.943980   -2.656807
    142          1           0       14.693489    2.650937    3.809784
    143          1           0       13.939408    0.016632    5.024315
    144          1           0       16.715457    1.636398    3.601691
    145          1           0       16.132943    0.289778    2.548831
    146          1           0       15.904222    0.224982    4.329749
    147          1           0       11.972843    1.077146    5.879205
    148          1           0       11.869790    2.154016    4.515999
    149          1           0       12.793994    3.705325    5.841827
    150          1           0       14.256570    2.696662    5.976384
    151          1           0       12.903890    2.579280    7.222207
    152          1           0       10.231562   -2.754720    5.002012
    153          1           0       10.324899   -4.345937    4.175157
    154          1           0        8.734483   -3.665405    4.478638
    155          1           0        7.092526   -2.543866   -0.392050
    156          1           0        7.610584   -6.063574   -2.782772
    157          1           0        6.151850   -5.229332   -3.311050
    158          1           0        5.979141   -6.356087   -1.999685
 ---------------------------------------------------------------------

 SCF Done:  E(RwB97XD) =  -4070.62344773     A.U. after   19 cycles

 Excitation energies and oscillator strengths:

 Excited State   1:      Singlet-A      1.6009 eV  774.46 nm  f=0.3869  <S**2>=0.000
     310 -> 316        0.16170
     311 -> 313        0.68931
     310 <- 316        0.11298
 This state for optimization and/or second-order correction.
 Total Energy, E(TD-HF/TD-DFT) =  -4070.56461545
 Copying the excited state density for this state as the 1-particle RhoCI density.

 Excited State   2:      Singlet-A      1.6653 eV  744.50 nm  f=0.3599  <S**2>=0.000
     309 -> 315        0.17860
     312 -> 314        0.68379
     309 <- 315        0.11330

 Excited State   3:      Singlet-A      2.1247 eV  583.53 nm  f=0.2110  <S**2>=0.000
     310 -> 313        0.66538
     311 -> 316       -0.22062

 Excited State   4:      Singlet-A      2.1964 eV  564.48 nm  f=0.0911  <S**2>=0.000
     309 -> 314        0.62331
     312 -> 315       -0.31689

 Excited State   5:      Singlet-A      3.4195 eV  362.58 nm  f=0.0000  <S**2>=0.000
     312 -> 313        0.70704

 The electronic state is 1-A.
 Alpha  occ. eigenvalues --  -46.95548 -46.95208 -19.31582 -19.29985 -19.25218
 Alpha  occ. eigenvalues --  -19.24954 -19.24812 -19.24343 -19.23489 -19.22423
 Alpha  occ. eigenvalues --  -14.47046 -14.46904 -14.46781 -14.45973 -14.44888
 Alpha  occ. eigenvalues --  -14.44248 -14.44166 -14.43691 -10.43816 -10.42960
 Alpha  occ. eigenvalues --  -10.40782 -10.40012 -10.38770 -10.37904 -10.36341
 Alpha  occ. eigenvalues --  -10.35784 -10.35764 -10.35432 -10.35263 -10.35127
 Alpha  occ. eigenvalues --  -10.34769 -10.34759 -10.34741 -10.34663 -10.34543
 Alpha  occ. eigenvalues --  -10.34454 -10.34450 -10.34418 -10.33816 -10.33660
 Alpha  occ. eigenvalues --  -10.33179 -10.33086 -10.32845 -10.32753 -10.32729
 Alpha  occ. eigenvalues --  -10.32575 -10.32418 -10.32348 -10.32238 -10.32229
 Alpha  occ. eigenvalues --  -10.32162 -10.32152 -10.32143 -10.32094 -10.32013
 Alpha  occ. eigenvalues --  -10.32009 -10.32001 -10.31984 -10.31968 -10.31808
 Alpha  occ. eigenvalues --  -10.31778 -10.31729 -10.31683 -10.31507 -10.31427
 Alpha  occ. eigenvalues --  -10.31412 -10.31386 -10.31023 -10.30941 -10.30872
 Alpha  occ. eigenvalues --  -10.30743 -10.30661 -10.30508 -10.30308 -10.30277
 Alpha  occ. eigenvalues --  -10.30059 -10.29944 -10.29827 -10.29764 -10.29609
 Alpha  occ. eigenvalues --  -10.29604 -10.29592 -10.29516 -10.29423 -10.29362
 Alpha  occ. eigenvalues --  -10.28587  -3.21525  -3.21310  -1.95080  -1.94869
 Alpha  occ. eigenvalues --   -1.94634  -1.94522  -1.94432  -1.94297  -1.19023
 Alpha  occ. eigenvalues --   -1.18673  -1.12472  -1.10927  -1.10556  -1.09961
 Alpha  occ. eigenvalues --   -1.09615  -1.09168  -1.06899  -1.06694  -1.06047
 Alpha  occ. eigenvalues --   -1.06023  -1.05638  -1.05611  -1.04565  -1.04187
 Alpha  occ. eigenvalues --   -0.95673  -0.93374  -0.91371  -0.90836  -0.90747
 Alpha  occ. eigenvalues --   -0.90655  -0.90571  -0.89929  -0.89363  -0.89208
 Alpha  occ. eigenvalues --   -0.88980  -0.88760  -0.88409  -0.88151  -0.86590
 Alpha  occ. eigenvalues --   -0.86250  -0.85935  -0.85796  -0.84997  -0.84423
 Alpha  occ. eigenvalues --   -0.83990  -0.83588  -0.83104  -0.82995  -0.82759
 Alpha  occ. eigenvalues --   -0.82153  -0.80484  -0.79892  -0.79455  -0.79380
 Alpha  occ. eigenvalues --   -0.79181  -0.78704  -0.78130  -0.77822  -0.77353
 Alpha  occ. eigenvalues --   -0.77261  -0.75331  -0.74714  -0.73736  -0.72868
 Alpha  occ. eigenvalues --   -0.71186  -0.71148  -0.70935  -0.70559  -0.70133
 Alpha  occ. eigenvalues --   -0.69840  -0.69298  -0.68883  -0.68073  -0.67613
 Alpha  occ. eigenvalues --   -0.67089  -0.67060  -0.66986  -0.66863  -0.66587
 Alpha  occ. eigenvalues --   -0.66429  -0.64679  -0.63999  -0.62710  -0.61932
 Alpha  occ. eigenvalues --   -0.61752  -0.61626  -0.61458  -0.60960  -0.60798
 Alpha  occ. eigenvalues --   -0.60622  -0.60356  -0.59713  -0.59669  -0.59233
 Alpha  occ. eigenvalues --   -0.58015  -0.57814  -0.57741  -0.57567  -0.57249
 Alpha  occ. eigenvalues --   -0.56977  -0.56814  -0.56581  -0.56078  -0.55738
 Alpha  occ. eigenvalues --   -0.55622  -0.55335  -0.55142  -0.55130  -0.54786
 Alpha  occ. eigenvalues --   -0.54741  -0.54559  -0.54429  -0.54308  -0.53943
 Alpha  occ. eigenvalues --   -0.53665  -0.53540  -0.53318  -0.53301  -0.53187
 Alpha  occ. eigenvalues --   -0.53149  -0.53054  -0.52909  -0.52804  -0.52195
 Alpha  occ. eigenvalues --   -0.51891  -0.51800  -0.51784  -0.51616  -0.51409
 Alpha  occ. eigenvalues --   -0.51396  -0.51258  -0.51130  -0.51043  -0.50620
 Alpha  occ. eigenvalues --   -0.50451  -0.50263  -0.50213  -0.50101  -0.50043
 Alpha  occ. eigenvalues --   -0.49763  -0.49757  -0.49705  -0.49492  -0.49425
 Alpha  occ. eigenvalues --   -0.49147  -0.49141  -0.48840  -0.48522  -0.48411
 Alpha  occ. eigenvalues --   -0.48321  -0.48309  -0.48113  -0.47997  -0.47861
 Alpha  occ. eigenvalues --   -0.47472  -0.47332  -0.47170  -0.47008  -0.46874
 Alpha  occ. eigenvalues --   -0.46759  -0.46698  -0.46363  -0.46273  -0.46086
 Alpha  occ. eigenvalues --   -0.45885  -0.45721  -0.45671  -0.45633  -0.45472
 Alpha  occ. eigenvalues --   -0.45226  -0.45149  -0.45030  -0.44951  -0.44735
 Alpha  occ. eigenvalues --   -0.44562  -0.44530  -0.44395  -0.44117  -0.44007
 Alpha  occ. eigenvalues --   -0.43912  -0.43875  -0.43541  -0.43498  -0.43201
 Alpha  occ. eigenvalues --   -0.43095  -0.42744  -0.42634  -0.42565  -0.42528
 Alpha  occ. eigenvalues --   -0.41715  -0.41631  -0.41337  -0.41296  -0.41186
 Alpha  occ. eigenvalues --   -0.40679  -0.40454  -0.40302  -0.40120  -0.40085
 Alpha  occ. eigenvalues --   -0.39657  -0.39428  -0.39193  -0.38928  -0.38406
 Alpha  occ. eigenvalues --   -0.38373  -0.37793  -0.36867  -0.36790  -0.36593
 Alpha  occ. eigenvalues --   -0.36218  -0.35366  -0.35299  -0.33765  -0.33751
 Alpha  occ. eigenvalues --   -0.33401  -0.33326  -0.32713  -0.32423  -0.32219
 Alpha  occ. eigenvalues --   -0.32043  -0.31963  -0.31748  -0.26153  -0.26146
 Alpha  occ. eigenvalues --   -0.23520  -0.22924
 Alpha virt. eigenvalues --   -0.07995  -0.06936  -0.00143   0.01170   0.02222
 Alpha virt. eigenvalues --    0.02389   0.04043   0.04308   0.04795   0.04966
 Alpha virt. eigenvalues --    0.06155   0.07143   0.07396   0.07706   0.08337

 Mulliken charges:
               1
     1  Mg   0.973709
     2  C   -0.080600
     3  C   -0.110040
     4  C   -0.086251
     5  C   -0.082994
     6  N   -0.404149
     7  C   -0.008373
     8  C   -0.052679
     9  C   -0.092084
    10  C    0.126043
    11  C    0.013982
    12  C    0.023028
    13  C   -0.127788
    14  H    0.043972
    15  N   -0.430268
    16  C    0.153010
    17  C   -0.190522
    18  C   -0.078548
    19  C    0.194586
    20  C    0.116405
    21  C    0.044389
    22  O   -0.256194
    23  C   -0.009199
    24  N   -0.325179
    25  C    0.023126
    26  C   -0.076400
    27  C   -0.052185
    28  C    0.038287
    29  C    0.010473
    30  C   -0.007555
    31  C   -0.058049
    32  N   -0.441008
    33  C    0.101411
    34  C   -0.206527
    35  C   -0.044015
    36  C    0.153288
    37  C    0.107346
    38  C    0.155637
    39  O   -0.229779
    40  C   -0.060042
    41  C    0.289178
    42  O   -0.247520
    43  O   -0.356373
    44  C    0.133477
    45  H    0.007903
    46  H   -0.019779
    47  H   -0.011329
    48  H    0.025036
    49  H    0.032803
    50  H    0.036913
    51  H    0.034774
    52  H    0.038452
    53  H    0.030712
    54  H    0.030172
    55  H    0.066530
    56  H    0.049567
    57  H    0.065612
    58  H    0.072164
    59  H    0.012187
    60  H    0.080651
    61  H    0.058300
    62  H    0.060653
    63  H    0.046698
    64  H    0.033986
    65  H    0.046793
    66  H    0.033560
    67  H    0.037784
    68  H    0.032886
    69  H    0.028787
    70  H    0.039003
    71  H    0.028644
    72  H    0.040946
    73  H    0.021040
    74  H    0.075302
    75  H    0.050356
    76  H    0.064663
    77  H    0.055217
    78  H    0.052334
    79  H    0.053654
    80  Mg   0.983154
    81  C   -0.013675
    82  C   -0.065967
    83  C   -0.042949
    84  C   -0.083109
    85  N   -0.296694
    86  C   -0.036524
    87  C   -0.083960
    88  C   -0.102283
    89  C   -0.016788
    90  C    0.047895
    91  C    0.043098
    92  C   -0.116624
    93  H    0.053985
    94  N   -0.496821
    95  C    0.190286
    96  C   -0.170736
    97  C   -0.082147
    98  C    0.147932
    99  C    0.071654
   100  C    0.008689
   101  O   -0.275049
   102  C    0.009761
   103  N   -0.391731
   104  C    0.045111
   105  C   -0.110455
   106  C   -0.102416
   107  C    0.088960
   108  C    0.051804
   109  C   -0.033932
   110  C   -0.032709
   111  N   -0.399729
   112  C    0.123211
   113  C   -0.202583
   114  C   -0.039948
   115  C    0.129259
   116  C    0.087828
   117  C    0.156476
   118  O   -0.192019
   119  C   -0.060111
   120  C    0.245589
   121  O   -0.268844
   122  O   -0.350298
   123  C    0.133534
   124  H   -0.007717
   125  H    0.013547
   126  H    0.004945
   127  H    0.033463
   128  H    0.025405
   129  H    0.044401
   130  H    0.034229
   131  H    0.048552
   132  H    0.031844
   133  H    0.031284
   134  H    0.048332
   135  H    0.043026
   136  H    0.067910
   137  H    0.040328
   138  H    0.043029
   139  H    0.063982
   140  H    0.054986
   141  H    0.045497
   142  H    0.047025
   143  H    0.025382
   144  H    0.046300
   145  H    0.060269
   146  H    0.027917
   147  H    0.024645
   148  H    0.033414
   149  H    0.042490
   150  H    0.036210
   151  H    0.048543
   152  H    0.031105
   153  H    0.060024
   154  H    0.065083
   155  H    0.072148
   156  H    0.065950
   157  H    0.034089
   158  H    0.062236
 Sum of Mulliken charges =  -0.00000

 Dipole moment (field-independent basis, Debye):
    X=             -1.9972    Y=              4.6017    Z=             -0.8658  Tot=              5.0906
 Quadrupole moment (field-independent basis, Debye-Ang):
   XX=           -536.9584   YY=           -502.0283   ZZ=           -490.8851
   XY=             10.1698   XZ=            -10.8273   YZ=            -37.3250

 Normal termination of Gaussian 16 at Mon Sep 20 15:39:03 2021.
