 Gaussian 16, Revision A.03,
 Gaussian 16:  ES64L-G16RevA.03 25-Dec-2016

 --------------------------------
 #p wB97XD/Def2SVP td=(nstates=5)
 --------------------------------

 --------------------------------
 TDDFT excited states in gaussian
 --------------------------------
 Symbolic Z-matrix:
 Charge =  0 Multiplicity = 1

                         Standard orientation:
 ---------------------------------------------------------------------
 Center     Atomic      Atomic             Coordinates (Angstroms)
 Number     Number       Type             X           Y           Z
 ---------------------------------------------------------------------
      1         12           0       20.539654   -0.536383    0.047336
      2          6           0       19.489338    2.826101    0.713298
      3          6           0       20.681584    0.298308   -3.295519
      4          6           0       20.876632   -3.725323   -0.579012
      5          6           0       20.108453   -1.166463    3.427794
      6          7           0       19.845452    1.335987   -1.216628
      7          6           0       19.586644    2.558418   -0.658238
      8          6           0       19.650481    3.653174   -1.756798
      9          6           0       19.976845    2.836502   -3.076587
     10          6           0       20.171825    1.367026   -2.552575
     11          6           0       18.907616    2.862484   -4.248453
     12          6           0       20.692713    4.776425   -1.510081
     13          6           0       20.268592    6.181481   -1.750907
     14          1           0       19.019116    6.575320   -2.627771
     15          7           0       20.748674   -1.633813   -1.732400
     16          6           0       20.924351   -1.121480   -3.017565
     17          6           0       21.062708   -2.245795   -3.963012
     18          6           0       21.235016   -3.423766   -3.139173
     19          6           0       20.946509   -2.966984   -1.759829
     20          6           0       21.101991   -2.142026   -5.457637
     21          6           0       21.591475   -4.881700   -3.513615
     22          8           0       22.011005   -5.744320   -2.713507
     23          6           0       21.597761   -5.233371   -4.946920
     24          7           0       20.435773   -2.142981    1.228528
     25          6           0       20.551978   -3.400671    0.678561
     26          6           0       20.695614   -4.484677    1.782524
     27          6           0       20.816592   -3.571459    3.081866
     28          6           0       20.446674   -2.193347    2.561389
     29          6           0       19.572540   -5.595127    1.891507
     30          6           0       22.164037   -3.545280    3.785821
     31          6           0       22.186226   -4.144810    5.207489
     32          7           0       20.116408    0.603948    1.776313
     33          6           0       19.946412    0.195538    3.078020
     34          6           0       19.527859    1.331389    3.909843
     35          6           0       19.402311    2.375875    3.011143
     36          6           0       19.764660    1.895384    1.732969
     37          6           0       19.218587    1.366787    5.370119
     38          6           0       19.082312    3.757061    2.959856
     39          8           0       18.845847    4.607075    3.864888
     40          6           0       19.114667    4.102147    1.531347
     41          6           0       17.824834    4.764058    1.128100
     42          8           0       16.776202    4.223187    1.036103
     43          8           0       18.047365    6.041433    0.819456
     44          6           0       16.946068    6.936786    0.709950
     45          1           0       20.740823    0.472906   -4.371988
     46          1           0       21.020009   -4.807480   -0.629953
     47          1           0       19.900256   -1.393357    4.474694
     48          1           0       18.654053    4.095095   -1.792990
     49          1           0       20.925490    3.171733   -3.494785
     50          1           0       18.088960    3.569609   -4.117711
     51          1           0       18.429231    1.882019   -4.256277
     52          1           0       19.399574    3.014848   -5.209590
     53          1           0       21.580723    4.674991   -2.135073
     54          1           0       21.048400    4.802491   -0.480479
     55          1           0       21.055577    6.716278   -2.283509
     56          1           0       20.131856    6.647961   -0.775697
     57          1           0       20.341091   -2.794525   -5.885311
     58          1           0       22.084527   -2.502488   -5.762268
     59          1           0       21.104749   -1.102764   -5.787936
     60          1           0       20.579833   -5.113031   -5.317784
     61          1           0       21.825149   -6.298597   -4.980129
     62          1           0       22.394005   -4.725538   -5.490485
     63          1           0       21.663459   -4.953362    1.601606
     64          1           0       20.077586   -3.940627    3.792912
     65          1           0       18.815906   -5.439417    1.123340
     66          1           0       19.159278   -5.689538    2.896431
     67          1           0       20.059940   -6.558268    1.739335
     68          1           0       22.699827   -2.595963    3.780821
     69          1           0       22.827709   -4.189216    3.209732
     70          1           0       22.733076   -3.589907    5.969551
     71          1           0       22.815616   -5.033794    5.158503
     72          1           0       21.210291   -4.350866    5.644949
     73          1           0       19.623703    0.507672    5.905588
     74          1           0       18.148176    1.235573    5.527897
     75          1           0       19.494341    2.361909    5.718888
     76          1           0       19.941476    4.802248    1.414485
     77          1           0       16.611024    7.131235    1.729767
     78          1           0       16.095699    6.452397    0.229784
     79          1           0       17.253921    7.889372    0.277962
     80         12           0      -19.545012   -0.743704    0.326356
     81          6           0      -21.809383    1.909677    0.308518
     82          6           0      -17.276636    1.176975   -1.171087
     83          6           0      -18.037749   -3.604581   -0.782085
     84          6           0      -21.970248   -2.728639    1.847715
     85          7           0      -19.490985    1.387297   -0.210618
     86          6           0      -20.501642    2.241856   -0.108184
     87          6           0      -19.994008    3.680049   -0.487203
     88          6           0      -18.585497    3.387984   -1.057746
     89          6           0      -18.422092    1.887792   -0.832773
     90          6           0      -18.457726    3.631611   -2.642945
     91          6           0      -19.939445    4.722555    0.720080
     92          6           0      -20.417955    6.076274    0.320858
     93          1           0      -19.557852    7.294005    0.621848
     94          7           0      -17.872521   -1.137286   -0.798392
     95          6           0      -17.032814   -0.190181   -1.321920
     96          6           0      -15.796016   -0.851652   -1.760471
     97          6           0      -16.032591   -2.249670   -1.641748
     98          6           0      -17.394760   -2.366244   -1.095206
     99          6           0      -14.577221   -0.076295   -2.354944
    100          6           0      -15.110604   -3.432820   -2.064712
    101          8           0      -15.397826   -4.615595   -1.918432
    102          6           0      -13.791720   -3.108003   -2.657411
    103          7           0      -19.936232   -2.797226    0.465008
    104          6           0      -19.215433   -3.838928   -0.126627
    105          6           0      -19.995710   -5.169195    0.039138
    106          6           0      -20.835812   -4.923205    1.368253
    107          6           0      -20.893235   -3.377847    1.204898
    108          6           0      -20.803775   -5.561974   -1.216290
    109          6           0      -20.192755   -5.310988    2.669442
    110          6           0      -19.152601   -4.440229    3.309342
    111          7           0      -21.419386   -0.490022    1.155814
    112          6           0      -22.315037   -1.377598    1.705964
    113          6           0      -23.561979   -0.721692    2.106304
    114          6           0      -23.463584    0.599067    1.474796
    115          6           0      -22.130775    0.653169    0.908246
    116          6           0      -24.702618   -1.348414    2.727758
    117          6           0      -24.158792    1.849972    1.196883
    118          8           0      -25.258696    2.207749    1.396482
    119          6           0      -23.053723    2.789811    0.482980
    120          6           0      -23.537886    3.477730   -0.768384
    121          8           0      -23.418572    3.039640   -1.908785
    122          8           0      -24.049702    4.726714   -0.418050
    123          6           0      -24.553190    5.586807   -1.504256
    124          1           0      -16.362348    1.682601   -1.489831
    125          1           0      -17.511406   -4.473675   -1.183146
    126          1           0      -22.644566   -3.380721    2.406114
    127          1           0      -20.574468    4.120299   -1.298357
    128          1           0      -17.764001    3.968637   -0.638157
    129          1           0      -18.111360    4.656789   -2.775433
    130          1           0      -19.392848    3.578900   -3.199906
    131          1           0      -17.703507    2.943260   -3.026092
    132          1           0      -18.926537    4.840992    1.105265
    133          1           0      -20.496957    4.437906    1.612524
    134          1           0      -21.300472    6.216718    0.944390
    135          1           0      -20.740435    6.221118   -0.709842
    136          1           0      -14.752325   -0.034161   -3.429596
    137          1           0      -13.630667   -0.538720   -2.074087
    138          1           0      -14.592470    0.995758   -2.155686
    139          1           0      -13.670342   -2.294706   -3.372721
    140          1           0      -13.389438   -3.987918   -3.158814
    141          1           0      -13.042858   -3.075877   -1.865519
    142          1           0      -19.210669   -5.896323    0.244743
    143          1           0      -21.812836   -5.405025    1.335713
    144          1           0      -21.865569   -5.761195   -1.071230
    145          1           0      -20.316491   -6.319644   -1.830371
    146          1           0      -20.810551   -4.734132   -1.925108
    147          1           0      -19.705836   -6.285332    2.655165
    148          1           0      -20.986163   -5.417835    3.409304
    149          1           0      -19.744729   -3.855300    4.012921
    150          1           0      -18.654811   -3.728876    2.649978
    151          1           0      -18.424095   -5.068909    3.822359
    152          1           0      -25.116658   -0.601425    3.405260
    153          1           0      -24.327578   -2.189806    3.309901
    154          1           0      -25.441238   -1.618512    1.973692
    155          1           0      -22.795606    3.571835    1.197076
    156          1           0      -25.267317    4.991497   -2.073868
    157          1           0      -23.747809    5.865800   -2.183179
    158          1           0      -25.033983    6.534681   -1.261876
 ---------------------------------------------------------------------

 SCF Done:  E(RwB97XD) =  -4070.61312520     A.U. after   19 cycles

 Excitation energies and oscillator strengths:

 Excited State   1:      Singlet-A      1.6238 eV  763.53 nm  f=0.3774  <S**2>=0.000
     310 -> 316       -0.18262
     312 -> 314        0.68420
     310 <- 316       -0.11753
 This state for optimization and/or second-order correction.
 Total Energy, E(TD-HF/TD-DFT) =  -4070.55345077
 Copying the excited state density for this state as the 1-particle RhoCI density.

 Excited State   2:      Singlet-A      1.6708 eV  742.08 nm  f=0.4197  <S**2>=0.000
     309 -> 315        0.18117
     311 -> 313        0.68457
     309 <- 315        0.11414

 Excited State   3:      Singlet-A      2.1575 eV  574.65 nm  f=0.1246  <S**2>=0.000
     309 -> 313        0.64762
     311 -> 315       -0.26958

 Excited State   4:      Singlet-A      2.2000 eV  563.56 nm  f=0.1023  <S**2>=0.000
     310 -> 314        0.63111
     312 -> 316        0.30775

 Excited State   5:      Singlet-A      3.7918 eV  326.98 nm  f=0.0000  <S**2>=0.000
     312 -> 313        0.70710

 The electronic state is 1-A.
 Alpha  occ. eigenvalues --  -46.95276 -46.94251 -19.30274 -19.30260 -19.25038
 Alpha  occ. eigenvalues --  -19.24744 -19.24643 -19.24216 -19.24166 -19.23540
 Alpha  occ. eigenvalues --  -14.46747 -14.46681 -14.46246 -14.46011 -14.44361
 Alpha  occ. eigenvalues --  -14.44127 -14.43895 -14.43784 -10.43549 -10.42942
 Alpha  occ. eigenvalues --  -10.39578 -10.39538 -10.38891 -10.38821 -10.35804
 Alpha  occ. eigenvalues --  -10.35539 -10.35353 -10.35285 -10.35102 -10.34963
 Alpha  occ. eigenvalues --  -10.34703 -10.34602 -10.34548 -10.34146 -10.34009
 Alpha  occ. eigenvalues --  -10.33866 -10.33791 -10.33684 -10.33519 -10.33499
 Alpha  occ. eigenvalues --  -10.33409 -10.33364 -10.33020 -10.32897 -10.32834
 Alpha  occ. eigenvalues --  -10.32832 -10.32575 -10.32453 -10.32389 -10.32365
 Alpha  occ. eigenvalues --  -10.32344 -10.32334 -10.32327 -10.32219 -10.32196
 Alpha  occ. eigenvalues --  -10.31921 -10.31694 -10.31633 -10.31599 -10.31587
 Alpha  occ. eigenvalues --  -10.31453 -10.31275 -10.31132 -10.31103 -10.30888
 Alpha  occ. eigenvalues --  -10.30816 -10.30810 -10.30747 -10.30725 -10.30447
 Alpha  occ. eigenvalues --  -10.30175 -10.30174 -10.30145 -10.29966 -10.29784
 Alpha  occ. eigenvalues --  -10.29781 -10.29760 -10.29646 -10.29462 -10.29415
 Alpha  occ. eigenvalues --  -10.29367 -10.29357 -10.29342 -10.29301 -10.29183
 Alpha  occ. eigenvalues --  -10.28346  -3.21297  -3.20372  -1.94868  -1.94431
 Alpha  occ. eigenvalues --   -1.94266  -1.93968  -1.93474  -1.93375  -1.20863
 Alpha  occ. eigenvalues --   -1.17324  -1.15216  -1.12330  -1.11963  -1.10477
 Alpha  occ. eigenvalues --   -1.10407  -1.09655  -1.07156  -1.06940  -1.05833
 Alpha  occ. eigenvalues --   -1.05559  -1.04882  -1.04538  -1.04164  -1.03799
 Alpha  occ. eigenvalues --   -0.95669  -0.93843  -0.91060  -0.90878  -0.90454
 Alpha  occ. eigenvalues --   -0.90437  -0.90270  -0.89932  -0.89768  -0.89129
 Alpha  occ. eigenvalues --   -0.88806  -0.88795  -0.88236  -0.88199  -0.86551
 Alpha  occ. eigenvalues --   -0.86044  -0.85477  -0.85427  -0.84545  -0.84435
 Alpha  occ. eigenvalues --   -0.83989  -0.83750  -0.83682  -0.82941  -0.82504
 Alpha  occ. eigenvalues --   -0.82319  -0.80275  -0.80176  -0.79695  -0.79153
 Alpha  occ. eigenvalues --   -0.79119  -0.78667  -0.78303  -0.77748  -0.77147
 Alpha  occ. eigenvalues --   -0.76773  -0.75221  -0.74240  -0.73500  -0.73421
 Alpha  occ. eigenvalues --   -0.71411  -0.71127  -0.70962  -0.70495  -0.69669
 Alpha  occ. eigenvalues --   -0.69465  -0.68687  -0.68236  -0.67877  -0.67626
 Alpha  occ. eigenvalues --   -0.66898  -0.66853  -0.66602  -0.66496  -0.66229
 Alpha  occ. eigenvalues --   -0.66022  -0.65063  -0.63795  -0.62341  -0.62120
 Alpha  occ. eigenvalues --   -0.61912  -0.61533  -0.61333  -0.61169  -0.60864
 Alpha  occ. eigenvalues --   -0.60220  -0.60088  -0.59764  -0.59743  -0.59198
 Alpha  occ. eigenvalues --   -0.58462  -0.58115  -0.57777  -0.57468  -0.57287
 Alpha  occ. eigenvalues --   -0.57163  -0.56924  -0.56743  -0.56042  -0.55730
 Alpha  occ. eigenvalues --   -0.55508  -0.55363  -0.55298  -0.55256  -0.54948
 Alpha  occ. eigenvalues --   -0.54851  -0.54696  -0.54414  -0.54382  -0.54078
 Alpha  occ. eigenvalues --   -0.53686  -0.53674  -0.53537  -0.53527  -0.53444
 Alpha  occ. eigenvalues --   -0.53296  -0.53193  -0.53063  -0.52317  -0.52109
 Alpha  occ. eigenvalues --   -0.52057  -0.51997  -0.51974  -0.51817  -0.51537
 Alpha  occ. eigenvalues --   -0.51418  -0.51291  -0.51035  -0.51032  -0.50723
 Alpha  occ. eigenvalues --   -0.50565  -0.50511  -0.50238  -0.50215  -0.50173
 Alpha  occ. eigenvalues --   -0.49887  -0.49713  -0.49644  -0.49364  -0.48889
 Alpha  occ. eigenvalues --   -0.48878  -0.48759  -0.48730  -0.48497  -0.48195
 Alpha  occ. eigenvalues --   -0.48172  -0.48100  -0.48027  -0.48012  -0.47782
 Alpha  occ. eigenvalues --   -0.47734  -0.47408  -0.47212  -0.47119  -0.46857
 Alpha  occ. eigenvalues --   -0.46777  -0.46537  -0.46529  -0.46450  -0.46263
 Alpha  occ. eigenvalues --   -0.46082  -0.45652  -0.45641  -0.45386  -0.45246
 Alpha  occ. eigenvalues --   -0.45186  -0.44927  -0.44698  -0.44615  -0.44577
 Alpha  occ. eigenvalues --   -0.44544  -0.44163  -0.43863  -0.43772  -0.43574
 Alpha  occ. eigenvalues --   -0.43501  -0.43432  -0.43429  -0.43345  -0.43159
 Alpha  occ. eigenvalues --   -0.43070  -0.42918  -0.42366  -0.42206  -0.42102
 Alpha  occ. eigenvalues --   -0.42021  -0.41596  -0.41056  -0.41024  -0.40580
 Alpha  occ. eigenvalues --   -0.40107  -0.39944  -0.39871  -0.39588  -0.39123
 Alpha  occ. eigenvalues --   -0.38930  -0.38638  -0.38601  -0.38584  -0.38282
 Alpha  occ. eigenvalues --   -0.37826  -0.37788  -0.36697  -0.36412  -0.36264
 Alpha  occ. eigenvalues --   -0.36145  -0.35186  -0.35050  -0.33746  -0.33595
 Alpha  occ. eigenvalues --   -0.33386  -0.33263  -0.33115  -0.32891  -0.32628
 Alpha  occ. eigenvalues --   -0.32173  -0.31753  -0.31617  -0.26072  -0.25891
 Alpha  occ. eigenvalues --   -0.23139  -0.22571
 Alpha virt. eigenvalues --   -0.07310  -0.06797   0.00423   0.00552   0.01823
 Alpha virt. eigenvalues --    0.02498   0.04096   0.04554   0.05377   0.05926
 Alpha virt. eigenvalues --    0.06742   0.07787   0.08088   0.08322   0.08454

 Mulliken charges:
               1
     1  Mg   0.968489
     2  C   -0.020938
     3  C   -0.037327
     4  C   -0.068981
     5  C   -0.100353
     6  N   -0.318763
     7  C   -0.004852
     8  C   -0.025487
     9  C   -0.108455
    10  C    0.038742
    11  C    0.011082
    12  C    0.006894
    13  C   -0.131853
    14  H    0.014299
    15  N   -0.444954
    16  C    0.109736
    17  C   -0.188457
    18  C   -0.082149
    19  C    0.150611
    20  C    0.090716
    21  C    0.056726
    22  O   -0.260057
    23  C   -0.010040
    24  N   -0.428935
    25  C    0.096474
    26  C   -0.123028
    27  C   -0.081933
    28  C    0.106390
    29  C    0.027998
    30  C    0.012417
    31  C   -0.064930
    32  N   -0.411614
    33  C    0.113954
    34  C   -0.170911
    35  C   -0.051488
    36  C    0.143860
    37  C    0.088541
    38  C    0.114937
    39  O   -0.251382
    40  C   -0.028825
    41  C    0.225619
    42  O   -0.205828
    43  O   -0.332378
    44  C    0.138729
    45  H   -0.013838
    46  H    0.020141
    47  H   -0.001525
    48  H    0.046079
    49  H    0.041930
    50  H    0.041032
    51  H    0.040353
    52  H    0.039995
    53  H    0.033374
    54  H    0.031293
    55  H    0.045779
    56  H    0.057641
    57  H    0.058300
    58  H    0.041436
    59  H    0.035389
    60  H    0.054091
    61  H    0.046939
    62  H    0.066215
    63  H    0.046363
    64  H    0.023285
    65  H    0.051601
    66  H    0.034837
    67  H    0.038282
    68  H    0.040943
    69  H    0.022575
    70  H    0.029657
    71  H    0.032312
    72  H    0.037082
    73  H    0.030958
    74  H    0.058200
    75  H    0.072583
    76  H    0.069268
    77  H    0.047652
    78  H    0.056319
    79  H    0.061165
    80  Mg   0.983954
    81  C    0.016775
    82  C   -0.089884
    83  C   -0.082555
    84  C   -0.106019
    85  N   -0.316807
    86  C    0.009746
    87  C   -0.040700
    88  C   -0.128917
    89  C    0.104118
    90  C   -0.004734
    91  C    0.028275
    92  C   -0.147904
    93  H    0.026124
    94  N   -0.453149
    95  C    0.111684
    96  C   -0.155596
    97  C   -0.103369
    98  C    0.123793
    99  C    0.045605
   100  C    0.084755
   101  O   -0.233050
   102  C   -0.023392
   103  N   -0.364430
   104  C    0.051589
   105  C   -0.053255
   106  C   -0.059977
   107  C    0.046665
   108  C    0.044687
   109  C   -0.025433
   110  C   -0.034949
   111  N   -0.448164
   112  C    0.163619
   113  C   -0.168913
   114  C   -0.084432
   115  C    0.117381
   116  C    0.076993
   117  C    0.137636
   118  O   -0.142234
   119  C   -0.138990
   120  C    0.283395
   121  O   -0.249094
   122  O   -0.383367
   123  C    0.147040
   124  H   -0.013054
   125  H    0.021630
   126  H   -0.009715
   127  H    0.043025
   128  H    0.044068
   129  H    0.031217
   130  H    0.051220
   131  H    0.038059
   132  H    0.037920
   133  H    0.036943
   134  H    0.053897
   135  H    0.051447
   136  H    0.057711
   137  H    0.063656
   138  H    0.032734
   139  H    0.059333
   140  H    0.038683
   141  H    0.062623
   142  H    0.024387
   143  H    0.023861
   144  H    0.039131
   145  H    0.044476
   146  H    0.032096
   147  H    0.026715
   148  H    0.023435
   149  H    0.026959
   150  H    0.051706
   151  H    0.040174
   152  H    0.057364
   153  H    0.036663
   154  H    0.074588
   155  H    0.075985
   156  H    0.054230
   157  H    0.040551
   158  H    0.061764
 Sum of Mulliken charges =  -0.00000

 Dipole moment (field-independent basis, Debye):
    X=              5.0635    Y=              1.8786    Z=             -1.2376  Tot=              5.5407
 Quadrupole moment (field-independent basis, Debye-Ang):
   XX=           -562.0828   YY=           -498.2966   ZZ=           -485.1788
   XY=              6.9128   XZ=            -52.3686   YZ=            -42.9189

 Normal termination of Gaussian 16 at Mon Sep 20 08:33:37 2021.
