 Gaussian 16, Revision A.03,
 Gaussian 16:  ES64L-G16RevA.03 25-Dec-2016

 --------------------------------
 #p wB97XD/Def2SVP td=(nstates=5)
 --------------------------------

 --------------------------------
 TDDFT excited states in gaussian
 --------------------------------
 Symbolic Z-matrix:
 Charge =  0 Multiplicity = 1

                         Standard orientation:
 ---------------------------------------------------------------------
 Center     Atomic      Atomic             Coordinates (Angstroms)
 Number     Number       Type             X           Y           Z
 ---------------------------------------------------------------------
      1         12           0      -24.760467   -0.402422   -0.172652
      2          6           0      -23.470643    2.628281   -0.952338
      3          6           0      -25.086766    0.588665    3.140356
      4          6           0      -26.044751   -3.435996    0.608059
      5          6           0      -23.984870   -1.550317   -3.345006
      6          7           0      -24.419703    1.407886    0.847259
      7          6           0      -23.852092    2.545262    0.372303
      8          6           0      -23.922834    3.679923    1.360706
      9          6           0      -24.180156    2.946120    2.731410
     10          6           0      -24.624705    1.544957    2.197670
     11          6           0      -23.054207    2.914955    3.847667
     12          6           0      -25.128989    4.672047    1.037230
     13          6           0      -24.895319    6.101358    1.609336
     14          1           0      -24.019647    6.346740    2.849550
     15          7           0      -25.413937   -1.376766    1.647241
     16          6           0      -25.465677   -0.739004    2.914434
     17          6           0      -26.000288   -1.647617    3.883408
     18          6           0      -26.281571   -2.864722    3.166130
     19          6           0      -25.916224   -2.557515    1.737127
     20          6           0      -26.277050   -1.305227    5.305344
     21          6           0      -26.855596   -4.179563    3.681949
     22          8           0      -26.968783   -5.248609    3.013285
     23          6           0      -27.327792   -4.271461    5.123055
     24          7           0      -24.924146   -2.245521   -1.180267
     25          6           0      -25.674167   -3.326304   -0.713844
     26          6           0      -26.033107   -4.382761   -1.798431
     27          6           0      -25.354679   -3.655055   -3.089926
     28          6           0      -24.742757   -2.412826   -2.554096
     29          6           0      -25.396933   -5.726144   -1.418896
     30          6           0      -26.291638   -3.439784   -4.241747
     31          6           0      -25.808863   -4.046044   -5.528345
     32          7           0      -23.841719    0.227072   -1.782007
     33          6           0      -23.595836   -0.298357   -3.044440
     34          6           0      -22.928318    0.656428   -3.849271
     35          6           0      -22.793774    1.843994   -3.081003
     36          6           0      -23.455943    1.583980   -1.862618
     37          6           0      -22.469073    0.537948   -5.251759
     38          6           0      -22.198553    3.161675   -3.037841
     39          8           0      -21.500155    3.815410   -3.787728
     40          6           0      -22.714498    3.726248   -1.630153
     41          6           0      -21.671634    4.510336   -0.918230
     42          8           0      -20.508455    4.220429   -0.800838
     43          8           0      -22.130395    5.663420   -0.407205
     44          6           0      -21.107610    6.462840    0.325497
     45          1           0      -24.983874    0.936052    4.170620
     46          1           0      -26.334671   -4.446630    0.902764
     47          1           0      -23.809214   -1.794778   -4.394620
     48          1           0      -22.960431    4.172359    1.498928
     49          1           0      -25.079469    3.367450    3.179502
     50          1           0      -22.236511    3.545529    3.498401
     51          1           0      -22.654640    1.943971    4.135984
     52          1           0      -23.513178    3.298242    4.759203
     53          1           0      -26.003105    4.174663    1.457872
     54          1           0      -25.219550    4.724460   -0.047805
     55          1           0      -25.913402    6.439156    1.803852
     56          1           0      -24.567737    6.712836    0.768987
     57          1           0      -27.215886   -0.784528    5.494180
     58          1           0      -25.418276   -0.719552    5.630951
     59          1           0      -26.164935   -2.153131    5.980407
     60          1           0      -26.435650   -4.473231    5.715712
     61          1           0      -27.981879   -5.142736    5.146488
     62          1           0      -27.802296   -3.362948    5.494352
     63          1           0      -27.116627   -4.495495   -1.759427
     64          1           0      -24.556380   -4.296178   -3.465321
     65          1           0      -24.705298   -5.704747   -0.576447
     66          1           0      -24.987223   -6.187828   -2.316963
     67          1           0      -26.216133   -6.348163   -1.057039
     68          1           0      -26.430315   -2.388131   -4.492882
     69          1           0      -27.305758   -3.804510   -4.078050
     70          1           0      -26.569758   -4.640048   -6.033797
     71          1           0      -24.956275   -4.703942   -5.362027
     72          1           0      -25.418689   -3.197219   -6.090684
     73          1           0      -22.169627   -0.459372   -5.575287
     74          1           0      -21.488039    1.013404   -5.230656
     75          1           0      -23.211175    0.967872   -5.924563
     76          1           0      -23.434109    4.437062   -2.037400
     77          1           0      -20.439750    6.995334   -0.353130
     78          1           0      -20.604805    5.875599    1.094077
     79          1           0      -21.625813    7.237854    0.890758
     80         12           0       23.887450   -0.770816   -0.049616
     81          6           0       25.323714    2.349342   -0.607259
     82          6           0       22.511002    0.355563    2.811867
     83          6           0       22.921988   -3.939578    0.622923
     84          6           0       25.720190   -1.968049   -2.713727
     85          7           0       23.952793    1.186817    0.987092
     86          6           0       24.426845    2.361313    0.460417
     87          6           0       24.093605    3.497663    1.350568
     88          6           0       23.244961    2.923104    2.490766
     89          6           0       23.179946    1.379912    2.116237
     90          6           0       23.659134    3.198003    3.928056
     91          6           0       23.371271    4.708762    0.527420
     92          6           0       24.090411    6.077431    0.484505
     93          1           0       23.311331    7.364867    0.596062
     94          7           0       22.761654   -1.646574    1.430879
     95          6           0       22.280808   -1.012419    2.566606
     96          6           0       21.614675   -1.954152    3.390770
     97          6           0       21.721656   -3.231054    2.775891
     98          6           0       22.475621   -2.971775    1.545062
     99          6           0       20.838205   -1.422654    4.658463
    100          6           0       21.213523   -4.542516    3.372331
    101          8           0       21.374312   -5.667373    2.875083
    102          6           0       20.397158   -4.516352    4.589043
    103          7           0       24.433481   -2.764770   -0.746576
    104          6           0       23.828906   -3.883572   -0.404205
    105          6           0       24.439129   -5.092843   -1.148124
    106          6           0       24.896418   -4.325760   -2.450927
    107          6           0       25.009925   -2.887185   -1.956486
    108          6           0       25.642169   -5.895074   -0.527327
    109          6           0       23.942479   -4.439006   -3.734907
    110          6           0       22.552580   -3.964246   -3.613041
    111          7           0       25.338876   -0.035018   -1.452284
    112          6           0       26.007000   -0.658992   -2.524040
    113          6           0       26.851266    0.292579   -3.173273
    114          6           0       26.686061    1.454216   -2.445580
    115          6           0       25.665021    1.226662   -1.465630
    116          6           0       27.868405    0.005877   -4.166208
    117          6           0       26.958958    2.813958   -2.452412
    118          8           0       27.690174    3.502131   -3.171981
    119          6           0       26.187990    3.472596   -1.219216
    120          6           0       27.252750    3.854293   -0.244716
    121          8           0       28.094432    3.197665    0.331609
    122          8           0       27.142752    5.177670   -0.115718
    123          6           0       28.092550    5.825710    0.846997
    124          1           0       21.941872    0.886041    3.578083
    125          1           0       22.458903   -4.912424    0.796623
    126          1           0       26.242558   -2.346859   -3.594447
    127          1           0       25.055097    3.846409    1.725362
    128          1           0       22.222933    3.286786    2.386805
    129          1           0       24.224429    2.276942    4.065173
    130          1           0       22.844374    3.375219    4.630321
    131          1           0       24.333243    4.025438    4.147808
    132          1           0       22.362818    4.841893    0.917966
    133          1           0       23.287231    4.520536   -0.543207
    134          1           0       24.532433    6.150814   -0.509562
    135          1           0       24.945547    6.111741    1.158225
    136          1           0       21.166345   -1.993762    5.526738
    137          1           0       19.849650   -1.769002    4.356716
    138          1           0       20.990031   -0.387215    4.963446
    139          1           0       20.927961   -4.030088    5.406341
    140          1           0       20.391593   -5.542095    4.956957
    141          1           0       19.374083   -4.163564    4.456303
    142          1           0       23.621409   -5.715252   -1.511773
    143          1           0       25.844096   -4.800260   -2.704482
    144          1           0       26.402461   -5.296433   -0.027084
    145          1           0       26.035813   -6.426814   -1.394330
    146          1           0       25.286239   -6.612361    0.212683
    147          1           0       23.823034   -5.461360   -4.094390
    148          1           0       24.246917   -3.740353   -4.514150
    149          1           0       22.648942   -2.887528   -3.745448
    150          1           0       22.017170   -4.115297   -2.675199
    151          1           0       21.827440   -4.281472   -4.361748
    152          1           0       28.720359   -0.322970   -3.569922
    153          1           0       28.172375    0.850334   -4.784079
    154          1           0       27.546705   -0.711130   -4.922323
    155          1           0       25.523735    4.286899   -1.508855
    156          1           0       27.473507    6.070338    1.710447
    157          1           0       28.551653    6.696542    0.379593
    158          1           0       28.903473    5.212592    1.241183
 ---------------------------------------------------------------------

 SCF Done:  E(RwB97XD) =  -4070.58895832     A.U. after   19 cycles

 Excitation energies and oscillator strengths:

 Excited State   1:      Singlet-A      1.5874 eV  781.06 nm  f=0.3881  <S**2>=0.000
     309 -> 315       -0.17575
     312 -> 313        0.68655
     309 <- 315       -0.11663
 This state for optimization and/or second-order correction.
 Total Energy, E(TD-HF/TD-DFT) =  -4070.53062321
 Copying the excited state density for this state as the 1-particle RhoCI density.

 Excited State   2:      Singlet-A      1.6463 eV  753.13 nm  f=0.3742  <S**2>=0.000
     310 -> 316        0.18132
     311 -> 314        0.68365
     310 <- 316        0.11554

 Excited State   3:      Singlet-A      2.1205 eV  584.68 nm  f=0.1342  <S**2>=0.000
     310 -> 314        0.64936
     311 -> 316       -0.26642

 Excited State   4:      Singlet-A      2.1691 eV  571.59 nm  f=0.1099  <S**2>=0.000
     309 -> 313        0.63606
     312 -> 315        0.29406

 Excited State   5:      Singlet-A      3.3097 eV  374.61 nm  f=0.0147  <S**2>=0.000
     306 -> 313        0.10116
     308 -> 313        0.67093
     312 -> 315       -0.11068

 The electronic state is 1-A.
 Alpha  occ. eigenvalues --  -46.95674 -46.93525 -19.30391 -19.30273 -19.24301
 Alpha  occ. eigenvalues --  -19.24027 -19.23715 -19.23693 -19.23570 -19.23309
 Alpha  occ. eigenvalues --  -14.47481 -14.46575 -14.46417 -14.46317 -14.44309
 Alpha  occ. eigenvalues --  -14.44130 -14.43574 -14.43422 -10.42451 -10.42438
 Alpha  occ. eigenvalues --  -10.39238 -10.39193 -10.39032 -10.38195 -10.35835
 Alpha  occ. eigenvalues --  -10.35470 -10.35465 -10.35400 -10.35231 -10.34970
 Alpha  occ. eigenvalues --  -10.34735 -10.34626 -10.34536 -10.34297 -10.34140
 Alpha  occ. eigenvalues --  -10.34098 -10.33916 -10.33814 -10.33350 -10.33120
 Alpha  occ. eigenvalues --  -10.32997 -10.32982 -10.32911 -10.32855 -10.32804
 Alpha  occ. eigenvalues --  -10.32605 -10.32570 -10.32325 -10.32289 -10.32282
 Alpha  occ. eigenvalues --  -10.32206 -10.32118 -10.32002 -10.31950 -10.31934
 Alpha  occ. eigenvalues --  -10.31927 -10.31843 -10.31829 -10.31778 -10.31618
 Alpha  occ. eigenvalues --  -10.31609 -10.31598 -10.31560 -10.31540 -10.31472
 Alpha  occ. eigenvalues --  -10.31458 -10.31190 -10.31162 -10.30699 -10.30527
 Alpha  occ. eigenvalues --  -10.30320 -10.30312 -10.30111 -10.29989 -10.29925
 Alpha  occ. eigenvalues --  -10.29848 -10.29729 -10.29648 -10.29515 -10.29462
 Alpha  occ. eigenvalues --  -10.29444 -10.29345 -10.29300 -10.28933 -10.28700
 Alpha  occ. eigenvalues --  -10.28538  -3.21538  -3.19776  -1.95128  -1.94635
 Alpha  occ. eigenvalues --   -1.94522  -1.93365  -1.92890  -1.92797  -1.19498
 Alpha  occ. eigenvalues --   -1.19190  -1.12406  -1.11330  -1.10820  -1.09642
 Alpha  occ. eigenvalues --   -1.09558  -1.09472  -1.07428  -1.06539  -1.06302
 Alpha  occ. eigenvalues --   -1.05622  -1.05398  -1.04746  -1.04654  -1.03442
 Alpha  occ. eigenvalues --   -0.95377  -0.94195  -0.91601  -0.91120  -0.90746
 Alpha  occ. eigenvalues --   -0.90615  -0.90465  -0.90313  -0.89883  -0.89614
 Alpha  occ. eigenvalues --   -0.89524  -0.89189  -0.88805  -0.88379  -0.86564
 Alpha  occ. eigenvalues --   -0.86255  -0.86148  -0.85741  -0.84986  -0.84399
 Alpha  occ. eigenvalues --   -0.83932  -0.83608  -0.83511  -0.83022  -0.82698
 Alpha  occ. eigenvalues --   -0.82484  -0.80711  -0.80327  -0.79727  -0.79596
 Alpha  occ. eigenvalues --   -0.79306  -0.79291  -0.78482  -0.77892  -0.77292
 Alpha  occ. eigenvalues --   -0.77175  -0.75478  -0.74897  -0.73834  -0.73660
 Alpha  occ. eigenvalues --   -0.71338  -0.71095  -0.71038  -0.70609  -0.70163
 Alpha  occ. eigenvalues --   -0.69729  -0.69166  -0.68699  -0.67806  -0.67727
 Alpha  occ. eigenvalues --   -0.67376  -0.67322  -0.66794  -0.66774  -0.66102
 Alpha  occ. eigenvalues --   -0.65954  -0.64348  -0.64047  -0.62424  -0.62351
 Alpha  occ. eigenvalues --   -0.61911  -0.61907  -0.61307  -0.60956  -0.60595
 Alpha  occ. eigenvalues --   -0.60384  -0.60248  -0.59985  -0.59890  -0.59739
 Alpha  occ. eigenvalues --   -0.58419  -0.58097  -0.57693  -0.57476  -0.57377
 Alpha  occ. eigenvalues --   -0.57176  -0.57006  -0.56991  -0.56768  -0.56642
 Alpha  occ. eigenvalues --   -0.55877  -0.55301  -0.55291  -0.55161  -0.54976
 Alpha  occ. eigenvalues --   -0.54944  -0.54828  -0.54643  -0.54475  -0.54383
 Alpha  occ. eigenvalues --   -0.54136  -0.54125  -0.53924  -0.53844  -0.53265
 Alpha  occ. eigenvalues --   -0.53120  -0.53103  -0.53016  -0.52326  -0.52256
 Alpha  occ. eigenvalues --   -0.52034  -0.51946  -0.51725  -0.51658  -0.51618
 Alpha  occ. eigenvalues --   -0.51383  -0.51128  -0.50964  -0.50958  -0.50816
 Alpha  occ. eigenvalues --   -0.50438  -0.50329  -0.50275  -0.50154  -0.50024
 Alpha  occ. eigenvalues --   -0.49921  -0.49772  -0.49309  -0.49274  -0.49147
 Alpha  occ. eigenvalues --   -0.49097  -0.48760  -0.48652  -0.48608  -0.48561
 Alpha  occ. eigenvalues --   -0.48318  -0.48173  -0.47912  -0.47860  -0.47755
 Alpha  occ. eigenvalues --   -0.47173  -0.47165  -0.46869  -0.46729  -0.46560
 Alpha  occ. eigenvalues --   -0.46495  -0.46389  -0.46077  -0.46029  -0.46015
 Alpha  occ. eigenvalues --   -0.45845  -0.45618  -0.45483  -0.45292  -0.45226
 Alpha  occ. eigenvalues --   -0.45143  -0.45141  -0.44925  -0.44464  -0.44385
 Alpha  occ. eigenvalues --   -0.44272  -0.44140  -0.44057  -0.44001  -0.43857
 Alpha  occ. eigenvalues --   -0.43743  -0.43612  -0.43350  -0.43008  -0.42971
 Alpha  occ. eigenvalues --   -0.42854  -0.42834  -0.42638  -0.42520  -0.42344
 Alpha  occ. eigenvalues --   -0.42297  -0.42082  -0.41942  -0.41399  -0.40847
 Alpha  occ. eigenvalues --   -0.40225  -0.40033  -0.39972  -0.39903  -0.39653
 Alpha  occ. eigenvalues --   -0.39635  -0.39190  -0.39080  -0.39005  -0.38663
 Alpha  occ. eigenvalues --   -0.38428  -0.38045  -0.36639  -0.36470  -0.36250
 Alpha  occ. eigenvalues --   -0.36226  -0.35742  -0.35451  -0.33702  -0.33683
 Alpha  occ. eigenvalues --   -0.32966  -0.32835  -0.32706  -0.32661  -0.32506
 Alpha  occ. eigenvalues --   -0.32154  -0.32147  -0.31774  -0.26251  -0.25928
 Alpha  occ. eigenvalues --   -0.23253  -0.22855
 Alpha virt. eigenvalues --   -0.07343  -0.07339   0.00277   0.00291   0.02149
 Alpha virt. eigenvalues --    0.02336   0.04318   0.04355   0.05303   0.06105
 Alpha virt. eigenvalues --    0.07417   0.07749   0.07830   0.08009   0.08624

 Mulliken charges:
               1
     1  Mg   0.985389
     2  C    0.012954
     3  C   -0.095380
     4  C   -0.062319
     5  C   -0.128198
     6  N   -0.378458
     7  C   -0.008477
     8  C   -0.043459
     9  C   -0.121981
    10  C    0.058102
    11  C    0.021177
    12  C    0.005362
    13  C   -0.092451
    14  H    0.043439
    15  N   -0.389462
    16  C    0.163923
    17  C   -0.155393
    18  C   -0.073760
    19  C    0.100065
    20  C    0.064775
    21  C    0.052923
    22  O   -0.274721
    23  C   -0.022247
    24  N   -0.392002
    25  C    0.057789
    26  C   -0.092093
    27  C   -0.027259
    28  C    0.109085
    29  C    0.008951
    30  C   -0.008503
    31  C   -0.062967
    32  N   -0.527514
    33  C    0.189855
    34  C   -0.191408
    35  C   -0.054986
    36  C    0.141387
    37  C    0.072759
    38  C    0.153133
    39  O   -0.183131
    40  C   -0.107228
    41  C    0.224468
    42  O   -0.229911
    43  O   -0.358780
    44  C    0.140863
    45  H   -0.003572
    46  H    0.017282
    47  H   -0.016887
    48  H    0.024573
    49  H    0.035445
    50  H    0.042310
    51  H    0.048425
    52  H    0.037248
    53  H    0.035727
    54  H    0.041472
    55  H    0.044255
    56  H    0.060610
    57  H    0.073858
    58  H    0.034868
    59  H    0.031922
    60  H    0.066672
    61  H    0.059219
    62  H    0.050480
    63  H    0.056056
    64  H    0.035264
    65  H    0.060719
    66  H    0.037244
    67  H    0.041396
    68  H    0.033229
    69  H    0.028310
    70  H    0.043828
    71  H    0.022319
    72  H    0.037628
    73  H    0.026948
    74  H    0.061473
    75  H    0.068398
    76  H    0.069227
    77  H    0.070806
    78  H    0.058538
    79  H    0.040401
    80  Mg   0.939148
    81  C   -0.014766
    82  C   -0.073854
    83  C   -0.062238
    84  C   -0.108105
    85  N   -0.378667
    86  C    0.014574
    87  C   -0.066706
    88  C   -0.052565
    89  C   -0.019151
    90  C    0.003408
    91  C    0.003847
    92  C   -0.135642
    93  H    0.038432
    94  N   -0.463693
    95  C    0.198424
    96  C   -0.182621
    97  C   -0.073516
    98  C    0.131247
    99  C    0.082955
   100  C    0.052577
   101  O   -0.248046
   102  C   -0.009727
   103  N   -0.296292
   104  C    0.020172
   105  C   -0.042602
   106  C   -0.112717
   107  C    0.095770
   108  C    0.041914
   109  C    0.013757
   110  C   -0.088532
   111  N   -0.408938
   112  C    0.114894
   113  C   -0.133366
   114  C    0.022704
   115  C    0.108454
   116  C    0.062414
   117  C    0.079750
   118  O   -0.226687
   119  C   -0.091758
   120  C    0.269398
   121  O   -0.244567
   122  O   -0.346928
   123  C    0.120710
   124  H   -0.007312
   125  H    0.014677
   126  H   -0.002417
   127  H    0.047167
   128  H    0.033958
   129  H    0.048088
   130  H    0.042012
   131  H    0.040845
   132  H    0.041761
   133  H    0.042541
   134  H    0.057916
   135  H    0.038032
   136  H    0.037973
   137  H    0.060579
   138  H    0.052901
   139  H    0.038976
   140  H    0.045893
   141  H    0.075385
   142  H    0.019768
   143  H    0.023008
   144  H    0.050099
   145  H    0.040566
   146  H    0.051580
   147  H    0.036083
   148  H    0.028697
   149  H    0.022188
   150  H    0.034929
   151  H    0.039588
   152  H    0.074318
   153  H    0.055801
   154  H    0.035990
   155  H    0.056758
   156  H    0.046817
   157  H    0.068333
   158  H    0.073635
 Sum of Mulliken charges =  -0.00000

 Dipole moment (field-independent basis, Debye):
    X=             -7.0531    Y=              1.9395    Z=              4.8139  Tot=              8.7568
 Quadrupole moment (field-independent basis, Debye-Ang):
   XX=           -505.2366   YY=           -514.3456   ZZ=           -470.0972
   XY=            -50.0272   XZ=            -11.8340   YZ=             63.2788

 Normal termination of Gaussian 16 at Sun Sep 19 22:15:46 2021.
