 Gaussian 16, Revision A.03,
 Gaussian 16:  ES64L-G16RevA.03 25-Dec-2016

 --------------------------------
 #p wB97XD/Def2SVP td=(nstates=5)
 --------------------------------

 --------------------------------
 TDDFT excited states in gaussian
 --------------------------------
 Symbolic Z-matrix:
 Charge =  0 Multiplicity = 1

                         Standard orientation:
 ---------------------------------------------------------------------
 Center     Atomic      Atomic             Coordinates (Angstroms)
 Number     Number       Type             X           Y           Z
 ---------------------------------------------------------------------
      1         12           0      -30.277844    0.229818    0.229413
      2          6           0      -27.606437   -1.818889   -0.857227
      3          6           0      -30.334990    1.515731   -2.789916
      4          6           0      -31.956048    2.729794    1.595347
      5          6           0      -29.462713   -0.872566    3.507932
      6          7           0      -29.141971   -0.317360   -1.652571
      7          6           0      -28.220398   -1.174660   -1.901632
      8          6           0      -27.996908   -1.316365   -3.421324
      9          6           0      -28.527456    0.093555   -3.997669
     10          6           0      -29.346541    0.530058   -2.712468
     11          6           0      -27.425783    1.145669   -4.416665
     12          6           0      -28.896427   -2.517679   -4.023485
     13          6           0      -28.383411   -3.361825   -5.234832
     14          1           0      -27.416441   -2.626367   -6.234294
     15          7           0      -31.222666    1.792731   -0.530550
     16          6           0      -31.158732    2.119652   -1.876724
     17          6           0      -32.005354    3.343293   -2.105164
     18          6           0      -32.515552    3.673737   -0.780637
     19          6           0      -31.941322    2.770052    0.219891
     20          6           0      -32.122612    3.973445   -3.480146
     21          6           0      -33.492429    4.774698   -0.430857
     22          8           0      -33.865579    5.045726    0.718972
     23          6           0      -34.082852    5.570565   -1.523321
     24          7           0      -30.756333    0.800746    2.335888
     25          6           0      -31.429444    1.912863    2.569353
     26          6           0      -31.918226    1.947200    4.085389
     27          6           0      -31.032351    0.729947    4.694164
     28          6           0      -30.402641    0.155758    3.427894
     29          6           0      -31.732467    3.336678    4.779963
     30          6           0      -31.770047   -0.373034    5.521984
     31          6           0      -31.478731   -0.429251    6.999620
     32          7           0      -28.980216   -1.243386    1.187210
     33          6           0      -28.800450   -1.534919    2.524776
     34          6           0      -27.741934   -2.442766    2.681391
     35          6           0      -27.219697   -2.547296    1.378267
     36          6           0      -27.951607   -1.795468    0.489915
     37          6           0      -27.250524   -3.045476    3.899775
     38          6           0      -26.232293   -3.255056    0.659739
     39          8           0      -25.391801   -4.156831    0.925362
     40          6           0      -26.270672   -2.595097   -0.791470
     41          6           0      -26.123580   -3.639437   -1.836489
     42          8           0      -26.882924   -4.574478   -2.081886
     43          8           0      -24.969420   -3.299386   -2.610352
     44          6           0      -24.611721   -4.202942   -3.711270
     45          1           0      -30.411427    1.813401   -3.838179
     46          1           0      -32.564651    3.527868    2.024119
     47          1           0      -29.273174   -1.263512    4.510439
     48          1           0      -26.922043   -1.258740   -3.590938
     49          1           0      -29.049833   -0.097771   -4.934388
     50          1           0      -26.436866    0.866453   -4.053734
     51          1           0      -27.614917    2.123339   -3.973740
     52          1           0      -27.437549    1.166551   -5.506345
     53          1           0      -29.900223   -2.167681   -4.264815
     54          1           0      -29.112835   -3.212427   -3.211704
     55          1           0      -29.181957   -3.762693   -5.859941
     56          1           0      -27.696632   -4.104048   -4.826071
     57          1           0      -33.152384    4.235357   -3.725840
     58          1           0      -31.730683    3.341185   -4.276882
     59          1           0      -31.420842    4.803682   -3.555755
     60          1           0      -33.309683    6.063932   -2.112980
     61          1           0      -34.761460    6.317341   -1.111002
     62          1           0      -34.709276    5.018310   -2.223830
     63          1           0      -32.958448    1.642042    4.198467
     64          1           0      -30.145304    1.089705    5.217610
     65          1           0      -31.198762    4.021926    4.121162
     66          1           0      -31.256127    3.032538    5.712224
     67          1           0      -32.725091    3.672794    5.076863
     68          1           0      -31.476003   -1.337791    5.108014
     69          1           0      -32.845748   -0.279775    5.371415
     70          1           0      -30.900901    0.477511    7.173512
     71          1           0      -30.825912   -1.284909    7.176036
     72          1           0      -32.373263   -0.388698    7.619891
     73          1           0      -28.112923   -3.483115    4.401900
     74          1           0      -26.940920   -2.354446    4.683872
     75          1           0      -26.530096   -3.826890    3.657242
     76          1           0      -25.450059   -1.880170   -0.859258
     77          1           0      -23.672143   -3.896827   -4.171998
     78          1           0      -25.325133   -4.056827   -4.522528
     79          1           0      -24.472460   -5.209030   -3.317087
     80         12           0       30.110207    0.385544   -0.191914
     81          6           0       27.100810   -1.448171   -0.256008
     82          6           0       28.292921    3.106651   -0.925186
     83          6           0       32.862704    2.047655    0.392689
     84          6           0       31.591095   -2.525390    1.258570
     85          7           0       27.928657    0.765124   -0.501769
     86          6           0       26.886580   -0.097117   -0.567780
     87          6           0       25.573456    0.562425   -0.937519
     88          6           0       26.099289    1.978261   -1.406389
     89          6           0       27.533720    2.006456   -0.920756
     90          6           0       25.998883    2.244965   -2.964955
     91          6           0       24.376697    0.690482    0.102798
     92          6           0       24.596696    0.473846    1.623581
     93          1           0       23.726839    1.324080    2.623189
     94          7           0       30.512037    2.349865   -0.405001
     95          6           0       29.639597    3.329073   -0.602525
     96          6           0       30.348158    4.633961   -0.500681
     97          6           0       31.777998    4.284587   -0.266908
     98          6           0       31.750544    2.835346   -0.067218
     99          6           0       29.713992    5.963758   -0.807876
    100          6           0       32.913431    5.265304   -0.132648
    101          8           0       32.682869    6.460278   -0.300541
    102          6           0       34.389561    4.902647    0.273130
    103          7           0       32.010320   -0.142105    0.835836
    104          6           0       32.947776    0.735381    0.734267
    105          6           0       34.291839    0.059610    1.259590
    106          6           0       33.761796   -1.292739    1.740612
    107          6           0       32.323135   -1.340336    1.263205
    108          6           0       35.495708   -0.051331    0.309243
    109          6           0       33.678662   -1.421421    3.349101
    110          6           0       34.628996   -2.439207    4.006088
    111          7           0       29.533977   -1.553810    0.457051
    112          6           0       30.237885   -2.643735    0.896485
    113          6           0       29.397436   -3.867845    0.839435
    114          6           0       28.084221   -3.431357    0.505303
    115          6           0       28.292372   -2.021164    0.181332
    116          6           0       29.793485   -5.293381    1.284531
    117          6           0       26.715778   -3.776881    0.309850
    118          8           0       26.036129   -4.792523    0.536713
    119          6           0       26.021069   -2.518782   -0.270487
    120          6           0       25.448439   -2.918399   -1.633467
    121          8           0       24.329214   -3.132016   -2.017304
    122          8           0       26.480937   -2.819342   -2.572431
    123          6           0       26.136116   -3.050372   -4.009642
    124          1           0       27.675033    3.977004   -1.156564
    125          1           0       33.769111    2.641150    0.534800
    126          1           0       32.124881   -3.457630    1.452827
    127          1           0       25.239534    0.026474   -1.825790
    128          1           0       25.500673    2.757428   -0.934296
    129          1           0       25.623827    1.365384   -3.487111
    130          1           0       27.051207    2.305016   -3.240474
    131          1           0       25.415587    3.148013   -3.145811
    132          1           0       23.598312    0.004479   -0.231544
    133          1           0       23.919410    1.674250   -0.008285
    134          1           0       25.646699    0.705510    1.802406
    135          1           0       24.294345   -0.511762    1.976166
    136          1           0       30.439407    6.766024   -0.941309
    137          1           0       28.955220    6.124319   -0.041071
    138          1           0       29.127387    5.765713   -1.705574
    139          1           0       34.945451    4.127944   -0.256345
    140          1           0       34.372005    4.518630    1.293098
    141          1           0       35.052513    5.765744    0.219934
    142          1           0       34.730209    0.629906    2.077854
    143          1           0       34.290748   -2.200301    1.447602
    144          1           0       35.286773    0.392854   -0.664103
    145          1           0       35.835496   -1.082554    0.207528
    146          1           0       36.370590    0.502142    0.650357
    147          1           0       32.685859   -1.724806    3.678537
    148          1           0       33.876947   -0.419370    3.730083
    149          1           0       34.246140   -2.929630    4.901422
    150          1           0       35.490982   -1.855138    4.328373
    151          1           0       34.806167   -3.163243    3.210707
    152          1           0       30.711518   -5.356653    1.867835
    153          1           0       29.935100   -5.830523    0.347022
    154          1           0       28.933317   -5.745448    1.777720
    155          1           0       25.210067   -2.217237    0.391597
    156          1           0       25.323211   -3.736278   -4.246997
    157          1           0       27.034347   -3.524372   -4.404928
    158          1           0       25.985887   -2.184233   -4.654429
 ---------------------------------------------------------------------

 SCF Done:  E(RwB97XD) =  -4070.55947258     A.U. after   20 cycles

 Excitation energies and oscillator strengths:

 Excited State   1:      Singlet-A      1.7163 eV  722.38 nm  f=0.4035  <S**2>=0.000
     309 -> 316        0.19063
     312 -> 313        0.68127
     309 <- 316        0.11531
 This state for optimization and/or second-order correction.
 Total Energy, E(TD-HF/TD-DFT) =  -4070.49639844
 Copying the excited state density for this state as the 1-particle RhoCI density.

 Excited State   2:      Singlet-A      1.7434 eV  711.14 nm  f=0.3664  <S**2>=0.000
     310 -> 315       -0.21769
     311 -> 314        0.67306
     310 <- 315       -0.11923

 Excited State   3:      Singlet-A      2.1695 eV  571.50 nm  f=0.0787  <S**2>=0.000
     310 -> 314        0.62752
     311 -> 315        0.30973

 Excited State   4:      Singlet-A      2.2310 eV  555.73 nm  f=0.0955  <S**2>=0.000
     309 -> 313        0.63455
     312 -> 316       -0.29972

 Excited State   5:      Singlet-A      3.3074 eV  374.87 nm  f=0.0360  <S**2>=0.000
     306 -> 314        0.13273
     307 -> 314        0.60478
     311 -> 315       -0.28133

 The electronic state is 1-A.
 Alpha  occ. eigenvalues --  -46.96412 -46.95731 -19.29873 -19.29180 -19.25395
 Alpha  occ. eigenvalues --  -19.25148 -19.24608 -19.24030 -19.23581 -19.23531
 Alpha  occ. eigenvalues --  -14.46917 -14.46715 -14.46380 -14.46292 -14.45067
 Alpha  occ. eigenvalues --  -14.44719 -14.44610 -14.43179 -10.43784 -10.43159
 Alpha  occ. eigenvalues --  -10.39779 -10.39556 -10.39087 -10.38525 -10.35650
 Alpha  occ. eigenvalues --  -10.35580 -10.35579 -10.35147 -10.35128 -10.35025
 Alpha  occ. eigenvalues --  -10.34831 -10.34803 -10.34763 -10.34700 -10.34694
 Alpha  occ. eigenvalues --  -10.34633 -10.34438 -10.34428 -10.34282 -10.34178
 Alpha  occ. eigenvalues --  -10.34071 -10.33824 -10.33377 -10.33313 -10.33067
 Alpha  occ. eigenvalues --  -10.32878 -10.32865 -10.32755 -10.32721 -10.32558
 Alpha  occ. eigenvalues --  -10.32512 -10.32383 -10.32362 -10.32067 -10.31967
 Alpha  occ. eigenvalues --  -10.31964 -10.31944 -10.31882 -10.31686 -10.31656
 Alpha  occ. eigenvalues --  -10.31655 -10.31577 -10.31527 -10.31464 -10.31427
 Alpha  occ. eigenvalues --  -10.31319 -10.31125 -10.31124 -10.31008 -10.30975
 Alpha  occ. eigenvalues --  -10.30452 -10.30423 -10.30405 -10.30343 -10.30326
 Alpha  occ. eigenvalues --  -10.30237 -10.30167 -10.30066 -10.30020 -10.29795
 Alpha  occ. eigenvalues --  -10.29689 -10.29668 -10.29609 -10.29259 -10.29218
 Alpha  occ. eigenvalues --  -10.28671  -3.22342  -3.21642  -1.95918  -1.95462
 Alpha  occ. eigenvalues --   -1.95310  -1.95233  -1.94775  -1.94589  -1.18257
 Alpha  occ. eigenvalues --   -1.16109  -1.11744  -1.11636  -1.11632  -1.09531
 Alpha  occ. eigenvalues --   -1.09508  -1.08932  -1.08742  -1.07793  -1.07215
 Alpha  occ. eigenvalues --   -1.06846  -1.06062  -1.05552  -1.05331  -1.03512
 Alpha  occ. eigenvalues --   -0.95620  -0.94954  -0.91732  -0.91425  -0.90731
 Alpha  occ. eigenvalues --   -0.90519  -0.90482  -0.90209  -0.89801  -0.89484
 Alpha  occ. eigenvalues --   -0.89268  -0.88905  -0.88857  -0.87325  -0.86837
 Alpha  occ. eigenvalues --   -0.86217  -0.85871  -0.85837  -0.84787  -0.84647
 Alpha  occ. eigenvalues --   -0.83954  -0.83714  -0.83449  -0.82780  -0.82632
 Alpha  occ. eigenvalues --   -0.82478  -0.80941  -0.80478  -0.79652  -0.79645
 Alpha  occ. eigenvalues --   -0.78950  -0.78891  -0.78623  -0.77828  -0.77313
 Alpha  occ. eigenvalues --   -0.77171  -0.75340  -0.75224  -0.74384  -0.74248
 Alpha  occ. eigenvalues --   -0.71606  -0.71203  -0.70942  -0.70602  -0.70507
 Alpha  occ. eigenvalues --   -0.69893  -0.69509  -0.69207  -0.68785  -0.67890
 Alpha  occ. eigenvalues --   -0.67648  -0.67581  -0.67555  -0.67511  -0.66883
 Alpha  occ. eigenvalues --   -0.66597  -0.65190  -0.63259  -0.62596  -0.62547
 Alpha  occ. eigenvalues --   -0.62214  -0.62124  -0.61453  -0.61299  -0.60538
 Alpha  occ. eigenvalues --   -0.60353  -0.60095  -0.59724  -0.59296  -0.59261
 Alpha  occ. eigenvalues --   -0.58966  -0.58353  -0.57868  -0.57758  -0.57657
 Alpha  occ. eigenvalues --   -0.57409  -0.57036  -0.56515  -0.56309  -0.55918
 Alpha  occ. eigenvalues --   -0.55741  -0.55595  -0.55472  -0.55116  -0.54903
 Alpha  occ. eigenvalues --   -0.54885  -0.54722  -0.54557  -0.54402  -0.54186
 Alpha  occ. eigenvalues --   -0.53970  -0.53670  -0.53535  -0.53459  -0.53223
 Alpha  occ. eigenvalues --   -0.53083  -0.53030  -0.52845  -0.52531  -0.52508
 Alpha  occ. eigenvalues --   -0.52266  -0.51960  -0.51835  -0.51753  -0.51497
 Alpha  occ. eigenvalues --   -0.51464  -0.51109  -0.50996  -0.50804  -0.50740
 Alpha  occ. eigenvalues --   -0.50618  -0.50479  -0.50456  -0.50311  -0.50241
 Alpha  occ. eigenvalues --   -0.49957  -0.49802  -0.49729  -0.49564  -0.49534
 Alpha  occ. eigenvalues --   -0.49378  -0.49246  -0.49211  -0.49006  -0.48879
 Alpha  occ. eigenvalues --   -0.48727  -0.48583  -0.48246  -0.48237  -0.48054
 Alpha  occ. eigenvalues --   -0.48051  -0.47801  -0.47523  -0.47494  -0.47300
 Alpha  occ. eigenvalues --   -0.47293  -0.46871  -0.46789  -0.46189  -0.46126
 Alpha  occ. eigenvalues --   -0.45914  -0.45901  -0.45852  -0.45523  -0.45497
 Alpha  occ. eigenvalues --   -0.45260  -0.45241  -0.45090  -0.44919  -0.44584
 Alpha  occ. eigenvalues --   -0.44554  -0.44258  -0.44049  -0.44004  -0.43889
 Alpha  occ. eigenvalues --   -0.43618  -0.43575  -0.43367  -0.43116  -0.43113
 Alpha  occ. eigenvalues --   -0.42949  -0.42856  -0.42659  -0.42600  -0.42534
 Alpha  occ. eigenvalues --   -0.42237  -0.41976  -0.41885  -0.41149  -0.40953
 Alpha  occ. eigenvalues --   -0.40767  -0.40422  -0.40137  -0.39909  -0.39726
 Alpha  occ. eigenvalues --   -0.39409  -0.38896  -0.38721  -0.38396  -0.38279
 Alpha  occ. eigenvalues --   -0.38096  -0.37611  -0.37067  -0.36583  -0.36264
 Alpha  occ. eigenvalues --   -0.35895  -0.35867  -0.35637  -0.34097  -0.34015
 Alpha  occ. eigenvalues --   -0.33492  -0.33275  -0.33227  -0.32873  -0.32619
 Alpha  occ. eigenvalues --   -0.32310  -0.31467  -0.31427  -0.26425  -0.26091
 Alpha  occ. eigenvalues --   -0.23493  -0.23349
 Alpha virt. eigenvalues --   -0.07267  -0.06966  -0.00735  -0.00132   0.01411
 Alpha virt. eigenvalues --    0.01817   0.03847   0.04357   0.04516   0.05432
 Alpha virt. eigenvalues --    0.06742   0.06809   0.07187   0.07861   0.07966

 Mulliken charges:
               1
     1  Mg   0.950815
     2  C   -0.001534
     3  C   -0.092547
     4  C   -0.057187
     5  C   -0.097652
     6  N   -0.289250
     7  C   -0.079915
     8  C   -0.021964
     9  C   -0.152167
    10  C    0.044691
    11  C    0.020221
    12  C    0.019070
    13  C   -0.121877
    14  H   -0.003170
    15  N   -0.573409
    16  C    0.230465
    17  C   -0.157400
    18  C   -0.064068
    19  C    0.176458
    20  C    0.067652
    21  C    0.057121
    22  O   -0.243283
    23  C   -0.029504
    24  N   -0.281883
    25  C    0.040534
    26  C   -0.118731
    27  C   -0.082465
    28  C    0.022937
    29  C    0.039323
    30  C   -0.018052
    31  C   -0.035017
    32  N   -0.421004
    33  C    0.154605
    34  C   -0.152057
    35  C   -0.029593
    36  C    0.146248
    37  C    0.092517
    38  C    0.133234
    39  O   -0.250630
    40  C   -0.095206
    41  C    0.288702
    42  O   -0.246486
    43  O   -0.409242
    44  C    0.146596
    45  H   -0.006522
    46  H    0.019235
    47  H   -0.015415
    48  H    0.025009
    49  H    0.044100
    50  H    0.036957
    51  H    0.039608
    52  H    0.044100
    53  H    0.028281
    54  H    0.057737
    55  H    0.065759
    56  H    0.078846
    57  H    0.055751
    58  H    0.031555
    59  H    0.060660
    60  H    0.053885
    61  H    0.050858
    62  H    0.060054
    63  H    0.047710
    64  H    0.033933
    65  H    0.061757
    66  H    0.028996
    67  H    0.039257
    68  H    0.034194
    69  H    0.025059
    70  H    0.022696
    71  H    0.040444
    72  H    0.046556
    73  H    0.029879
    74  H    0.045569
    75  H    0.071978
    76  H    0.082479
    77  H    0.044142
    78  H    0.042294
    79  H    0.066702
    80  Mg   0.957716
    81  C   -0.036450
    82  C   -0.091693
    83  C   -0.036361
    84  C   -0.103615
    85  N   -0.341002
    86  C   -0.037914
    87  C    0.005312
    88  C   -0.158341
    89  C    0.057976
    90  C    0.033624
    91  C    0.002383
    92  C   -0.150059
    93  H    0.026887
    94  N   -0.475952
    95  C    0.164511
    96  C   -0.173400
    97  C   -0.081281
    98  C    0.167272
    99  C    0.085918
   100  C    0.055522
   101  O   -0.240349
   102  C   -0.027186
   103  N   -0.273947
   104  C    0.045722
   105  C   -0.055826
   106  C   -0.125895
   107  C    0.077431
   108  C    0.014297
   109  C   -0.041906
   110  C   -0.039885
   111  N   -0.402105
   112  C    0.126814
   113  C   -0.186206
   114  C   -0.008787
   115  C    0.160940
   116  C    0.075219
   117  C    0.093806
   118  O   -0.218075
   119  C   -0.083285
   120  C    0.279628
   121  O   -0.209529
   122  O   -0.398037
   123  C    0.134871
   124  H   -0.010912
   125  H   -0.053787
   126  H    0.002643
   127  H    0.040930
   128  H    0.037042
   129  H    0.035432
   130  H    0.038115
   131  H    0.054851
   132  H    0.045355
   133  H    0.044643
   134  H    0.072950
   135  H    0.074389
   136  H    0.077689
   137  H    0.041046
   138  H    0.036937
   139  H    0.056553
   140  H    0.057191
   141  H    0.052409
   142  H    0.035513
   143  H    0.023169
   144  H    0.033243
   145  H    0.036003
   146  H    0.027112
   147  H    0.043329
   148  H    0.025249
   149  H    0.043769
   150  H    0.037806
   151  H    0.028136
   152  H    0.042827
   153  H    0.054958
   154  H    0.069765
   155  H    0.068901
   156  H    0.065924
   157  H    0.044847
   158  H    0.047214
 Sum of Mulliken charges =  -0.00000

 Dipole moment (field-independent basis, Debye):
    X=              1.7610    Y=              2.6607    Z=             -3.6629  Tot=              4.8577
 Quadrupole moment (field-independent basis, Debye-Ang):
   XX=           -141.8946   YY=           -577.2827   ZZ=           -458.3248
   XY=           -137.3178   XZ=             41.7112   YZ=             -8.9102

 Normal termination of Gaussian 16 at Sun Sep 19 00:56:14 2021.
