 Gaussian 16, Revision A.03,
 Gaussian 16:  ES64L-G16RevA.03 25-Dec-2016

 --------------------------------
 #p wB97XD/Def2SVP td=(nstates=5)
 --------------------------------

 --------------------------------
 TDDFT excited states in gaussian
 --------------------------------
 Symbolic Z-matrix:
 Charge =  0 Multiplicity = 1

                         Standard orientation:
 ---------------------------------------------------------------------
 Center     Atomic      Atomic             Coordinates (Angstroms)
 Number     Number       Type             X           Y           Z
 ---------------------------------------------------------------------
      1         12           0       -9.098948   -0.981532    0.635641
      2          6           0      -10.046014    2.287873   -0.195925
      3          6           0       -6.569101    0.388761    2.699173
      4          6           0       -7.935720   -4.123113    1.189584
      5          6           0      -11.086708   -2.139310   -1.939118
      6          7           0       -8.546961    1.067875    1.273729
      7          6           0       -9.231421    2.230389    0.907569
      8          6           0       -8.857929    3.383793    1.906985
      9          6           0       -7.713402    2.764404    2.717386
     10          6           0       -7.554534    1.304820    2.165275
     11          6           0       -6.413053    3.593498    2.538692
     12          6           0      -10.106471    3.772846    2.689149
     13          6           0      -10.209676    5.197833    3.207752
     14          1           0       -8.936451    6.073729    3.198070
     15          7           0       -7.498400   -1.806496    1.780685
     16          6           0       -6.558397   -1.073465    2.529771
     17          6           0       -5.586543   -1.963125    3.140841
     18          6           0       -5.966330   -3.319948    2.796713
     19          6           0       -7.164006   -3.120348    1.872728
     20          6           0       -4.504187   -1.513013    4.130359
     21          6           0       -5.370018   -4.652727    3.207019
     22          8           0       -5.865133   -5.699225    2.810277
     23          6           0       -4.324400   -4.669451    4.254952
     24          7           0       -9.538378   -2.877581   -0.235016
     25          6           0       -8.987233   -4.029840    0.238215
     26          6           0       -9.675270   -5.250625   -0.426856
     27          6           0      -10.749019   -4.626180   -1.400038
     28          6           0      -10.554905   -3.112130   -1.127229
     29          6           0       -8.631824   -6.133835   -1.134159
     30          6           0      -12.216841   -5.030928   -1.100388
     31          6           0      -12.652319   -6.106273   -2.090998
     32          7           0      -10.269766   -0.172360   -0.898005
     33          6           0      -10.969010   -0.719577   -1.921525
     34          6           0      -11.415795    0.391866   -2.796079
     35          6           0      -11.183018    1.559515   -2.130223
     36          6           0      -10.436937    1.155094   -0.993823
     37          6           0      -12.184138    0.131159   -4.080764
     38          6           0      -11.367463    3.016749   -2.110348
     39          8           0      -11.905948    3.740121   -2.939569
     40          6           0      -10.715469    3.486165   -0.824142
     41          6           0       -9.822853    4.588478   -1.215637
     42          8           0       -8.703383    4.562703   -1.744654
     43          8           0      -10.487309    5.769654   -0.956074
     44          6           0       -9.812205    6.992365   -1.333354
     45          1           0       -5.855911    0.846424    3.387583
     46          1           0       -7.569737   -5.102609    1.504493
     47          1           0      -11.619353   -2.578642   -2.785216
     48          1           0       -8.519419    4.147191    1.205417
     49          1           0       -7.975766    2.916244    3.764341
     50          1           0       -5.623694    3.094742    1.976068
     51          1           0       -5.935773    3.617741    3.517933
     52          1           0       -6.597962    4.550111    2.050405
     53          1           0      -10.168942    3.023913    3.479226
     54          1           0      -10.983593    3.552054    2.082007
     55          1           0      -10.629606    5.171602    4.212365
     56          1           0      -10.974381    5.605984    2.545955
     57          1           0       -4.414217   -0.430744    4.225546
     58          1           0       -3.532107   -1.894272    3.814783
     59          1           0       -4.683278   -2.003954    5.086189
     60          1           0       -4.765364   -4.322705    5.189853
     61          1           0       -3.410076   -4.190421    3.904830
     62          1           0       -4.012145   -5.684907    4.498965
     63          1           0      -10.105035   -5.857918    0.369432
     64          1           0      -10.392522   -4.863658   -2.403196
     65          1           0       -8.784183   -6.312499   -2.198174
     66          1           0       -8.817265   -7.070141   -0.608246
     67          1           0       -7.614819   -5.743434   -1.109642
     68          1           0      -12.895324   -4.227710   -1.388345
     69          1           0      -12.376913   -5.381614   -0.080654
     70          1           0      -13.124848   -6.858770   -1.459865
     71          1           0      -11.829226   -6.661811   -2.539785
     72          1           0      -13.337231   -5.774717   -2.871923
     73          1           0      -12.178556   -0.903089   -4.425833
     74          1           0      -11.841085    0.751724   -4.907695
     75          1           0      -13.246245    0.266922   -3.873784
     76          1           0      -11.508158    3.818050   -0.154410
     77          1           0       -9.497686    6.887060   -2.371981
     78          1           0       -8.934025    7.210693   -0.725313
     79          1           0      -10.615012    7.715892   -1.471045
     80         12           0        9.360604   -0.317412   -0.181051
     81          6           0        7.231080    2.436343   -0.278455
     82          6           0       11.923162    1.731690    0.853033
     83          6           0       11.357967   -3.030865   -0.404804
     84          6           0        6.735823   -2.258271   -1.634770
     85          7           0        9.540168    1.829687    0.117641
     86          6           0        8.556337    2.767559    0.055189
     87          6           0        9.059326    4.139102    0.523757
     88          6           0       10.612950    3.854796    0.728110
     89          6           0       10.683040    2.333364    0.560138
     90          6           0       11.468534    4.574657   -0.307333
     91          6           0        8.491934    4.646077    1.897325
     92          6           0        8.413889    6.136082    2.106407
     93          1           0        9.154285    7.030888    1.216539
     94          7           0       11.304981   -0.613626    0.255954
     95          6           0       12.210516    0.384306    0.668405
     96          6           0       13.426475   -0.298804    1.024557
     97          6           0       13.298936   -1.679971    0.730627
     98          6           0       11.938014   -1.835983    0.160677
     99          6           0       14.699285    0.423661    1.411072
    100          6           0       14.221738   -2.806704    0.938934
    101          8           0       14.051090   -3.905504    0.455320
    102          6           0       15.588489   -2.588394    1.683810
    103          7           0        9.071883   -2.462806   -0.764705
    104          6           0       10.047609   -3.320941   -0.781127
    105          6           0        9.581692   -4.703252   -1.329468
    106          6           0        8.111880   -4.507085   -1.653722
    107          6           0        7.913182   -2.969250   -1.400726
    108          6           0       10.539413   -5.184742   -2.518650
    109          6           0        7.182272   -5.428139   -0.835569
    110          6           0        6.718904   -6.770517   -1.515427
    111          7           0        7.385376   -0.116717   -0.581066
    112          6           0        6.431415   -0.981115   -1.173318
    113          6           0        5.170302   -0.353003   -1.284608
    114          6           0        5.495181    1.042641   -1.007465
    115          6           0        6.847012    1.068110   -0.559866
    116          6           0        3.939988   -0.934914   -1.956422
    117          6           0        4.894023    2.324851   -1.034747
    118          8           0        3.756704    2.695129   -1.297558
    119          6           0        6.072039    3.340645   -0.433582
    120          6           0        6.196825    4.438248   -1.449093
    121          8           0        6.493440    4.263156   -2.635606
    122          8           0        5.802685    5.709546   -0.935950
    123          6           0        5.889088    6.853772   -1.896442
    124          1           0       12.689000    2.440742    1.176505
    125          1           0       12.104564   -3.797369   -0.621132
    126          1           0        5.884893   -2.817041   -2.029027
    127          1           0        8.875463    4.826914   -0.301897
    128          1           0       10.979865    4.180872    1.701238
    129          1           0       10.898129    5.346968   -0.822641
    130          1           0       11.957811    3.889717   -1.000374
    131          1           0       12.242595    5.208570    0.125260
    132          1           0        9.093559    4.194515    2.685377
    133          1           0        7.522227    4.164830    2.026353
    134          1           0        8.856388    6.340931    3.081008
    135          1           0        7.369190    6.445250    2.071990
    136          1           0       15.495328    0.314772    0.674562
    137          1           0       15.006747    0.060976    2.392795
    138          1           0       14.626040    1.506819    1.507220
    139          1           0       16.270014   -2.180465    0.936888
    140          1           0       16.034571   -3.550042    1.937837
    141          1           0       15.480560   -1.865787    2.491776
    142          1           0        9.735973   -5.365784   -0.477589
    143          1           0        7.918487   -4.590505   -2.722072
    144          1           0        9.961241   -5.378801   -3.421960
    145          1           0       11.015851   -6.147344   -2.331844
    146          1           0       11.219141   -4.346091   -2.674965
    147          1           0        6.294119   -4.835540   -0.613413
    148          1           0        7.692349   -5.624567    0.107597
    149          1           0        5.836964   -6.547311   -2.116848
    150          1           0        6.549254   -7.647812   -0.890896
    151          1           0        7.532003   -6.919885   -2.225019
    152          1           0        3.480807   -1.523191   -1.162382
    153          1           0        4.210324   -1.591253   -2.782762
    154          1           0        3.311359   -0.235154   -2.508613
    155          1           0        5.761848    3.691976    0.551294
    156          1           0        5.212947    6.721331   -2.740300
    157          1           0        6.862020    7.102722   -2.320984
    158          1           0        5.493986    7.641489   -1.254964
 ---------------------------------------------------------------------

 SCF Done:  E(RwB97XD) =  -4070.63286488     A.U. after   19 cycles

 Excitation energies and oscillator strengths:

 Excited State   1:      Singlet-A      1.6257 eV  762.66 nm  f=0.4499  <S**2>=0.000
     310 -> 316        0.17793
     312 -> 314        0.68241
     310 <- 316        0.11282
 This state for optimization and/or second-order correction.
 Total Energy, E(TD-HF/TD-DFT) =  -4070.57312203
 Copying the excited state density for this state as the 1-particle RhoCI density.

 Excited State   2:      Singlet-A      1.6918 eV  732.87 nm  f=0.3303  <S**2>=0.000
     309 -> 315       -0.17752
     311 -> 313        0.68179
     309 <- 315       -0.11223

 Excited State   3:      Singlet-A      2.1416 eV  578.93 nm  f=0.1006  <S**2>=0.000
     310 -> 314        0.64211
     312 -> 316       -0.27574

 Excited State   4:      Singlet-A      2.1735 eV  570.44 nm  f=0.1524  <S**2>=0.000
     309 -> 313        0.64602
     311 -> 315        0.26301

 Excited State   5:      Singlet-A      3.3498 eV  370.12 nm  f=0.0000  <S**2>=0.000
     312 -> 313        0.70665

 The electronic state is 1-A.
 Alpha  occ. eigenvalues --  -46.95256 -46.94360 -19.29458 -19.29354 -19.24501
 Alpha  occ. eigenvalues --  -19.24395 -19.24359 -19.24113 -19.24107 -19.23217
 Alpha  occ. eigenvalues --  -14.47304 -14.46586 -14.46267 -14.46133 -14.44878
 Alpha  occ. eigenvalues --  -14.44560 -14.43930 -14.43545 -10.42980 -10.42907
 Alpha  occ. eigenvalues --  -10.39536 -10.39309 -10.39181 -10.38314 -10.35901
 Alpha  occ. eigenvalues --  -10.35871 -10.35726 -10.35360 -10.35110 -10.35087
 Alpha  occ. eigenvalues --  -10.34922 -10.34903 -10.34888 -10.34858 -10.34689
 Alpha  occ. eigenvalues --  -10.34469 -10.34451 -10.33990 -10.33850 -10.33586
 Alpha  occ. eigenvalues --  -10.33092 -10.32831 -10.32818 -10.32806 -10.32435
 Alpha  occ. eigenvalues --  -10.32330 -10.32224 -10.32213 -10.32084 -10.32076
 Alpha  occ. eigenvalues --  -10.32074 -10.32048 -10.32023 -10.31889 -10.31862
 Alpha  occ. eigenvalues --  -10.31805 -10.31682 -10.31626 -10.31580 -10.31557
 Alpha  occ. eigenvalues --  -10.31536 -10.31520 -10.31475 -10.31432 -10.31386
 Alpha  occ. eigenvalues --  -10.31225 -10.30844 -10.30799 -10.30522 -10.30482
 Alpha  occ. eigenvalues --  -10.30329 -10.30306 -10.30300 -10.30233 -10.30135
 Alpha  occ. eigenvalues --  -10.30058 -10.29894 -10.29757 -10.29676 -10.29615
 Alpha  occ. eigenvalues --  -10.29140 -10.29125 -10.28970 -10.28672 -10.28551
 Alpha  occ. eigenvalues --  -10.28515  -3.21106  -3.20468  -1.94705  -1.94185
 Alpha  occ. eigenvalues --   -1.94105  -1.94078  -1.93591  -1.93459  -1.17728
 Alpha  occ. eigenvalues --   -1.15564  -1.13440  -1.12546  -1.12009  -1.10811
 Alpha  occ. eigenvalues --   -1.08818  -1.07998  -1.07225  -1.06096  -1.05967
 Alpha  occ. eigenvalues --   -1.05417  -1.04601  -1.04563  -1.04434  -1.03500
 Alpha  occ. eigenvalues --   -0.95119  -0.94051  -0.91239  -0.90905  -0.90865
 Alpha  occ. eigenvalues --   -0.90463  -0.90373  -0.89810  -0.89717  -0.89422
 Alpha  occ. eigenvalues --   -0.88841  -0.88597  -0.88206  -0.87313  -0.86264
 Alpha  occ. eigenvalues --   -0.86049  -0.85572  -0.84897  -0.84427  -0.84163
 Alpha  occ. eigenvalues --   -0.84156  -0.83468  -0.82639  -0.82352  -0.81989
 Alpha  occ. eigenvalues --   -0.81793  -0.80819  -0.79894  -0.79193  -0.78998
 Alpha  occ. eigenvalues --   -0.78784  -0.78496  -0.77805  -0.77658  -0.77010
 Alpha  occ. eigenvalues --   -0.76288  -0.75130  -0.74311  -0.73624  -0.72786
 Alpha  occ. eigenvalues --   -0.71585  -0.70924  -0.70829  -0.70234  -0.69973
 Alpha  occ. eigenvalues --   -0.69682  -0.69335  -0.68891  -0.67744  -0.67200
 Alpha  occ. eigenvalues --   -0.67154  -0.66983  -0.66632  -0.66616  -0.66449
 Alpha  occ. eigenvalues --   -0.65683  -0.63898  -0.63388  -0.62449  -0.61963
 Alpha  occ. eigenvalues --   -0.61619  -0.61396  -0.61349  -0.60851  -0.60559
 Alpha  occ. eigenvalues --   -0.60541  -0.60141  -0.59754  -0.59454  -0.59326
 Alpha  occ. eigenvalues --   -0.58302  -0.57651  -0.57515  -0.57020  -0.56818
 Alpha  occ. eigenvalues --   -0.56579  -0.56518  -0.55975  -0.55402  -0.55388
 Alpha  occ. eigenvalues --   -0.55325  -0.55162  -0.55139  -0.55050  -0.54905
 Alpha  occ. eigenvalues --   -0.54651  -0.54548  -0.54455  -0.54306  -0.54236
 Alpha  occ. eigenvalues --   -0.53967  -0.53594  -0.53493  -0.53465  -0.53116
 Alpha  occ. eigenvalues --   -0.52912  -0.52520  -0.52502  -0.52156  -0.52142
 Alpha  occ. eigenvalues --   -0.51786  -0.51667  -0.51627  -0.51508  -0.51355
 Alpha  occ. eigenvalues --   -0.51223  -0.51044  -0.51027  -0.50993  -0.50751
 Alpha  occ. eigenvalues --   -0.50596  -0.50345  -0.50318  -0.50069  -0.49894
 Alpha  occ. eigenvalues --   -0.49615  -0.49589  -0.49436  -0.49218  -0.49141
 Alpha  occ. eigenvalues --   -0.49088  -0.48912  -0.48856  -0.48629  -0.48448
 Alpha  occ. eigenvalues --   -0.48107  -0.47768  -0.47756  -0.47624  -0.47057
 Alpha  occ. eigenvalues --   -0.46966  -0.46948  -0.46685  -0.46672  -0.46517
 Alpha  occ. eigenvalues --   -0.46503  -0.46244  -0.46188  -0.46134  -0.46101
 Alpha  occ. eigenvalues --   -0.45948  -0.45829  -0.45350  -0.45295  -0.45170
 Alpha  occ. eigenvalues --   -0.44961  -0.44947  -0.44828  -0.44775  -0.44605
 Alpha  occ. eigenvalues --   -0.44589  -0.44520  -0.44420  -0.44044  -0.43944
 Alpha  occ. eigenvalues --   -0.43770  -0.43594  -0.43473  -0.43240  -0.43202
 Alpha  occ. eigenvalues --   -0.42991  -0.42782  -0.42704  -0.42198  -0.42117
 Alpha  occ. eigenvalues --   -0.41809  -0.41669  -0.41343  -0.40612  -0.40566
 Alpha  occ. eigenvalues --   -0.40179  -0.39827  -0.39744  -0.39684  -0.39477
 Alpha  occ. eigenvalues --   -0.39268  -0.38993  -0.38410  -0.38128  -0.38084
 Alpha  occ. eigenvalues --   -0.37768  -0.37567  -0.36475  -0.36082  -0.35928
 Alpha  occ. eigenvalues --   -0.35846  -0.35555  -0.34671  -0.33871  -0.33382
 Alpha  occ. eigenvalues --   -0.33308  -0.33187  -0.33183  -0.32770  -0.32260
 Alpha  occ. eigenvalues --   -0.31974  -0.31759  -0.31612  -0.26164  -0.25526
 Alpha  occ. eigenvalues --   -0.23407  -0.22540
 Alpha virt. eigenvalues --   -0.07437  -0.06816   0.00232   0.00656   0.02221
 Alpha virt. eigenvalues --    0.02433   0.04182   0.04471   0.05713   0.06805
 Alpha virt. eigenvalues --    0.06892   0.07602   0.07868   0.07984   0.08420

 Mulliken charges:
               1
     1  Mg   0.955948
     2  C   -0.016013
     3  C   -0.070787
     4  C   -0.061911
     5  C   -0.075595
     6  N   -0.370235
     7  C   -0.076179
     8  C   -0.019279
     9  C   -0.128547
    10  C    0.112647
    11  C    0.003789
    12  C    0.005753
    13  C   -0.087409
    14  H    0.044514
    15  N   -0.442778
    16  C    0.155353
    17  C   -0.169965
    18  C   -0.085059
    19  C    0.095066
    20  C    0.079949
    21  C    0.058877
    22  O   -0.231815
    23  C   -0.015442
    24  N   -0.372835
    25  C    0.091577
    26  C   -0.107497
    27  C   -0.062909
    28  C    0.055521
    29  C    0.009158
    30  C    0.009871
    31  C   -0.064160
    32  N   -0.405565
    33  C    0.114464
    34  C   -0.207718
    35  C   -0.016158
    36  C    0.137502
    37  C    0.069720
    38  C    0.119873
    39  O   -0.197208
    40  C   -0.032939
    41  C    0.261161
    42  O   -0.259958
    43  O   -0.369158
    44  C    0.150812
    45  H   -0.002070
    46  H    0.022325
    47  H   -0.005377
    48  H    0.035574
    49  H    0.040902
    50  H    0.035004
    51  H    0.028394
    52  H    0.050453
    53  H    0.018559
    54  H    0.026139
    55  H    0.050335
    56  H    0.056684
    57  H    0.045714
    58  H    0.042454
    59  H    0.049970
    60  H    0.068666
    61  H    0.058991
    62  H    0.044197
    63  H    0.041827
    64  H    0.041110
    65  H    0.028199
    66  H    0.041964
    67  H    0.055319
    68  H    0.035643
    69  H    0.040654
    70  H    0.024350
    71  H    0.026358
    72  H    0.047075
    73  H    0.017619
    74  H    0.060257
    75  H    0.049267
    76  H    0.081792
    77  H    0.045031
    78  H    0.059452
    79  H    0.052732
    80  Mg   0.981268
    81  C   -0.071217
    82  C   -0.108191
    83  C   -0.077253
    84  C   -0.076952
    85  N   -0.334137
    86  C    0.003493
    87  C   -0.039962
    88  C   -0.140243
    89  C    0.072839
    90  C    0.018674
    91  C    0.018334
    92  C   -0.105845
    93  H    0.036831
    94  N   -0.531812
    95  C    0.234452
    96  C   -0.151243
    97  C   -0.045542
    98  C    0.152284
    99  C    0.052077
   100  C    0.017147
   101  O   -0.224831
   102  C   -0.005364
   103  N   -0.321243
   104  C    0.055752
   105  C   -0.094119
   106  C   -0.043645
   107  C    0.027484
   108  C    0.014744
   109  C   -0.005364
   110  C   -0.042839
   111  N   -0.449449
   112  C    0.124956
   113  C   -0.139218
   114  C   -0.084552
   115  C    0.187710
   116  C    0.059575
   117  C    0.113384
   118  O   -0.211065
   119  C   -0.083784
   120  C    0.288752
   121  O   -0.260143
   122  O   -0.404966
   123  C    0.140948
   124  H    0.004077
   125  H    0.032155
   126  H    0.000666
   127  H    0.043980
   128  H    0.038685
   129  H    0.033426
   130  H    0.049374
   131  H    0.023031
   132  H    0.024166
   133  H    0.025022
   134  H    0.048646
   135  H    0.067281
   136  H    0.063524
   137  H    0.049831
   138  H    0.030806
   139  H    0.053420
   140  H    0.056011
   141  H    0.038129
   142  H    0.048181
   143  H    0.027649
   144  H    0.030237
   145  H    0.045669
   146  H    0.051240
   147  H    0.025888
   148  H    0.026390
   149  H    0.037350
   150  H    0.054500
   151  H    0.027532
   152  H    0.053469
   153  H    0.038009
   154  H    0.065015
   155  H    0.071771
   156  H    0.059100
   157  H    0.054421
   158  H    0.053622
 Sum of Mulliken charges =  -0.00000

 Dipole moment (field-independent basis, Debye):
    X=              5.7029    Y=             -0.6762    Z=              7.5827  Tot=              9.5119
 Quadrupole moment (field-independent basis, Debye-Ang):
   XX=           -424.3920   YY=           -488.3466   ZZ=           -500.4963
   XY=             56.6164   XZ=             -9.7644   YZ=             35.6616

 Normal termination of Gaussian 16 at Mon Sep 20 00:49:04 2021.
