 Gaussian 16, Revision A.03,
 Gaussian 16:  ES64L-G16RevA.03 25-Dec-2016

 --------------------------------
 #p wB97XD/Def2SVP td=(nstates=5)
 --------------------------------

 --------------------------------
 TDDFT excited states in gaussian
 --------------------------------
 Symbolic Z-matrix:
 Charge =  0 Multiplicity = 1

                         Standard orientation:
 ---------------------------------------------------------------------
 Center     Atomic      Atomic             Coordinates (Angstroms)
 Number     Number       Type             X           Y           Z
 ---------------------------------------------------------------------
      1         12           0       -8.944619   -0.330808   -0.221865
      2          6           0       -7.173679    2.455910    0.876853
      3          6           0      -11.147200    1.670699   -1.801114
      4          6           0      -10.832803   -3.062915   -0.851019
      5          6           0       -6.944044   -2.267028    1.812477
      6          7           0       -9.119730    1.870809   -0.405096
      7          6           0       -8.163367    2.787000   -0.047998
      8          6           0       -8.535654    4.136805   -0.531876
      9          6           0       -9.823525    3.967430   -1.346165
     10          6           0      -10.092116    2.405383   -1.228650
     11          6           0      -11.027506    4.833255   -1.008987
     12          6           0       -7.311650    4.833220   -1.358267
     13          6           0       -6.718568    6.145487   -0.793936
     14          1           0       -6.323313    7.274548   -1.713661
     15          7           0      -10.668634   -0.671684   -1.288547
     16          6           0      -11.467677    0.300689   -1.871010
     17          6           0      -12.607983   -0.307560   -2.453740
     18          6           0      -12.547689   -1.702362   -2.187482
     19          6           0      -11.303031   -1.866946   -1.429613
     20          6           0      -13.573550    0.589823   -3.322548
     21          6           0      -13.622905   -2.719686   -2.565416
     22          8           0      -13.609507   -3.923285   -2.266110
     23          6           0      -14.742508   -2.307595   -3.416412
     24          7           0       -9.086072   -2.361756    0.562353
     25          6           0       -9.853249   -3.314872    0.075059
     26          6           0       -9.639692   -4.641864    0.837694
     27          6           0       -8.132494   -4.405753    1.246881
     28          6           0       -8.014662   -2.886150    1.185449
     29          6           0      -10.508297   -4.990977    2.102571
     30          6           0       -7.013800   -5.124955    0.350946
     31          6           0       -6.959696   -4.801962   -1.086002
     32          7           0       -7.342322   -0.049739    1.181402
     33          6           0       -6.594993   -0.966264    1.946828
     34          6           0       -5.608548   -0.259654    2.700089
     35          6           0       -5.819001    1.068068    2.385296
     36          6           0       -6.825025    1.132046    1.366263
     37          6           0       -4.794406   -0.797944    3.772519
     38          6           0       -5.269681    2.335761    2.506217
     39          8           0       -4.324817    2.761637    3.178453
     40          6           0       -6.153118    3.336017    1.629867
     41          6           0       -6.879581    4.190154    2.615645
     42          8           0       -7.655422    3.915116    3.506804
     43          8           0       -6.475456    5.434892    2.356076
     44          6           0       -7.087408    6.514076    3.198555
     45          1           0      -11.649500    2.392463   -2.448536
     46          1           0      -11.385059   -3.933598   -1.208753
     47          1           0       -6.277282   -2.901128    2.400166
     48          1           0       -8.726264    4.712093    0.373260
     49          1           0       -9.600260    4.141699   -2.398493
     50          1           0      -11.509301    4.112156   -0.349743
     51          1           0      -11.614960    5.179835   -1.859396
     52          1           0      -10.890706    5.750917   -0.437547
     53          1           0       -7.633483    4.994379   -2.386701
     54          1           0       -6.404687    4.228859   -1.388265
     55          1           0       -5.769876    5.869615   -0.332615
     56          1           0       -7.309869    6.540260    0.031201
     57          1           0      -14.591699    0.449803   -2.959906
     58          1           0      -13.449480    0.042523   -4.257063
     59          1           0      -13.440895    1.671430   -3.295547
     60          1           0      -15.291721   -1.480962   -2.967832
     61          1           0      -15.486736   -3.097731   -3.319722
     62          1           0      -14.497155   -2.154752   -4.467698
     63          1           0       -9.565447   -5.445851    0.105306
     64          1           0       -8.072636   -4.830815    2.248516
     65          1           0      -10.718270   -4.161180    2.776370
     66          1           0       -9.916764   -5.773674    2.578880
     67          1           0      -11.477490   -5.392670    1.805740
     68          1           0       -7.090722   -6.212501    0.356328
     69          1           0       -6.016791   -4.761608    0.599882
     70          1           0       -6.410031   -3.861944   -1.105317
     71          1           0       -7.889028   -4.629723   -1.629788
     72          1           0       -6.409574   -5.469484   -1.748423
     73          1           0       -5.458547   -0.765156    4.637022
     74          1           0       -3.887784   -0.237957    3.999941
     75          1           0       -4.389451   -1.786950    3.555314
     76          1           0       -5.575174    3.888268    0.888776
     77          1           0       -7.793014    7.008060    2.530196
     78          1           0       -6.306002    7.175212    3.572577
     79          1           0       -7.679290    6.203197    4.059904
     80         12           0        8.558875   -1.008090   -0.440137
     81          6           0       10.792799    1.677841   -0.616234
     82          6           0        6.019423    1.069913   -0.493388
     83          6           0        6.484990   -3.584901    0.488761
     84          6           0       11.279749   -3.184433    0.130732
     85          7           0        8.474503    1.087821   -0.643531
     86          6           0        9.469196    2.032670   -0.768296
     87          6           0        8.904858    3.406580   -1.106090
     88          6           0        7.381850    3.195341   -0.828679
     89          6           0        7.262688    1.712889   -0.754439
     90          6           0        6.713949    3.951282    0.299585
     91          6           0        9.274964    3.937716   -2.527765
     92          6           0        8.733799    5.331342   -2.864984
     93          1           0        9.754425    6.338638   -3.374075
     94          7           0        6.434617   -1.216491    0.024100
     95          6           0        5.542314   -0.232074   -0.211351
     96          6           0        4.213073   -0.745076   -0.027207
     97          6           0        4.341627   -2.087228    0.369813
     98          6           0        5.807356   -2.339746    0.317556
     99          6           0        2.958191    0.088174   -0.180619
    100          6           0        3.286593   -3.101731    0.667551
    101          8           0        3.472439   -4.248172    1.156418
    102          6           0        1.828375   -2.808214    0.336758
    103          7           0        8.847567   -3.038284    0.230328
    104          6           0        7.836984   -3.854144    0.610775
    105          6           0        8.405843   -5.358240    0.828532
    106          6           0        9.856232   -5.244624    0.240783
    107          6           0       10.022526   -3.764140    0.115545
    108          6           0        8.327461   -5.721024    2.362995
    109          6           0        9.916783   -5.833447   -1.215972
    110          6           0        8.911827   -5.358470   -2.253864
    111          7           0       10.692928   -0.845013   -0.322800
    112          6           0       11.612266   -1.831063   -0.091283
    113          6           0       12.865534   -1.232845   -0.118331
    114          6           0       12.676776    0.167820   -0.297276
    115          6           0       11.325039    0.356997   -0.416569
    116          6           0       14.200969   -1.845461    0.117562
    117          6           0       13.298938    1.507403   -0.399334
    118          8           0       14.451852    1.912366   -0.303716
    119          6           0       12.077947    2.533916   -0.715522
    120          6           0       12.182542    3.747862    0.137224
    121          8           0       12.595992    3.757520    1.334681
    122          8           0       11.932679    4.790393   -0.643475
    123          6           0       12.430191    6.050263   -0.124935
    124          1           0        5.136627    1.700117   -0.620709
    125          1           0        5.836356   -4.424246    0.750603
    126          1           0       12.098486   -3.903957    0.180533
    127          1           0        9.429778    4.080025   -0.428304
    128          1           0        6.754461    3.455342   -1.681946
    129          1           0        7.223374    4.843463    0.663672
    130          1           0        6.530368    3.265773    1.127351
    131          1           0        5.676097    4.107018    0.004453
    132          1           0        8.953392    3.219076   -3.282025
    133          1           0       10.359899    3.965887   -2.623454
    134          1           0        8.531204    5.907139   -1.962101
    135          1           0        7.856969    5.270762   -3.510328
    136          1           0        3.130966    1.154942   -0.322448
    137          1           0        2.326903    0.162647    0.704499
    138          1           0        2.316863   -0.239525   -0.999375
    139          1           0        1.482986   -2.029615    1.016331
    140          1           0        1.167273   -3.612919    0.657664
    141          1           0        1.656807   -2.618687   -0.723456
    142          1           0        7.767303   -6.069189    0.304180
    143          1           0       10.503485   -5.661371    1.012434
    144          1           0        7.706687   -5.036168    2.940941
    145          1           0        9.290886   -5.713487    2.873014
    146          1           0        7.861348   -6.685491    2.559418
    147          1           0        9.775220   -6.887360   -0.976320
    148          1           0       10.886023   -5.740192   -1.704915
    149          1           0        8.116159   -4.789444   -1.772531
    150          1           0        8.516080   -6.116667   -2.928730
    151          1           0        9.532061   -4.754496   -2.916199
    152          1           0       14.420016   -2.703986   -0.517800
    153          1           0       14.164584   -2.209757    1.143831
    154          1           0       15.012276   -1.121806    0.045783
    155          1           0       12.256499    2.832091   -1.748307
    156          1           0       12.899438    6.623960   -0.925152
    157          1           0       13.192555    5.986134    0.651092
    158          1           0       11.553988    6.590215    0.235461
 ---------------------------------------------------------------------

 SCF Done:  E(RwB97XD) =  -4070.59923529     A.U. after   19 cycles

 Excitation energies and oscillator strengths:

 Excited State   1:      Singlet-A      1.6401 eV  755.97 nm  f=0.6195  <S**2>=0.000
     309 -> 315        0.16610
     311 -> 313       -0.26626
     312 -> 314        0.63074
     309 <- 315        0.10639
 This state for optimization and/or second-order correction.
 Total Energy, E(TD-HF/TD-DFT) =  -4070.53896388
 Copying the excited state density for this state as the 1-particle RhoCI density.

 Excited State   2:      Singlet-A      1.6736 eV  740.80 nm  f=0.1796  <S**2>=0.000
     310 -> 316        0.15864
     311 -> 313        0.63304
     312 -> 314        0.26380
     310 <- 316        0.10293

 Excited State   3:      Singlet-A      2.0916 eV  592.78 nm  f=0.1410  <S**2>=0.000
     310 -> 313        0.65946
     311 -> 316       -0.23008

 Excited State   4:      Singlet-A      2.1207 eV  584.63 nm  f=0.1489  <S**2>=0.000
     309 -> 314        0.64807
     312 -> 315       -0.26566

 Excited State   5:      Singlet-A      3.0754 eV  403.15 nm  f=0.0088  <S**2>=0.000
     308 -> 313        0.67855

 The electronic state is 1-A.
 Alpha  occ. eigenvalues --  -46.95901 -46.95640 -19.31779 -19.30514 -19.24262
 Alpha  occ. eigenvalues --  -19.24164 -19.23945 -19.23889 -19.23574 -19.23386
 Alpha  occ. eigenvalues --  -14.47441 -14.46812 -14.46636 -14.46345 -14.44531
 Alpha  occ. eigenvalues --  -14.44287 -14.43808 -14.42514 -10.42995 -10.42691
 Alpha  occ. eigenvalues --  -10.39746 -10.39227 -10.38754 -10.38460 -10.36125
 Alpha  occ. eigenvalues --  -10.35705 -10.35698 -10.35667 -10.35463 -10.35105
 Alpha  occ. eigenvalues --  -10.34925 -10.34831 -10.34809 -10.34666 -10.34525
 Alpha  occ. eigenvalues --  -10.34319 -10.34051 -10.33982 -10.33920 -10.33339
 Alpha  occ. eigenvalues --  -10.33230 -10.33149 -10.33029 -10.32850 -10.32805
 Alpha  occ. eigenvalues --  -10.32562 -10.32520 -10.32510 -10.32329 -10.32281
 Alpha  occ. eigenvalues --  -10.32271 -10.32259 -10.32241 -10.32211 -10.32059
 Alpha  occ. eigenvalues --  -10.32028 -10.31820 -10.31818 -10.31743 -10.31739
 Alpha  occ. eigenvalues --  -10.31730 -10.31726 -10.31725 -10.31672 -10.31646
 Alpha  occ. eigenvalues --  -10.31418 -10.30954 -10.30743 -10.30496 -10.30482
 Alpha  occ. eigenvalues --  -10.30419 -10.30372 -10.30369 -10.30325 -10.30253
 Alpha  occ. eigenvalues --  -10.30170 -10.30143 -10.30067 -10.29993 -10.29621
 Alpha  occ. eigenvalues --  -10.29478 -10.29207 -10.28938 -10.28743 -10.28636
 Alpha  occ. eigenvalues --  -10.28183  -3.21765  -3.21486  -1.95355  -1.95081
 Alpha  occ. eigenvalues --   -1.94862  -1.94749  -1.94577  -1.94465  -1.20211
 Alpha  occ. eigenvalues --   -1.19429  -1.11523  -1.11090  -1.10917  -1.10587
 Alpha  occ. eigenvalues --   -1.09796  -1.08022  -1.07644  -1.07429  -1.06534
 Alpha  occ. eigenvalues --   -1.06305  -1.05628  -1.05247  -1.04885  -1.04388
 Alpha  occ. eigenvalues --   -0.94438  -0.93710  -0.91400  -0.91333  -0.91122
 Alpha  occ. eigenvalues --   -0.90854  -0.90544  -0.90271  -0.90098  -0.89888
 Alpha  occ. eigenvalues --   -0.89744  -0.89020  -0.88987  -0.87514  -0.86799
 Alpha  occ. eigenvalues --   -0.86634  -0.86345  -0.85599  -0.85216  -0.84711
 Alpha  occ. eigenvalues --   -0.84150  -0.83737  -0.83735  -0.83224  -0.82923
 Alpha  occ. eigenvalues --   -0.82566  -0.80937  -0.80773  -0.79822  -0.79517
 Alpha  occ. eigenvalues --   -0.79433  -0.79169  -0.78123  -0.77979  -0.77494
 Alpha  occ. eigenvalues --   -0.77109  -0.75708  -0.74638  -0.73882  -0.73633
 Alpha  occ. eigenvalues --   -0.71808  -0.71554  -0.71247  -0.71033  -0.70282
 Alpha  occ. eigenvalues --   -0.69972  -0.69613  -0.69404  -0.67953  -0.67612
 Alpha  occ. eigenvalues --   -0.67378  -0.67125  -0.66988  -0.66600  -0.66444
 Alpha  occ. eigenvalues --   -0.66170  -0.64629  -0.64278  -0.62989  -0.62634
 Alpha  occ. eigenvalues --   -0.62143  -0.61656  -0.61543  -0.61152  -0.60822
 Alpha  occ. eigenvalues --   -0.60478  -0.60459  -0.60125  -0.59440  -0.59167
 Alpha  occ. eigenvalues --   -0.58642  -0.58141  -0.57929  -0.57883  -0.57689
 Alpha  occ. eigenvalues --   -0.57649  -0.57321  -0.57218  -0.57211  -0.56982
 Alpha  occ. eigenvalues --   -0.56860  -0.56253  -0.55496  -0.55362  -0.55165
 Alpha  occ. eigenvalues --   -0.55153  -0.55028  -0.54865  -0.54817  -0.54399
 Alpha  occ. eigenvalues --   -0.54364  -0.54084  -0.53570  -0.53443  -0.53354
 Alpha  occ. eigenvalues --   -0.53267  -0.52833  -0.52526  -0.52440  -0.52341
 Alpha  occ. eigenvalues --   -0.51962  -0.51949  -0.51886  -0.51599  -0.51455
 Alpha  occ. eigenvalues --   -0.51331  -0.51201  -0.50982  -0.50735  -0.50662
 Alpha  occ. eigenvalues --   -0.50472  -0.50419  -0.50372  -0.50235  -0.50189
 Alpha  occ. eigenvalues --   -0.49954  -0.49518  -0.49321  -0.49113  -0.49064
 Alpha  occ. eigenvalues --   -0.48974  -0.48845  -0.48605  -0.48376  -0.48369
 Alpha  occ. eigenvalues --   -0.48210  -0.48129  -0.47997  -0.47800  -0.47693
 Alpha  occ. eigenvalues --   -0.47391  -0.47285  -0.47015  -0.46800  -0.46629
 Alpha  occ. eigenvalues --   -0.46550  -0.46299  -0.46288  -0.46250  -0.46132
 Alpha  occ. eigenvalues --   -0.45823  -0.45717  -0.45573  -0.45520  -0.45369
 Alpha  occ. eigenvalues --   -0.45287  -0.45164  -0.45073  -0.44745  -0.44703
 Alpha  occ. eigenvalues --   -0.44495  -0.44347  -0.44255  -0.44253  -0.43968
 Alpha  occ. eigenvalues --   -0.43920  -0.43817  -0.43743  -0.43310  -0.43254
 Alpha  occ. eigenvalues --   -0.43072  -0.43055  -0.42849  -0.42696  -0.42316
 Alpha  occ. eigenvalues --   -0.42308  -0.41618  -0.41424  -0.41077  -0.41077
 Alpha  occ. eigenvalues --   -0.40552  -0.40281  -0.40173  -0.39860  -0.39777
 Alpha  occ. eigenvalues --   -0.39314  -0.39297  -0.38795  -0.38665  -0.38498
 Alpha  occ. eigenvalues --   -0.38270  -0.38263  -0.36696  -0.36485  -0.36050
 Alpha  occ. eigenvalues --   -0.35969  -0.35875  -0.34969  -0.34080  -0.33911
 Alpha  occ. eigenvalues --   -0.33161  -0.33118  -0.32933  -0.32893  -0.32766
 Alpha  occ. eigenvalues --   -0.32388  -0.32004  -0.30555  -0.26158  -0.25914
 Alpha  occ. eigenvalues --   -0.23517  -0.23480
 Alpha virt. eigenvalues --   -0.07642  -0.07570   0.00068   0.00719   0.02059
 Alpha virt. eigenvalues --    0.02101   0.04128   0.04603   0.05006   0.05049
 Alpha virt. eigenvalues --    0.06693   0.07218   0.07518   0.08376   0.08445

 Mulliken charges:
               1
     1  Mg   0.938630
     2  C   -0.014723
     3  C   -0.073734
     4  C   -0.061931
     5  C   -0.108419
     6  N   -0.378568
     7  C    0.014191
     8  C   -0.066586
     9  C   -0.052726
    10  C   -0.019153
    11  C    0.003326
    12  C    0.004231
    13  C   -0.135607
    14  H    0.038225
    15  N   -0.463752
    16  C    0.198501
    17  C   -0.182411
    18  C   -0.073289
    19  C    0.131469
    20  C    0.082894
    21  C    0.052822
    22  O   -0.247591
    23  C   -0.010124
    24  N   -0.296243
    25  C    0.020027
    26  C   -0.042613
    27  C   -0.112826
    28  C    0.095788
    29  C    0.041854
    30  C    0.013924
    31  C   -0.088277
    32  N   -0.408599
    33  C    0.114862
    34  C   -0.135017
    35  C    0.022958
    36  C    0.107747
    37  C    0.062713
    38  C    0.078631
    39  O   -0.227913
    40  C   -0.091324
    41  C    0.269468
    42  O   -0.244022
    43  O   -0.347291
    44  C    0.120443
    45  H   -0.007085
    46  H    0.015075
    47  H   -0.001959
    48  H    0.047416
    49  H    0.033897
    50  H    0.048341
    51  H    0.042267
    52  H    0.041061
    53  H    0.041776
    54  H    0.041478
    55  H    0.057149
    56  H    0.038638
    57  H    0.038399
    58  H    0.060719
    59  H    0.053066
    60  H    0.039216
    61  H    0.046353
    62  H    0.075532
    63  H    0.020045
    64  H    0.023612
    65  H    0.050228
    66  H    0.041079
    67  H    0.051855
    68  H    0.036807
    69  H    0.028448
    70  H    0.021181
    71  H    0.034910
    72  H    0.039801
    73  H    0.075181
    74  H    0.054580
    75  H    0.036009
    76  H    0.055516
    77  H    0.047030
    78  H    0.068273
    79  H    0.074139
    80  Mg   0.940424
    81  C    0.025614
    82  C   -0.075634
    83  C   -0.054850
    84  C   -0.071460
    85  N   -0.396416
    86  C   -0.020320
    87  C   -0.029418
    88  C   -0.089468
    89  C    0.104527
    90  C    0.044041
    91  C    0.022517
    92  C   -0.128779
    93  H    0.030353
    94  N   -0.379671
    95  C    0.094708
    96  C   -0.111509
    97  C   -0.048941
    98  C    0.101876
    99  C    0.051744
   100  C    0.041341
   101  O   -0.259891
   102  C   -0.008727
   103  N   -0.351528
   104  C    0.069499
   105  C   -0.145443
   106  C   -0.029649
   107  C    0.038828
   108  C    0.014304
   109  C   -0.014221
   110  C   -0.051374
   111  N   -0.418093
   112  C    0.151588
   113  C   -0.204428
   114  C   -0.041222
   115  C    0.088450
   116  C    0.077144
   117  C    0.161787
   118  O   -0.202094
   119  C   -0.129039
   120  C    0.263442
   121  O   -0.280532
   122  O   -0.330310
   123  C    0.127240
   124  H   -0.027046
   125  H    0.024520
   126  H   -0.001373
   127  H    0.031575
   128  H    0.031467
   129  H    0.056382
   130  H    0.034150
   131  H    0.026467
   132  H    0.024198
   133  H    0.044771
   134  H    0.046770
   135  H    0.062093
   136  H    0.029715
   137  H    0.051315
   138  H    0.054651
   139  H    0.045226
   140  H    0.043109
   141  H    0.063625
   142  H    0.043483
   143  H    0.030642
   144  H    0.043741
   145  H    0.032464
   146  H    0.039828
   147  H    0.029348
   148  H    0.030846
   149  H    0.055353
   150  H    0.043492
   151  H    0.033792
   152  H    0.035005
   153  H    0.042785
   154  H    0.057822
   155  H    0.081845
   156  H    0.053298
   157  H    0.078503
   158  H    0.049730
 Sum of Mulliken charges =  -0.00000

 Dipole moment (field-independent basis, Debye):
    X=             -7.4562    Y=              2.1000    Z=             -7.0151  Tot=             10.4507
 Quadrupole moment (field-independent basis, Debye-Ang):
   XX=           -602.2057   YY=           -465.9645   ZZ=           -515.4598
   XY=            -52.9940   XZ=             -4.1580   YZ=            -19.6004

 Normal termination of Gaussian 16 at Sat Sep 18 19:14:36 2021.
