 Gaussian 16, Revision A.03,
 Gaussian 16:  ES64L-G16RevA.03 25-Dec-2016

 --------------------------------
 #p wB97XD/Def2SVP td=(nstates=5)
 --------------------------------

 --------------------------------
 TDDFT excited states in gaussian
 --------------------------------
 Symbolic Z-matrix:
 Charge =  0 Multiplicity = 1

                         Standard orientation:
 ---------------------------------------------------------------------
 Center     Atomic      Atomic             Coordinates (Angstroms)
 Number     Number       Type             X           Y           Z
 ---------------------------------------------------------------------
      1         12           0      -20.943724    0.493364   -0.374199
      2          6           0      -18.213482   -1.608624    0.069152
      3          6           0      -22.971031   -2.387326    0.260783
      4          6           0      -23.595911    2.432856   -0.276433
      5          6           0      -18.754215    3.240696   -0.247948
      6          7           0      -20.604020   -1.695491    0.224820
      7          6           0      -19.369225   -2.304426    0.240756
      8          6           0      -19.516955   -3.785577    0.599418
      9          6           0      -21.036195   -4.016022    0.369129
     10          6           0      -21.604981   -2.622366    0.318999
     11          6           0      -21.490715   -4.832456   -0.903907
     12          6           0      -19.058662   -4.108261    2.031149
     13          6           0      -19.016345   -5.546384    2.382093
     14          1           0      -18.087539   -5.965170    3.585019
     15          7           0      -23.032780    0.098102   -0.038499
     16          6           0      -23.657913   -1.140626    0.173303
     17          6           0      -25.070238   -0.910456    0.297649
     18          6           0      -25.263337    0.520112    0.280235
     19          6           0      -23.911052    1.088792   -0.050379
     20          6           0      -26.090113   -2.048021    0.579959
     21          6           0      -26.634901    1.172620    0.480331
     22          8           0      -27.662130    0.515852    0.518644
     23          6           0      -26.715666    2.644598    0.622626
     24          7           0      -21.122545    2.547684   -0.499300
     25          6           0      -22.342668    3.094882   -0.480621
     26          6           0      -22.219849    4.670920   -0.411525
     27          6           0      -20.675082    4.981291   -0.343945
     28          6           0      -20.111544    3.457117   -0.308459
     29          6           0      -22.991805    5.497756   -1.473165
     30          6           0      -20.340008    5.746294    0.954322
     31          6           0      -19.134411    6.689717    0.863868
     32          7           0      -18.885897    0.841533   -0.142544
     33          6           0      -18.129009    1.975752   -0.236343
     34          6           0      -16.713047    1.589159   -0.244742
     35          6           0      -16.719987    0.220289   -0.221803
     36          6           0      -18.023415   -0.203050   -0.093324
     37          6           0      -15.519939    2.536793   -0.405476
     38          6           0      -15.874688   -0.935106   -0.187667
     39          8           0      -14.676842   -1.063689   -0.251005
     40          6           0      -16.813284   -2.175311   -0.011681
     41          6           0      -16.681693   -3.014294   -1.234480
     42          8           0      -16.751492   -2.650213   -2.375542
     43          8           0      -16.598953   -4.362097   -0.843958
     44          6           0      -16.547369   -5.316374   -1.914770
     45          1           0      -23.501050   -3.335529    0.368113
     46          1           0      -24.377803    3.195722   -0.283764
     47          1           0      -18.041953    4.068037   -0.277876
     48          1           0      -18.975396   -4.332067   -0.171509
     49          1           0      -21.578128   -4.477868    1.193680
     50          1           0      -22.158414   -5.593887   -0.501354
     51          1           0      -20.738195   -5.058670   -1.659792
     52          1           0      -22.153837   -4.175378   -1.466404
     53          1           0      -19.703935   -3.736367    2.827488
     54          1           0      -18.079585   -3.665348    2.214061
     55          1           0      -18.707607   -6.077239    1.481552
     56          1           0      -20.031399   -5.889386    2.581625
     57          1           0      -26.259508   -1.815356    1.631763
     58          1           0      -25.684186   -3.059596    0.601210
     59          1           0      -27.038336   -2.151227    0.052076
     60          1           0      -25.965976    2.887427    1.375677
     61          1           0      -27.692572    2.896385    1.035686
     62          1           0      -26.483400    3.007496   -0.378904
     63          1           0      -22.685237    4.954678    0.532824
     64          1           0      -20.266910    5.497290   -1.212410
     65          1           0      -23.848952    5.959014   -0.981583
     66          1           0      -23.230999    4.845925   -2.312749
     67          1           0      -22.384418    6.344791   -1.792025
     68          1           0      -20.169061    4.968361    1.697996
     69          1           0      -21.181325    6.296371    1.376344
     70          1           0      -19.559440    7.653144    1.147482
     71          1           0      -18.630778    6.691630   -0.102883
     72          1           0      -18.398567    6.436583    1.627221
     73          1           0      -14.672915    2.365972    0.258134
     74          1           0      -15.986440    3.509176   -0.245757
     75          1           0      -15.300294    2.561295   -1.472951
     76          1           0      -16.457774   -2.703121    0.873347
     77          1           0      -15.534385   -5.718919   -1.917678
     78          1           0      -16.800990   -5.000363   -2.926942
     79          1           0      -17.266919   -6.100982   -1.682380
     80         12           0       20.604058    0.609677   -0.210107
     81          6           0       19.715726   -2.669504    0.147244
     82          6           0       17.307477    1.455876    0.828704
     83          6           0       21.552367    3.847682   -0.165957
     84          6           0       23.955175   -0.338865   -0.296216
     85          7           0       18.774064   -0.552788    0.805091
     86          6           0       18.611466   -1.888273    0.588855
     87          6           0       17.265847   -2.326713    1.096821
     88          6           0       16.478627   -0.968788    1.353474
     89          6           0       17.548216    0.102189    0.969835
     90          6           0       15.054528   -0.939829    0.933206
     91          6           0       17.172099   -3.394332    2.287107
     92          6           0       18.260361   -3.402338    3.319381
     93          1           0       17.828996   -3.419804    4.779145
     94          7           0       19.508755    2.387551    0.032654
     95          6           0       18.211735    2.535213    0.415656
     96          6           0       17.834007    3.913539    0.521306
     97          6           0       19.063649    4.646649    0.109194
     98          6           0       20.119121    3.620253   -0.034796
     99          6           0       16.545709    4.477164    0.890891
    100          6           0       19.252387    6.139038   -0.122117
    101          8           0       18.402513    6.903437    0.169620
    102          6           0       20.499767    6.816001   -0.618692
    103          7           0       22.457863    1.583609   -0.097138
    104          6           0       22.555891    2.909597   -0.277409
    105          6           0       24.091860    3.394787   -0.127812
    106          6           0       24.812794    2.024531   -0.554557
    107          6           0       23.698651    1.052595   -0.246977
    108          6           0       24.499684    4.593612   -0.988731
    109          6           0       26.169375    1.820939    0.143923
    110          6           0       27.409418    1.406014   -0.656682
    111          7           0       21.657881   -1.139204    0.011663
    112          6           0       23.015818   -1.417328   -0.082827
    113          6           0       23.261816   -2.806896   -0.095919
    114          6           0       22.004275   -3.386590   -0.062669
    115          6           0       21.031999   -2.326607    0.003865
    116          6           0       24.581332   -3.505525   -0.211157
    117          6           0       21.221147   -4.550390   -0.109164
    118          8           0       21.619058   -5.711849   -0.172066
    119          6           0       19.741966   -4.178678    0.195321
    120          6           0       18.976626   -4.862815   -0.927853
    121          8           0       18.003606   -5.625919   -0.749869
    122          8           0       19.461479   -4.370652   -2.116668
    123          6           0       18.784933   -4.629984   -3.411083
    124          1           0       16.327730    1.647732    1.270990
    125          1           0       21.874106    4.868423    0.050346
    126          1           0       25.003017   -0.628569   -0.395384
    127          1           0       16.774780   -2.904094    0.312649
    128          1           0       16.445431   -0.845025    2.435531
    129          1           0       14.792371   -0.057791    0.349046
    130          1           0       14.374636   -1.116884    1.766587
    131          1           0       14.869309   -1.757982    0.237138
    132          1           0       17.164650   -4.433940    1.959394
    133          1           0       16.299147   -3.173316    2.902074
    134          1           0       19.070251   -2.697331    3.134892
    135          1           0       18.724241   -4.388384    3.277935
    136          1           0       15.760645    3.790934    0.574840
    137          1           0       16.349699    5.459213    0.462125
    138          1           0       16.542830    4.561304    1.978234
    139          1           0       20.815152    5.983750   -1.248422
    140          1           0       21.224666    7.004479    0.172587
    141          1           0       20.374759    7.744298   -1.176374
    142          1           0       24.250032    3.542260    0.940951
    143          1           0       25.012200    1.846122   -1.610918
    144          1           0       25.113126    4.203898   -1.801541
    145          1           0       24.894475    5.393320   -0.362743
    146          1           0       23.653772    5.081515   -1.472053
    147          1           0       26.009418    1.067870    0.916007
    148          1           0       26.380715    2.717737    0.726516
    149          1           0       28.333154    1.967789   -0.517212
    150          1           0       27.208006    1.287181   -1.722106
    151          1           0       27.514009    0.358768   -0.374868
    152          1           0       24.553419   -4.444778   -0.764066
    153          1           0       24.954063   -3.704289    0.793931
    154          1           0       25.330694   -2.925032   -0.750876
    155          1           0       19.579872   -4.627552    1.174533
    156          1           0       18.798329   -3.763364   -4.071830
    157          1           0       17.750707   -4.904428   -3.202711
    158          1           0       19.123953   -5.432377   -4.065122
 ---------------------------------------------------------------------

 SCF Done:  E(RwB97XD) =  -4070.56314509     A.U. after   20 cycles

 Excitation energies and oscillator strengths:

 Excited State   1:      Singlet-A      1.5769 eV  786.27 nm  f=0.3876  <S**2>=0.000
     310 -> 316        0.17494
     311 -> 313        0.68654
     310 <- 316        0.11857
 This state for optimization and/or second-order correction.
 Total Energy, E(TD-HF/TD-DFT) =  -4070.50519600
 Copying the excited state density for this state as the 1-particle RhoCI density.

 Excited State   2:      Singlet-A      1.7221 eV  719.94 nm  f=0.3968  <S**2>=0.000
     309 -> 315       -0.17623
     312 -> 314        0.68546
     309 <- 315       -0.11114

 Excited State   3:      Singlet-A      2.0920 eV  592.66 nm  f=0.1437  <S**2>=0.000
     310 -> 313        0.64989
     311 -> 316       -0.25884

 Excited State   4:      Singlet-A      2.2424 eV  552.90 nm  f=0.1146  <S**2>=0.000
     309 -> 314        0.63516
     312 -> 315        0.29264

 Excited State   5:      Singlet-A      3.0079 eV  412.20 nm  f=0.0074  <S**2>=0.000
     307 -> 313       -0.21749
     308 -> 313        0.63599
     308 -> 317       -0.12452

 The electronic state is 1-A.
 Alpha  occ. eigenvalues --  -46.96295 -46.96003 -19.31464 -19.30171 -19.25401
 Alpha  occ. eigenvalues --  -19.25314 -19.23755 -19.23598 -19.23524 -19.22171
 Alpha  occ. eigenvalues --  -14.47228 -14.47163 -14.46967 -14.46638 -14.44862
 Alpha  occ. eigenvalues --  -14.44596 -14.44276 -14.43648 -10.44383 -10.43331
 Alpha  occ. eigenvalues --  -10.38857 -10.38341 -10.38112 -10.37455 -10.36554
 Alpha  occ. eigenvalues --  -10.36448 -10.36133 -10.35714 -10.35649 -10.35334
 Alpha  occ. eigenvalues --  -10.35191 -10.35055 -10.34999 -10.34949 -10.34913
 Alpha  occ. eigenvalues --  -10.34847 -10.34685 -10.34543 -10.34138 -10.33790
 Alpha  occ. eigenvalues --  -10.33434 -10.33159 -10.33031 -10.32947 -10.32565
 Alpha  occ. eigenvalues --  -10.32546 -10.32492 -10.32355 -10.32352 -10.32324
 Alpha  occ. eigenvalues --  -10.32271 -10.32269 -10.32242 -10.32237 -10.32011
 Alpha  occ. eigenvalues --  -10.31978 -10.31943 -10.31904 -10.31901 -10.31862
 Alpha  occ. eigenvalues --  -10.31765 -10.31610 -10.31581 -10.31546 -10.31431
 Alpha  occ. eigenvalues --  -10.31268 -10.30888 -10.30746 -10.30740 -10.30707
 Alpha  occ. eigenvalues --  -10.30697 -10.30675 -10.30492 -10.30395 -10.30323
 Alpha  occ. eigenvalues --  -10.30199 -10.30143 -10.30060 -10.29979 -10.29891
 Alpha  occ. eigenvalues --  -10.29869 -10.29611 -10.29427 -10.28992 -10.28923
 Alpha  occ. eigenvalues --  -10.27925  -3.22229  -3.21881  -1.95769  -1.95473
 Alpha  occ. eigenvalues --   -1.95385  -1.95169  -1.95006  -1.94835  -1.18759
 Alpha  occ. eigenvalues --   -1.17876  -1.13566  -1.12524  -1.12376  -1.11644
 Alpha  occ. eigenvalues --   -1.11017  -1.09476  -1.07200  -1.06593  -1.06420
 Alpha  occ. eigenvalues --   -1.05834  -1.05731  -1.04923  -1.04863  -1.04150
 Alpha  occ. eigenvalues --   -0.95734  -0.95215  -0.91711  -0.91282  -0.91178
 Alpha  occ. eigenvalues --   -0.90706  -0.90615  -0.90302  -0.90014  -0.89903
 Alpha  occ. eigenvalues --   -0.89175  -0.88419  -0.87897  -0.87777  -0.87146
 Alpha  occ. eigenvalues --   -0.86444  -0.85914  -0.85903  -0.85083  -0.84996
 Alpha  occ. eigenvalues --   -0.84521  -0.84087  -0.83237  -0.82929  -0.82821
 Alpha  occ. eigenvalues --   -0.82543  -0.80458  -0.79741  -0.79710  -0.79261
 Alpha  occ. eigenvalues --   -0.79064  -0.78903  -0.78644  -0.78126  -0.77491
 Alpha  occ. eigenvalues --   -0.77424  -0.75581  -0.75206  -0.74032  -0.73735
 Alpha  occ. eigenvalues --   -0.71965  -0.71373  -0.71307  -0.70980  -0.70341
 Alpha  occ. eigenvalues --   -0.69751  -0.68757  -0.68555  -0.68196  -0.67987
 Alpha  occ. eigenvalues --   -0.67552  -0.67499  -0.66963  -0.66683  -0.66612
 Alpha  occ. eigenvalues --   -0.66371  -0.65594  -0.64666  -0.62304  -0.62277
 Alpha  occ. eigenvalues --   -0.61871  -0.61448  -0.61290  -0.60848  -0.60785
 Alpha  occ. eigenvalues --   -0.60446  -0.60042  -0.59567  -0.59562  -0.59202
 Alpha  occ. eigenvalues --   -0.58494  -0.58494  -0.57828  -0.57791  -0.57447
 Alpha  occ. eigenvalues --   -0.57251  -0.57054  -0.56828  -0.56390  -0.56314
 Alpha  occ. eigenvalues --   -0.55947  -0.55943  -0.55520  -0.55273  -0.55273
 Alpha  occ. eigenvalues --   -0.55100  -0.55084  -0.54572  -0.54417  -0.54038
 Alpha  occ. eigenvalues --   -0.53846  -0.53745  -0.53721  -0.53655  -0.53610
 Alpha  occ. eigenvalues --   -0.53317  -0.53033  -0.52805  -0.52647  -0.52636
 Alpha  occ. eigenvalues --   -0.52538  -0.52297  -0.52197  -0.51902  -0.51792
 Alpha  occ. eigenvalues --   -0.51616  -0.51440  -0.51240  -0.51112  -0.50963
 Alpha  occ. eigenvalues --   -0.50934  -0.50825  -0.50240  -0.50129  -0.50061
 Alpha  occ. eigenvalues --   -0.49807  -0.49478  -0.49471  -0.49328  -0.49278
 Alpha  occ. eigenvalues --   -0.49142  -0.49080  -0.49029  -0.48985  -0.48806
 Alpha  occ. eigenvalues --   -0.48412  -0.48365  -0.48330  -0.48077  -0.48053
 Alpha  occ. eigenvalues --   -0.47779  -0.47567  -0.47458  -0.47296  -0.47252
 Alpha  occ. eigenvalues --   -0.47020  -0.46953  -0.46807  -0.46636  -0.46113
 Alpha  occ. eigenvalues --   -0.46076  -0.45930  -0.45862  -0.45642  -0.45293
 Alpha  occ. eigenvalues --   -0.45286  -0.45157  -0.44973  -0.44877  -0.44651
 Alpha  occ. eigenvalues --   -0.44633  -0.44543  -0.44362  -0.44331  -0.44235
 Alpha  occ. eigenvalues --   -0.44087  -0.44031  -0.43925  -0.43818  -0.43636
 Alpha  occ. eigenvalues --   -0.43407  -0.43406  -0.43195  -0.42488  -0.42445
 Alpha  occ. eigenvalues --   -0.42165  -0.42150  -0.41790  -0.41596  -0.40932
 Alpha  occ. eigenvalues --   -0.40729  -0.40617  -0.40117  -0.39935  -0.39660
 Alpha  occ. eigenvalues --   -0.39425  -0.38965  -0.38889  -0.38526  -0.38141
 Alpha  occ. eigenvalues --   -0.38021  -0.37527  -0.37195  -0.36789  -0.36269
 Alpha  occ. eigenvalues --   -0.35918  -0.35842  -0.35308  -0.33987  -0.33789
 Alpha  occ. eigenvalues --   -0.33056  -0.33054  -0.32605  -0.32569  -0.32258
 Alpha  occ. eigenvalues --   -0.32121  -0.31517  -0.30386  -0.26607  -0.26375
 Alpha  occ. eigenvalues --   -0.23510  -0.23481
 Alpha virt. eigenvalues --   -0.08028  -0.07370  -0.00022  -0.00011   0.02348
 Alpha virt. eigenvalues --    0.02991   0.04088   0.04830   0.04844   0.05209
 Alpha virt. eigenvalues --    0.06666   0.06958   0.07371   0.07586   0.08514

 Mulliken charges:
               1
     1  Mg   0.953576
     2  C   -0.018678
     3  C   -0.078074
     4  C   -0.102513
     5  C   -0.070919
     6  N   -0.331633
     7  C   -0.062090
     8  C    0.031379
     9  C   -0.153697
    10  C    0.038575
    11  C    0.036055
    12  C    0.038157
    13  C   -0.109476
    14  H    0.041429
    15  N   -0.434394
    16  C    0.181774
    17  C   -0.135623
    18  C   -0.121115
    19  C    0.236348
    20  C    0.062924
    21  C    0.024869
    22  O   -0.229589
    23  C    0.002053
    24  N   -0.396483
    25  C    0.068682
    26  C   -0.119392
    27  C   -0.096957
    28  C    0.094374
    29  C    0.022088
    30  C   -0.030780
    31  C   -0.043140
    32  N   -0.425008
    33  C    0.086183
    34  C   -0.233612
    35  C    0.018405
    36  C    0.142641
    37  C    0.107326
    38  C    0.094458
    39  O   -0.186556
    40  C   -0.073738
    41  C    0.260005
    42  O   -0.213117
    43  O   -0.378396
    44  C    0.124743
    45  H   -0.006353
    46  H   -0.019658
    47  H   -0.006032
    48  H    0.020850
    49  H    0.031385
    50  H    0.043437
    51  H    0.049287
    52  H    0.029110
    53  H    0.029828
    54  H    0.035471
    55  H    0.036432
    56  H    0.039787
    57  H    0.058601
    58  H    0.019596
    59  H    0.074534
    60  H    0.052402
    61  H    0.058013
    62  H    0.078964
    63  H    0.040405
    64  H    0.042192
    65  H    0.035898
    66  H    0.050031
    67  H    0.035377
    68  H    0.033116
    69  H    0.030001
    70  H    0.038271
    71  H    0.042309
    72  H    0.038973
    73  H    0.070632
    74  H    0.005438
    75  H    0.058172
    76  H    0.072900
    77  H    0.057145
    78  H    0.062209
    79  H    0.040215
    80  Mg   0.958563
    81  C    0.008395
    82  C   -0.083322
    83  C   -0.083897
    84  C   -0.096642
    85  N   -0.330772
    86  C   -0.005610
    87  C   -0.018748
    88  C   -0.091822
    89  C    0.035723
    90  C    0.041600
    91  C   -0.010771
    92  C   -0.168741
    93  H    0.030012
    94  N   -0.448336
    95  C    0.171495
    96  C   -0.181727
    97  C   -0.096590
    98  C    0.137225
    99  C    0.086276
   100  C    0.013442
   101  O   -0.209772
   102  C   -0.014967
   103  N   -0.361561
   104  C    0.084164
   105  C   -0.139044
   106  C   -0.084253
   107  C    0.074652
   108  C    0.050082
   109  C   -0.015342
   110  C   -0.044743
   111  N   -0.442095
   112  C    0.139348
   113  C   -0.188095
   114  C    0.058689
   115  C    0.109875
   116  C    0.078514
   117  C    0.062326
   118  O   -0.216468
   119  C   -0.121376
   120  C    0.312901
   121  O   -0.256599
   122  O   -0.379238
   123  C    0.145007
   124  H    0.008493
   125  H    0.003782
   126  H   -0.014236
   127  H    0.042159
   128  H    0.049763
   129  H    0.035512
   130  H    0.041517
   131  H    0.026975
   132  H    0.059189
   133  H    0.045162
   134  H    0.064472
   135  H    0.055831
   136  H    0.031751
   137  H    0.063210
   138  H    0.053828
   139  H    0.032392
   140  H    0.070884
   141  H    0.057979
   142  H    0.056083
   143  H    0.040599
   144  H    0.038884
   145  H    0.039546
   146  H    0.032336
   147  H    0.030267
   148  H    0.027687
   149  H    0.056379
   150  H    0.025815
   151  H    0.030879
   152  H    0.060931
   153  H    0.060853
   154  H    0.031897
   155  H    0.065596
   156  H    0.053569
   157  H    0.053962
   158  H    0.058297
 Sum of Mulliken charges =  -0.00000

 Dipole moment (field-independent basis, Debye):
    X=              0.1889    Y=              3.2761    Z=             -2.2213  Tot=              3.9626
 Quadrupole moment (field-independent basis, Debye-Ang):
   XX=           -311.2895   YY=           -523.2506   ZZ=           -501.1105
   XY=             34.9314   XZ=            -54.2892   YZ=              5.4811

 Normal termination of Gaussian 16 at Mon Sep 20 16:06:31 2021.
