 Gaussian 16, Revision A.03,
 Gaussian 16:  ES64L-G16RevA.03 25-Dec-2016

 --------------------------------
 #p wB97XD/Def2SVP td=(nstates=5)
 --------------------------------

 --------------------------------
 TDDFT excited states in gaussian
 --------------------------------
 Symbolic Z-matrix:
 Charge =  0 Multiplicity = 1

                         Standard orientation:
 ---------------------------------------------------------------------
 Center     Atomic      Atomic             Coordinates (Angstroms)
 Number     Number       Type             X           Y           Z
 ---------------------------------------------------------------------
      1         12           0      -22.108860    0.097332   -0.594938
      2          6           0      -18.729409   -0.148601    0.573494
      3          6           0      -22.355659   -3.397031   -0.097357
      4          6           0      -25.436087    0.374163   -0.931416
      5          6           0      -21.843419    3.530939   -0.364150
      6          7           0      -20.702383   -1.614767    0.146870
      7          6           0      -19.424051   -1.385943    0.573114
      8          6           0      -18.890216   -2.625794    1.272854
      9          6           0      -19.972554   -3.667836    0.764838
     10          6           0      -21.120849   -2.901608    0.227874
     11          6           0      -19.509238   -4.724724   -0.293259
     12          6           0      -18.741127   -2.355988    2.804558
     13          6           0      -17.430096   -2.819094    3.563181
     14          1           0      -17.531218   -3.852126    4.699839
     15          7           0      -23.620171   -1.253188   -0.714782
     16          6           0      -23.547382   -2.654939   -0.500839
     17          6           0      -24.846086   -3.268565   -0.708172
     18          6           0      -25.740040   -2.146171   -0.944054
     19          6           0      -24.918555   -0.952227   -0.874795
     20          6           0      -25.062567   -4.711092   -0.512169
     21          6           0      -27.241686   -2.322894   -1.228980
     22          8           0      -27.692077   -3.502771   -1.145877
     23          6           0      -28.222296   -1.191202   -1.603098
     24          7           0      -23.576951    1.712590   -0.387586
     25          6           0      -24.842151    1.598518   -0.743371
     26          6           0      -25.484360    2.944965   -0.651256
     27          6           0      -24.289087    3.927536   -0.528782
     28          6           0      -23.132711    2.997686   -0.324935
     29          6           0      -26.520372    3.407755   -1.762916
     30          6           0      -24.415595    5.024755    0.649793
     31          6           0      -24.507138    6.520476    0.260063
     32          7           0      -20.611640    1.431508   -0.225296
     33          6           0      -20.637573    2.773625   -0.164995
     34          6           0      -19.361230    3.305940    0.143987
     35          6           0      -18.574556    2.179488    0.395602
     36          6           0      -19.391954    1.037531    0.200523
     37          6           0      -18.882642    4.700499    0.210381
     38          6           0      -17.252620    1.827406    0.813440
     39          8           0      -16.343468    2.559762    1.133822
     40          6           0      -17.321400    0.181833    0.998532
     41          6           0      -16.334219   -0.460200    0.122449
     42          8           0      -16.111388   -0.154355   -1.055822
     43          8           0      -15.747650   -1.466620    0.859724
     44          6           0      -14.715342   -2.250188    0.183216
     45          1           0      -22.494080   -4.471497    0.032266
     46          1           0      -26.516669    0.529235   -0.937883
     47          1           0      -21.649010    4.596952   -0.500692
     48          1           0      -17.965649   -2.890681    0.759266
     49          1           0      -20.277084   -4.049918    1.739905
     50          1           0      -20.162481   -4.622454   -1.160995
     51          1           0      -19.599647   -5.758711    0.038871
     52          1           0      -18.505591   -4.581219   -0.694674
     53          1           0      -19.596999   -2.925727    3.165787
     54          1           0      -18.912436   -1.329066    3.126549
     55          1           0      -16.986087   -1.894968    3.932792
     56          1           0      -16.693868   -3.111473    2.815076
     57          1           0      -24.673980   -4.945990    0.479030
     58          1           0      -24.450191   -5.277508   -1.213481
     59          1           0      -26.062291   -5.106697   -0.693368
     60          1           0      -28.394552   -0.588369   -0.711306
     61          1           0      -29.003462   -1.695647   -2.170846
     62          1           0      -27.650780   -0.611979   -2.329120
     63          1           0      -26.081792    2.940950    0.259583
     64          1           0      -24.188471    4.281199   -1.554968
     65          1           0      -27.185540    4.095390   -1.240003
     66          1           0      -27.026019    2.524353   -2.152506
     67          1           0      -25.943222    3.941055   -2.518491
     68          1           0      -23.538601    4.835215    1.268489
     69          1           0      -25.241528    4.718495    1.291641
     70          1           0      -23.810764    7.145404    0.817604
     71          1           0      -25.528750    6.860950    0.430907
     72          1           0      -24.366015    6.705082   -0.805045
     73          1           0      -17.796159    4.757851    0.152392
     74          1           0      -19.268967    4.936734    1.202037
     75          1           0      -19.534610    5.309174   -0.416034
     76          1           0      -17.271827   -0.100678    2.049508
     77          1           0      -13.956912   -1.612180   -0.271038
     78          1           0      -15.174678   -2.893984   -0.568323
     79          1           0      -14.211839   -2.873605    0.922129
     80         12           0       21.465279    0.745983   -0.211324
     81          6           0       21.340971   -2.722348    0.112383
     82          6           0       18.510586    0.975097    1.549889
     83          6           0       21.835539    3.989510   -0.544092
     84          6           0       24.993630    0.424122   -1.065541
     85          7           0       20.033261   -0.815528    0.687361
     86          6           0       20.194972   -2.171868    0.729998
     87          6           0       19.027847   -2.826590    1.379533
     88          6           0       18.137102   -1.620688    1.880649
     89          6           0       18.916128   -0.355006    1.348684
     90          6           0       16.633899   -1.732311    1.521807
     91          6           0       19.429413   -3.766220    2.542406
     92          6           0       18.798308   -5.146257    2.366170
     93          1           0       17.981844   -5.721799    3.562473
     94          7           0       20.302294    2.278354    0.395092
     95          6           0       19.087491    2.200711    1.074615
     96          6           0       18.610531    3.574036    1.174231
     97          6           0       19.561707    4.492529    0.527887
     98          6           0       20.632803    3.585089    0.007713
     99          6           0       17.458537    3.945873    1.965741
    100          6           0       19.429302    5.956245    0.618709
    101          8           0       18.506520    6.525937    1.162633
    102          6           0       20.463389    6.914591    0.140062
    103          7           0       23.134958    1.956104   -0.671476
    104          6           0       22.925895    3.266526   -1.019538
    105          6           0       24.230001    3.906906   -1.445966
    106          6           0       25.258415    2.887923   -1.124625
    107          6           0       24.465217    1.703134   -0.874249
    108          6           0       24.246308    4.480220   -2.922064
    109          6           0       26.037931    3.193789    0.200218
    110          6           0       27.412648    2.712131    0.277401
    111          7           0       22.921049   -0.811616   -0.474350
    112          6           0       24.262824   -0.807237   -0.877492
    113          6           0       24.659080   -2.144063   -1.191735
    114          6           0       23.588904   -2.934858   -0.790367
    115          6           0       22.541457   -2.069643   -0.311397
    116          6           0       25.981924   -2.504513   -1.760027
    117          6           0       23.149001   -4.264448   -0.637816
    118          8           0       23.709287   -5.305778   -0.898085
    119          6           0       21.696598   -4.190020   -0.116287
    120          6           0       20.814041   -4.908646   -1.049093
    121          8           0       20.290799   -4.426452   -2.067773
    122          8           0       20.779815   -6.242926   -0.714430
    123          6           0       19.897458   -7.154822   -1.424121
    124          1           0       17.544387    0.967820    2.057590
    125          1           0       22.115193    5.039352   -0.662364
    126          1           0       26.046805    0.375374   -1.350050
    127          1           0       18.437807   -3.206519    0.545027
    128          1           0       18.098062   -1.529667    2.965705
    129          1           0       16.527103   -2.795402    1.302723
    130          1           0       16.265729   -1.062725    0.744428
    131          1           0       16.026879   -1.508115    2.398602
    132          1           0       19.048599   -3.456625    3.515491
    133          1           0       20.518669   -3.802117    2.540551
    134          1           0       19.706128   -5.748145    2.327760
    135          1           0       18.273177   -5.141401    1.412157
    136          1           0       17.021338    3.033649    2.372266
    137          1           0       16.631134    4.401742    1.421143
    138          1           0       17.781362    4.565640    2.803004
    139          1           0       20.649662    6.487348   -0.845280
    140          1           0       21.341155    6.828337    0.781065
    141          1           0       20.063974    7.926697    0.071642
    142          1           0       24.295992    4.779246   -0.796802
    143          1           0       25.935982    2.578327   -1.920401
    144          1           0       23.239914    4.484686   -3.341112
    145          1           0       24.998950    4.041188   -3.577886
    146          1           0       24.434098    5.552786   -2.962917
    147          1           0       25.468307    2.809742    1.046555
    148          1           0       26.099962    4.268642    0.369616
    149          1           0       28.069834    3.464915   -0.159297
    150          1           0       27.537621    1.738350   -0.197283
    151          1           0       27.755905    2.748933    1.311791
    152          1           0       26.310195   -1.767221   -2.492526
    153          1           0       26.021918   -3.506285   -2.188061
    154          1           0       26.662891   -2.378167   -0.918296
    155          1           0       21.542439   -4.770810    0.793216
    156          1           0       20.141233   -7.439625   -2.447677
    157          1           0       18.876132   -6.776691   -1.384116
    158          1           0       19.993169   -8.090844   -0.875097
 ---------------------------------------------------------------------

 SCF Done:  E(RwB97XD) =  -4070.56165053     A.U. after   20 cycles

 Excitation energies and oscillator strengths:

 Excited State   1:      Singlet-A      1.6144 eV  768.01 nm  f=0.3653  <S**2>=0.000
     309 -> 315        0.19421
     311 -> 313        0.68108
     309 <- 315        0.12112
 This state for optimization and/or second-order correction.
 Total Energy, E(TD-HF/TD-DFT) =  -4070.50232410
 Copying the excited state density for this state as the 1-particle RhoCI density.

 Excited State   2:      Singlet-A      1.6376 eV  757.09 nm  f=0.3908  <S**2>=0.000
     310 -> 316       -0.19089
     312 -> 314        0.68299
     310 <- 316       -0.12117

 Excited State   3:      Singlet-A      2.1298 eV  582.13 nm  f=0.0992  <S**2>=0.000
     309 -> 313        0.63360
     311 -> 315       -0.30003

 Excited State   4:      Singlet-A      2.1989 eV  563.85 nm  f=0.1292  <S**2>=0.000
     310 -> 314        0.63870
     312 -> 316        0.29221

 Excited State   5:      Singlet-A      3.2691 eV  379.26 nm  f=0.0024  <S**2>=0.000
     305 -> 313       -0.24530
     306 -> 313        0.52260
     308 -> 313        0.35480

 The electronic state is 1-A.
 Alpha  occ. eigenvalues --  -46.95280 -46.95249 -19.31505 -19.30096 -19.25525
 Alpha  occ. eigenvalues --  -19.24812 -19.24315 -19.23395 -19.23181 -19.22401
 Alpha  occ. eigenvalues --  -14.46924 -14.46547 -14.46545 -14.45967 -14.44905
 Alpha  occ. eigenvalues --  -14.44553 -14.44426 -14.43758 -10.43951 -10.42940
 Alpha  occ. eigenvalues --  -10.39497 -10.39248 -10.38197 -10.37645 -10.36197
 Alpha  occ. eigenvalues --  -10.35677 -10.35647 -10.35584 -10.35406 -10.35214
 Alpha  occ. eigenvalues --  -10.35145 -10.35081 -10.34786 -10.34673 -10.34454
 Alpha  occ. eigenvalues --  -10.34397 -10.34391 -10.34324 -10.33885 -10.33774
 Alpha  occ. eigenvalues --  -10.33098 -10.33092 -10.32964 -10.32961 -10.32787
 Alpha  occ. eigenvalues --  -10.32719 -10.32705 -10.32700 -10.32425 -10.32373
 Alpha  occ. eigenvalues --  -10.32267 -10.32254 -10.32200 -10.32064 -10.31854
 Alpha  occ. eigenvalues --  -10.31849 -10.31670 -10.31631 -10.31621 -10.31557
 Alpha  occ. eigenvalues --  -10.31544 -10.31438 -10.31407 -10.31338 -10.31318
 Alpha  occ. eigenvalues --  -10.31234 -10.31201 -10.31192 -10.31125 -10.31106
 Alpha  occ. eigenvalues --  -10.30667 -10.30667 -10.30558 -10.30478 -10.30354
 Alpha  occ. eigenvalues --  -10.30329 -10.30278 -10.30125 -10.30090 -10.29895
 Alpha  occ. eigenvalues --  -10.29357 -10.29056 -10.28981 -10.28780 -10.28748
 Alpha  occ. eigenvalues --  -10.28617  -3.21246  -3.21218  -1.94824  -1.94810
 Alpha  occ. eigenvalues --   -1.94357  -1.94350  -1.94230  -1.94174  -1.18729
 Alpha  occ. eigenvalues --   -1.17627  -1.13086  -1.12284  -1.12055  -1.10373
 Alpha  occ. eigenvalues --   -1.09454  -1.08896  -1.07469  -1.06984  -1.06755
 Alpha  occ. eigenvalues --   -1.05813  -1.05753  -1.05004  -1.04393  -1.03625
 Alpha  occ. eigenvalues --   -0.95162  -0.94631  -0.92646  -0.91455  -0.91243
 Alpha  occ. eigenvalues --   -0.90988  -0.90205  -0.90004  -0.89889  -0.89643
 Alpha  occ. eigenvalues --   -0.89417  -0.89184  -0.88267  -0.87972  -0.87163
 Alpha  occ. eigenvalues --   -0.86588  -0.86449  -0.85761  -0.85373  -0.84608
 Alpha  occ. eigenvalues --   -0.84496  -0.83920  -0.83374  -0.83332  -0.82786
 Alpha  occ. eigenvalues --   -0.82445  -0.80586  -0.80188  -0.79912  -0.79591
 Alpha  occ. eigenvalues --   -0.79063  -0.78823  -0.78241  -0.78223  -0.77337
 Alpha  occ. eigenvalues --   -0.77286  -0.75397  -0.75200  -0.74196  -0.74022
 Alpha  occ. eigenvalues --   -0.71729  -0.71381  -0.71314  -0.71026  -0.70434
 Alpha  occ. eigenvalues --   -0.69942  -0.69471  -0.68745  -0.68405  -0.68069
 Alpha  occ. eigenvalues --   -0.67890  -0.67622  -0.67287  -0.67115  -0.66779
 Alpha  occ. eigenvalues --   -0.66691  -0.64957  -0.64017  -0.62714  -0.62144
 Alpha  occ. eigenvalues --   -0.61928  -0.61506  -0.61471  -0.61451  -0.60971
 Alpha  occ. eigenvalues --   -0.60900  -0.60400  -0.59927  -0.59595  -0.59379
 Alpha  occ. eigenvalues --   -0.58396  -0.58180  -0.57901  -0.57819  -0.57600
 Alpha  occ. eigenvalues --   -0.57412  -0.57133  -0.56852  -0.56471  -0.56366
 Alpha  occ. eigenvalues --   -0.56170  -0.55664  -0.55291  -0.55141  -0.54892
 Alpha  occ. eigenvalues --   -0.54743  -0.54575  -0.54490  -0.54229  -0.54058
 Alpha  occ. eigenvalues --   -0.54027  -0.53678  -0.53643  -0.53584  -0.53351
 Alpha  occ. eigenvalues --   -0.53212  -0.53185  -0.53180  -0.52527  -0.52356
 Alpha  occ. eigenvalues --   -0.52248  -0.51991  -0.51960  -0.51899  -0.51614
 Alpha  occ. eigenvalues --   -0.51526  -0.51350  -0.51346  -0.51057  -0.50772
 Alpha  occ. eigenvalues --   -0.50727  -0.50479  -0.50409  -0.50404  -0.49855
 Alpha  occ. eigenvalues --   -0.49654  -0.49602  -0.49543  -0.49510  -0.49397
 Alpha  occ. eigenvalues --   -0.49075  -0.48983  -0.48940  -0.48718  -0.48575
 Alpha  occ. eigenvalues --   -0.48566  -0.48387  -0.48242  -0.48164  -0.48088
 Alpha  occ. eigenvalues --   -0.47892  -0.47669  -0.47543  -0.47379  -0.47238
 Alpha  occ. eigenvalues --   -0.46964  -0.46883  -0.46518  -0.46476  -0.46460
 Alpha  occ. eigenvalues --   -0.45971  -0.45684  -0.45587  -0.45572  -0.45533
 Alpha  occ. eigenvalues --   -0.45415  -0.45209  -0.45162  -0.45019  -0.44981
 Alpha  occ. eigenvalues --   -0.44909  -0.44857  -0.44771  -0.44464  -0.44244
 Alpha  occ. eigenvalues --   -0.43984  -0.43646  -0.43538  -0.43491  -0.43364
 Alpha  occ. eigenvalues --   -0.43143  -0.43083  -0.43081  -0.42784  -0.42586
 Alpha  occ. eigenvalues --   -0.42242  -0.42164  -0.42140  -0.41107  -0.40865
 Alpha  occ. eigenvalues --   -0.40660  -0.40449  -0.40216  -0.39769  -0.39649
 Alpha  occ. eigenvalues --   -0.39591  -0.39298  -0.39067  -0.38549  -0.38370
 Alpha  occ. eigenvalues --   -0.38298  -0.37752  -0.37147  -0.36345  -0.36102
 Alpha  occ. eigenvalues --   -0.35735  -0.35292  -0.35198  -0.33597  -0.33555
 Alpha  occ. eigenvalues --   -0.33149  -0.32660  -0.32325  -0.32239  -0.32039
 Alpha  occ. eigenvalues --   -0.31687  -0.31552  -0.31535  -0.26227  -0.26085
 Alpha  occ. eigenvalues --   -0.23374  -0.23115
 Alpha virt. eigenvalues --   -0.07516  -0.07293  -0.00594   0.00178   0.02317
 Alpha virt. eigenvalues --    0.02385   0.04465   0.04500   0.05477   0.05838
 Alpha virt. eigenvalues --    0.06402   0.06493   0.07454   0.07573   0.07937

 Mulliken charges:
               1
     1  Mg   0.980517
     2  C   -0.124088
     3  C   -0.080607
     4  C   -0.101727
     5  C   -0.096409
     6  N   -0.314463
     7  C   -0.024788
     8  C   -0.047893
     9  C   -0.085485
    10  C    0.060990
    11  C    0.030228
    12  C   -0.009435
    13  C   -0.101183
    14  H    0.050307
    15  N   -0.481203
    16  C    0.127507
    17  C   -0.142728
    18  C   -0.097841
    19  C    0.230187
    20  C    0.077025
    21  C    0.025799
    22  O   -0.277725
    23  C    0.020163
    24  N   -0.347017
    25  C    0.019105
    26  C   -0.090648
    27  C   -0.108989
    28  C    0.094254
    29  C    0.033653
    30  C    0.010065
    31  C   -0.047593
    32  N   -0.436740
    33  C    0.106361
    34  C   -0.206191
    35  C   -0.066829
    36  C    0.192849
    37  C    0.118114
    38  C    0.144199
    39  O   -0.188412
    40  C   -0.050602
    41  C    0.292351
    42  O   -0.254419
    43  O   -0.371225
    44  C    0.136633
    45  H   -0.000115
    46  H   -0.036521
    47  H    0.002977
    48  H    0.018612
    49  H    0.029554
    50  H    0.037179
    51  H    0.045327
    52  H    0.037056
    53  H    0.031084
    54  H    0.053693
    55  H    0.048099
    56  H    0.042435
    57  H    0.047762
    58  H    0.033321
    59  H    0.069382
    60  H    0.083958
    61  H    0.065083
    62  H    0.043334
    63  H    0.038402
    64  H    0.032689
    65  H    0.040663
    66  H    0.041130
    67  H    0.031834
    68  H    0.033605
    69  H    0.025547
    70  H    0.046679
    71  H    0.035590
    72  H    0.033283
    73  H    0.081001
    74  H    0.046775
    75  H    0.029910
    76  H    0.059554
    77  H    0.065659
    78  H    0.052744
    79  H    0.056647
    80  Mg   0.953388
    81  C    0.048148
    82  C   -0.057444
    83  C   -0.122032
    84  C   -0.096300
    85  N   -0.342939
    86  C   -0.024052
    87  C   -0.029505
    88  C   -0.145873
    89  C    0.045797
    90  C    0.012163
    91  C    0.023685
    92  C   -0.137310
    93  H    0.039211
    94  N   -0.537386
    95  C    0.202076
    96  C   -0.171438
    97  C   -0.063999
    98  C    0.269901
    99  C    0.097423
   100  C   -0.011530
   101  O   -0.238970
   102  C    0.006752
   103  N   -0.368883
   104  C    0.069664
   105  C   -0.083400
   106  C   -0.081750
   107  C    0.063109
   108  C    0.032034
   109  C    0.003099
   110  C   -0.018630
   111  N   -0.407131
   112  C    0.111859
   113  C   -0.185395
   114  C   -0.015176
   115  C    0.112857
   116  C    0.089625
   117  C    0.108456
   118  O   -0.187630
   119  C   -0.127589
   120  C    0.253652
   121  O   -0.269047
   122  O   -0.361206
   123  C    0.149015
   124  H    0.001521
   125  H   -0.005705
   126  H   -0.002764
   127  H    0.049532
   128  H    0.042575
   129  H    0.038427
   130  H    0.051726
   131  H    0.032396
   132  H    0.051891
   133  H    0.051982
   134  H    0.064230
   135  H    0.053277
   136  H    0.001040
   137  H    0.057512
   138  H    0.064873
   139  H    0.039574
   140  H    0.062490
   141  H    0.058225
   142  H    0.032798
   143  H    0.027095
   144  H    0.034041
   145  H    0.045458
   146  H    0.027827
   147  H    0.039414
   148  H    0.019988
   149  H    0.027116
   150  H    0.029229
   151  H    0.034552
   152  H    0.036186
   153  H    0.067933
   154  H    0.051118
   155  H    0.050901
   156  H    0.058133
   157  H    0.047290
   158  H    0.050822
 Sum of Mulliken charges =  -0.00000

 Dipole moment (field-independent basis, Debye):
    X=              0.3539    Y=              2.0787    Z=              1.0358  Tot=              2.3493
 Quadrupole moment (field-independent basis, Debye-Ang):
   XX=           -404.9415   YY=           -511.9880   ZZ=           -512.4010
   XY=              2.1689   XZ=              0.9261   YZ=            -23.2718

 Normal termination of Gaussian 16 at Sun Sep 19 03:45:31 2021.
