 Gaussian 16, Revision A.03,
 Gaussian 16:  ES64L-G16RevA.03 25-Dec-2016

 --------------------------------
 #p wB97XD/Def2SVP td=(nstates=5)
 --------------------------------

 --------------------------------
 TDDFT excited states in gaussian
 --------------------------------
 Symbolic Z-matrix:
 Charge =  0 Multiplicity = 1

                         Standard orientation:
 ---------------------------------------------------------------------
 Center     Atomic      Atomic             Coordinates (Angstroms)
 Number     Number       Type             X           Y           Z
 ---------------------------------------------------------------------
      1         12           0        8.623632   -0.367003    0.159095
      2          6           0        7.167841    2.630060   -1.030120
      3          6           0       10.834907    1.519902    2.019611
      4          6           0       10.183826   -3.239372    1.051796
      5          6           0        6.497431   -2.233642   -1.910769
      6          7           0        8.946455    1.818078    0.311465
      7          6           0        8.107999    2.859711   -0.078453
      8          6           0        8.605355    4.248652    0.496780
      9          6           0        9.918192    3.841985    1.217610
     10          6           0        9.960127    2.298803    1.152554
     11          6           0       11.271362    4.456948    0.698109
     12          6           0        7.547080    5.101795    1.309124
     13          6           0        7.254826    6.459957    0.746676
     14          1           0        7.006528    7.609427    1.801928
     15          7           0       10.248539   -0.737571    1.338650
     16          6           0       11.005648    0.141026    2.086714
     17          6           0       12.055997   -0.591607    2.776436
     18          6           0       11.910385   -1.986181    2.529945
     19          6           0       10.714680   -2.054063    1.611580
     20          6           0       13.051511    0.051196    3.763058
     21          6           0       12.707287   -3.168972    3.070732
     22          8           0       12.427279   -4.329554    2.851600
     23          6           0       13.929764   -3.037611    4.068870
     24          7           0        8.426739   -2.457988   -0.443026
     25          6           0        9.177414   -3.425150    0.067821
     26          6           0        8.772023   -4.838865   -0.482798
     27          6           0        7.451446   -4.521872   -1.290153
     28          6           0        7.419782   -2.966030   -1.202754
     29          6           0        9.942431   -5.525738   -1.244243
     30          6           0        6.246567   -5.246545   -0.723541
     31          6           0        5.317496   -5.834840   -1.783947
     32          7           0        7.206433    0.009629   -1.320436
     33          6           0        6.352347   -0.830964   -2.008255
     34          6           0        5.573420   -0.017428   -2.890265
     35          6           0        5.802112    1.335522   -2.536783
     36          6           0        6.832579    1.329985   -1.555722
     37          6           0        4.624114   -0.507325   -3.917007
     38          6           0        5.359023    2.722386   -2.762570
     39          8           0        4.600340    3.232341   -3.581863
     40          6           0        6.297405    3.646163   -1.664512
     41          6           0        7.031280    4.643266   -2.379431
     42          8           0        8.218875    4.589368   -2.614979
     43          8           0        6.237889    5.735680   -2.648006
     44          6           0        6.942911    6.774253   -3.439845
     45          1           0       11.471116    2.069785    2.716533
     46          1           0       10.677691   -4.188789    1.266550
     47          1           0        5.817262   -2.892774   -2.455446
     48          1           0        8.976210    4.779372   -0.379430
     49          1           0        9.872412    4.102114    2.275167
     50          1           0       11.864504    4.692323    1.582335
     51          1           0       11.042185    5.343569    0.107448
     52          1           0       11.857730    3.786882    0.069081
     53          1           0        7.929562    5.154915    2.328525
     54          1           0        6.610032    4.545394    1.281706
     55          1           0        6.353588    6.417320    0.133666
     56          1           0        8.122976    6.665894    0.121207
     57          1           0       12.787349   -0.360905    4.736316
     58          1           0       12.825703    1.114154    3.851355
     59          1           0       14.106026   -0.158836    3.579948
     60          1           0       13.584554   -2.497595    4.951184
     61          1           0       14.848883   -2.723898    3.573107
     62          1           0       14.234208   -4.066527    4.258210
     63          1           0        8.470272   -5.538500    0.296405
     64          1           0        7.668296   -4.783067   -2.326128
     65          1           0        9.571045   -5.858311   -2.213973
     66          1           0       10.419263   -6.324482   -0.675578
     67          1           0       10.735034   -4.801476   -1.424913
     68          1           0        5.658528   -4.611581   -0.061680
     69          1           0        6.494046   -6.060353   -0.040179
     70          1           0        5.580725   -5.486051   -2.782577
     71          1           0        4.318488   -5.465374   -1.550780
     72          1           0        5.237885   -6.919732   -1.713089
     73          1           0        4.518679   -1.586432   -4.028442
     74          1           0        4.810834    0.090940   -4.809627
     75          1           0        3.655283   -0.321183   -3.452904
     76          1           0        5.631203    4.124664   -0.946094
     77          1           0        7.269890    6.354906   -4.391591
     78          1           0        7.739710    7.150936   -2.798553
     79          1           0        6.300808    7.612350   -3.707948
     80         12           0       -8.114764   -0.765096    0.243090
     81          6           0      -10.668664    1.402942    0.811160
     82          6           0       -5.690466    1.670244    0.551261
     83          6           0       -5.730591   -3.090894   -0.550478
     84          6           0      -10.570755   -3.305034   -0.536468
     85          7           0       -8.209791    1.318206    0.427673
     86          6           0       -9.376068    1.998694    0.914107
     87          6           0       -9.028726    3.336399    1.433377
     88          6           0       -7.520761    3.483253    0.936704
     89          6           0       -7.063887    2.081167    0.600532
     90          6           0       -7.365011    4.455643   -0.337026
     91          6           0       -9.341506    3.551693    2.946120
     92          6           0      -10.003786    4.848948    3.282251
     93          1           0       -9.486278    6.117438    2.496119
     94          7           0       -5.990809   -0.731124    0.100865
     95          6           0       -5.239917    0.395759    0.257902
     96          6           0       -3.874887    0.024793    0.105214
     97          6           0       -3.812313   -1.403155   -0.136175
     98          6           0       -5.240689   -1.865324   -0.138481
     99          6           0       -2.734391    1.066075    0.109031
    100          6           0       -2.677169   -2.362481   -0.313619
    101          8           0       -2.722862   -3.558672   -0.622001
    102          6           0       -1.247782   -1.769192   -0.018171
    103          7           0       -8.133447   -2.922902   -0.566776
    104          6           0       -7.040946   -3.633890   -0.695025
    105          6           0       -7.332077   -5.122389   -0.874610
    106          6           0       -8.886784   -5.169577   -0.867108
    107          6           0       -9.239894   -3.698041   -0.659974
    108          6           0       -6.699757   -5.747802   -2.219937
    109          6           0       -9.365138   -6.089462    0.341284
    110          6           0       -9.135962   -5.659891    1.811475
    111          7           0      -10.200548   -0.897778   -0.008116
    112          6           0      -11.015128   -1.984663   -0.263758
    113          6           0      -12.402740   -1.520898   -0.060667
    114          6           0      -12.381508   -0.228164    0.369366
    115          6           0      -10.979122    0.107744    0.380821
    116          6           0      -13.609774   -2.309644   -0.435808
    117          6           0      -13.166005    0.931235    0.793473
    118          8           0      -14.370488    1.091736    0.897836
    119          6           0      -12.051429    2.029900    1.083321
    120          6           0      -12.274476    3.137091    0.131460
    121          8           0      -12.322071    3.081779   -1.109767
    122          8           0      -12.428712    4.246269    0.938174
    123          6           0      -12.481519    5.522222    0.212637
    124          1           0       -4.890593    2.399798    0.693077
    125          1           0       -4.914339   -3.805966   -0.677636
    126          1           0      -11.324769   -4.078719   -0.691639
    127          1           0       -9.680847    4.015719    0.882949
    128          1           0       -6.930377    3.862243    1.770364
    129          1           0       -8.245247    5.069349   -0.528467
    130          1           0       -7.327967    3.803111   -1.209226
    131          1           0       -6.421429    4.966260   -0.149134
    132          1           0       -8.417062    3.506150    3.521891
    133          1           0      -10.017182    2.725874    3.168350
    134          1           0       -9.844804    5.153564    4.315929
    135          1           0      -11.086615    4.966013    3.236780
    136          1           0       -2.448385    1.453661    1.086754
    137          1           0       -3.113614    1.825521   -0.574531
    138          1           0       -1.778184    0.650764   -0.208500
    139          1           0       -0.965660   -1.105069   -0.835184
    140          1           0       -0.590894   -2.595851    0.251826
    141          1           0       -1.192350   -1.207592    0.914596
    142          1           0       -6.953398   -5.655431   -0.002829
    143          1           0       -9.315949   -5.577806   -1.782177
    144          1           0       -5.851994   -6.352647   -1.896134
    145          1           0       -6.336386   -4.951043   -2.869773
    146          1           0       -7.295361   -6.422037   -2.834052
    147          1           0       -9.025205   -7.123980    0.295937
    148          1           0      -10.446877   -6.055725    0.207628
    149          1           0      -10.153945   -5.527406    2.178151
    150          1           0       -8.521593   -4.764520    1.897450
    151          1           0       -8.626436   -6.409643    2.416703
    152          1           0      -14.340544   -1.990157    0.306524
    153          1           0      -13.439225   -3.386015   -0.407763
    154          1           0      -14.014466   -1.866398   -1.344737
    155          1           0      -12.368811    2.340110    2.078529
    156          1           0      -12.719374    6.226531    1.010331
    157          1           0      -13.345316    5.452267   -0.448476
    158          1           0      -11.622055    5.744121   -0.420299
 ---------------------------------------------------------------------

 SCF Done:  E(RwB97XD) =  -4070.60706213     A.U. after   19 cycles

 Excitation energies and oscillator strengths:

 Excited State   1:      Singlet-A      1.6454 eV  753.54 nm  f=0.4595  <S**2>=0.000
     309 -> 315       -0.19036
     312 -> 314        0.67836
     309 <- 315       -0.11745
 This state for optimization and/or second-order correction.
 Total Energy, E(TD-HF/TD-DFT) =  -4070.54659647
 Copying the excited state density for this state as the 1-particle RhoCI density.

 Excited State   2:      Singlet-A      1.7628 eV  703.33 nm  f=0.3266  <S**2>=0.000
     310 -> 316        0.17782
     311 -> 313        0.67989
     310 <- 316        0.10719

 Excited State   3:      Singlet-A      2.2096 eV  561.11 nm  f=0.0648  <S**2>=0.000
     309 -> 314        0.17946
     310 -> 313        0.60959
     311 -> 316       -0.27138
     312 -> 315        0.10109

 Excited State   4:      Singlet-A      2.2144 eV  559.90 nm  f=0.0848  <S**2>=0.000
     309 -> 314        0.58093
     310 -> 313       -0.18655
     312 -> 315        0.33466

 Excited State   5:      Singlet-A      3.4648 eV  357.83 nm  f=0.0000  <S**2>=0.000
     312 -> 313        0.70661

 The electronic state is 1-A.
 Alpha  occ. eigenvalues --  -46.95506 -46.94683 -19.30782 -19.29626 -19.25116
 Alpha  occ. eigenvalues --  -19.25050 -19.24502 -19.24497 -19.24496 -19.24211
 Alpha  occ. eigenvalues --  -14.47005 -14.46807 -14.46698 -14.46429 -14.45117
 Alpha  occ. eigenvalues --  -14.44019 -14.43977 -14.43387 -10.43284 -10.42205
 Alpha  occ. eigenvalues --  -10.40541 -10.40107 -10.39652 -10.39338 -10.36783
 Alpha  occ. eigenvalues --  -10.36270 -10.35973 -10.35718 -10.35493 -10.35450
 Alpha  occ. eigenvalues --  -10.35394 -10.35093 -10.34815 -10.34560 -10.34342
 Alpha  occ. eigenvalues --  -10.34264 -10.34054 -10.33871 -10.33824 -10.33468
 Alpha  occ. eigenvalues --  -10.33346 -10.33179 -10.32976 -10.32832 -10.32702
 Alpha  occ. eigenvalues --  -10.32686 -10.32484 -10.32360 -10.32286 -10.32211
 Alpha  occ. eigenvalues --  -10.32107 -10.32088 -10.32008 -10.31989 -10.31908
 Alpha  occ. eigenvalues --  -10.31851 -10.31785 -10.31745 -10.31719 -10.31559
 Alpha  occ. eigenvalues --  -10.31470 -10.31434 -10.31409 -10.31323 -10.31311
 Alpha  occ. eigenvalues --  -10.31283 -10.31216 -10.30986 -10.30853 -10.30735
 Alpha  occ. eigenvalues --  -10.30690 -10.30386 -10.30380 -10.30336 -10.30256
 Alpha  occ. eigenvalues --  -10.30241 -10.29877 -10.29730 -10.29665 -10.29658
 Alpha  occ. eigenvalues --  -10.29345 -10.29263 -10.29025 -10.29006 -10.28959
 Alpha  occ. eigenvalues --  -10.28648  -3.21364  -3.20649  -1.94953  -1.94475
 Alpha  occ. eigenvalues --   -1.94332  -1.94247  -1.93765  -1.93626  -1.18091
 Alpha  occ. eigenvalues --   -1.18040  -1.13881  -1.12338  -1.11786  -1.11578
 Alpha  occ. eigenvalues --   -1.09691  -1.09566  -1.07046  -1.06168  -1.05688
 Alpha  occ. eigenvalues --   -1.04859  -1.04646  -1.04073  -1.03636  -1.03051
 Alpha  occ. eigenvalues --   -0.94242  -0.93878  -0.91027  -0.90945  -0.90580
 Alpha  occ. eigenvalues --   -0.90425  -0.90099  -0.89824  -0.89358  -0.89110
 Alpha  occ. eigenvalues --   -0.88920  -0.88754  -0.88120  -0.87574  -0.86484
 Alpha  occ. eigenvalues --   -0.86400  -0.85557  -0.85194  -0.84505  -0.84223
 Alpha  occ. eigenvalues --   -0.83387  -0.83094  -0.83086  -0.82766  -0.82150
 Alpha  occ. eigenvalues --   -0.81829  -0.80548  -0.79943  -0.79179  -0.79047
 Alpha  occ. eigenvalues --   -0.78883  -0.78476  -0.77765  -0.77641  -0.76827
 Alpha  occ. eigenvalues --   -0.76768  -0.74350  -0.74311  -0.74076  -0.73389
 Alpha  occ. eigenvalues --   -0.71719  -0.71194  -0.71136  -0.70762  -0.70236
 Alpha  occ. eigenvalues --   -0.69516  -0.69357  -0.69291  -0.67585  -0.67164
 Alpha  occ. eigenvalues --   -0.66866  -0.66854  -0.66709  -0.66591  -0.66452
 Alpha  occ. eigenvalues --   -0.66292  -0.64425  -0.63242  -0.62227  -0.62175
 Alpha  occ. eigenvalues --   -0.61293  -0.61249  -0.60887  -0.60816  -0.60680
 Alpha  occ. eigenvalues --   -0.60055  -0.59871  -0.59847  -0.59399  -0.59112
 Alpha  occ. eigenvalues --   -0.58038  -0.57813  -0.57778  -0.57394  -0.56858
 Alpha  occ. eigenvalues --   -0.56818  -0.56810  -0.56292  -0.56234  -0.55703
 Alpha  occ. eigenvalues --   -0.55363  -0.55324  -0.55260  -0.55058  -0.55041
 Alpha  occ. eigenvalues --   -0.55032  -0.54614  -0.54228  -0.54156  -0.54127
 Alpha  occ. eigenvalues --   -0.53972  -0.53791  -0.53735  -0.53369  -0.53354
 Alpha  occ. eigenvalues --   -0.53135  -0.52890  -0.52842  -0.52742  -0.52605
 Alpha  occ. eigenvalues --   -0.52098  -0.51733  -0.51630  -0.51554  -0.51469
 Alpha  occ. eigenvalues --   -0.51465  -0.51140  -0.50802  -0.50740  -0.50654
 Alpha  occ. eigenvalues --   -0.50417  -0.50389  -0.50301  -0.50073  -0.49986
 Alpha  occ. eigenvalues --   -0.49977  -0.49782  -0.49566  -0.49540  -0.49204
 Alpha  occ. eigenvalues --   -0.49082  -0.48749  -0.48704  -0.48599  -0.48446
 Alpha  occ. eigenvalues --   -0.48218  -0.48038  -0.48012  -0.47690  -0.47561
 Alpha  occ. eigenvalues --   -0.47430  -0.47177  -0.47033  -0.46867  -0.46750
 Alpha  occ. eigenvalues --   -0.46624  -0.46506  -0.46407  -0.46087  -0.45980
 Alpha  occ. eigenvalues --   -0.45760  -0.45576  -0.45321  -0.45254  -0.45224
 Alpha  occ. eigenvalues --   -0.45087  -0.45067  -0.44832  -0.44784  -0.44651
 Alpha  occ. eigenvalues --   -0.44405  -0.44213  -0.44208  -0.43988  -0.43985
 Alpha  occ. eigenvalues --   -0.43933  -0.43783  -0.43542  -0.43537  -0.43345
 Alpha  occ. eigenvalues --   -0.43237  -0.42600  -0.42583  -0.42325  -0.42264
 Alpha  occ. eigenvalues --   -0.42055  -0.41617  -0.41608  -0.41427  -0.41313
 Alpha  occ. eigenvalues --   -0.40651  -0.39771  -0.39769  -0.39437  -0.39301
 Alpha  occ. eigenvalues --   -0.39011  -0.38997  -0.38626  -0.38353  -0.38273
 Alpha  occ. eigenvalues --   -0.38190  -0.37940  -0.36538  -0.36287  -0.36113
 Alpha  occ. eigenvalues --   -0.35883  -0.35625  -0.35432  -0.34012  -0.33578
 Alpha  occ. eigenvalues --   -0.33329  -0.33040  -0.32982  -0.32884  -0.32433
 Alpha  occ. eigenvalues --   -0.32317  -0.31991  -0.30864  -0.26257  -0.26120
 Alpha  occ. eigenvalues --   -0.23255  -0.22672
 Alpha virt. eigenvalues --   -0.06935  -0.06736  -0.00374   0.00057   0.01896
 Alpha virt. eigenvalues --    0.01986   0.04097   0.04315   0.05131   0.05889
 Alpha virt. eigenvalues --    0.06774   0.07025   0.07534   0.07765   0.07895

 Mulliken charges:
               1
     1  Mg   0.955070
     2  C    0.013497
     3  C   -0.100584
     4  C   -0.065331
     5  C   -0.066937
     6  N   -0.380939
     7  C   -0.012065
     8  C   -0.052138
     9  C   -0.156920
    10  C    0.113289
    11  C    0.022956
    12  C    0.049994
    13  C   -0.135253
    14  H    0.029289
    15  N   -0.510060
    16  C    0.184387
    17  C   -0.168067
    18  C   -0.051219
    19  C    0.184815
    20  C    0.065895
    21  C    0.037456
    22  O   -0.217944
    23  C   -0.019126
    24  N   -0.317954
    25  C    0.037597
    26  C   -0.121231
    27  C   -0.060323
    28  C    0.021162
    29  C    0.018016
    30  C    0.000432
    31  C   -0.057318
    32  N   -0.463623
    33  C    0.165967
    34  C   -0.208837
    35  C   -0.042549
    36  C    0.161179
    37  C    0.091496
    38  C    0.151301
    39  O   -0.199645
    40  C   -0.162649
    41  C    0.269771
    42  O   -0.250164
    43  O   -0.372737
    44  C    0.150326
    45  H   -0.008660
    46  H    0.020725
    47  H   -0.017268
    48  H    0.051835
    49  H    0.032670
    50  H    0.036989
    51  H    0.043457
    52  H    0.051033
    53  H    0.038807
    54  H    0.033543
    55  H    0.065547
    56  H    0.051040
    57  H    0.052534
    58  H    0.034023
    59  H    0.066610
    60  H    0.061574
    61  H    0.055776
    62  H    0.047584
    63  H    0.040556
    64  H    0.034673
    65  H    0.035625
    66  H    0.050710
    67  H    0.041354
    68  H    0.030543
    69  H    0.028105
    70  H    0.040972
    71  H    0.032743
    72  H    0.041706
    73  H    0.020406
    74  H    0.070403
    75  H    0.043460
    76  H    0.078674
    77  H    0.060435
    78  H    0.049577
    79  H    0.051958
    80  Mg   0.932438
    81  C   -0.005140
    82  C   -0.105629
    83  C   -0.037204
    84  C   -0.078000
    85  N   -0.442448
    86  C   -0.001177
    87  C   -0.039823
    88  C   -0.136050
    89  C    0.130659
    90  C    0.033388
    91  C    0.070001
    92  C   -0.138343
    93  H    0.000723
    94  N   -0.460887
    95  C    0.168971
    96  C   -0.150195
    97  C   -0.078379
    98  C    0.134239
    99  C    0.056576
   100  C    0.062020
   101  O   -0.238461
   102  C   -0.054869
   103  N   -0.260428
   104  C    0.018047
   105  C   -0.075337
   106  C   -0.047492
   107  C    0.027330
   108  C   -0.001608
   109  C   -0.063138
   110  C   -0.056222
   111  N   -0.406410
   112  C    0.141247
   113  C   -0.241233
   114  C   -0.006375
   115  C    0.119941
   116  C    0.082759
   117  C    0.139032
   118  O   -0.195016
   119  C   -0.109376
   120  C    0.275751
   121  O   -0.258988
   122  O   -0.370081
   123  C    0.139941
   124  H    0.002292
   125  H    0.023800
   126  H    0.002783
   127  H    0.030736
   128  H    0.027149
   129  H    0.043488
   130  H    0.046032
   131  H    0.050929
   132  H    0.039445
   133  H    0.041561
   134  H    0.043630
   135  H    0.061393
   136  H    0.055147
   137  H    0.063630
   138  H    0.018618
   139  H    0.081399
   140  H    0.049871
   141  H    0.041916
   142  H    0.049766
   143  H    0.038968
   144  H    0.042209
   145  H    0.048977
   146  H    0.040576
   147  H    0.041315
   148  H    0.020534
   149  H    0.044515
   150  H    0.039883
   151  H    0.038313
   152  H    0.046909
   153  H    0.040054
   154  H    0.066148
   155  H    0.068233
   156  H    0.059321
   157  H    0.056121
   158  H    0.059588
 Sum of Mulliken charges =  -0.00000

 Dipole moment (field-independent basis, Debye):
    X=              6.4066    Y=              0.4253    Z=              6.9765  Tot=              9.4814
 Quadrupole moment (field-independent basis, Debye-Ang):
   XX=           -541.5355   YY=           -467.8056   ZZ=           -509.7161
   XY=             24.9749   XZ=             17.8739   YZ=             22.2944

 Normal termination of Gaussian 16 at Mon Sep 20 12:08:12 2021.
