 Gaussian 16, Revision A.03,
 Gaussian 16:  ES64L-G16RevA.03 25-Dec-2016

 --------------------------------
 #p wB97XD/Def2SVP td=(nstates=5)
 --------------------------------

 --------------------------------
 TDDFT excited states in gaussian
 --------------------------------
 Symbolic Z-matrix:
 Charge =  0 Multiplicity = 1

                         Standard orientation:
 ---------------------------------------------------------------------
 Center     Atomic      Atomic             Coordinates (Angstroms)
 Number     Number       Type             X           Y           Z
 ---------------------------------------------------------------------
      1         12           0        8.690162    0.473495   -0.104779
      2          6           0        6.436452   -2.172251   -0.980697
      3          6           0        6.535407    2.661492   -1.862269
      4          6           0       10.306331    3.054276    1.305134
      5          6           0       10.249756   -1.699160    2.077104
      6          7           0        6.698094    0.286672   -1.311636
      7          6           0        6.029364   -0.897117   -1.451712
      8          6           0        4.639202   -0.634643   -2.008852
      9          6           0        4.864987    0.850965   -2.516176
     10          6           0        6.101902    1.362388   -1.881745
     11          6           0        4.939864    1.076740   -4.063646
     12          6           0        3.559784   -0.918902   -0.915604
     13          6           0        2.256187   -1.737771   -1.288254
     14          1           0        0.874129   -1.073055   -1.156207
     15          7           0        8.611248    2.485307   -0.366905
     16          6           0        7.673372    3.221649   -1.137728
     17          6           0        7.977074    4.639909   -1.088133
     18          6           0        9.081637    4.737950   -0.147447
     19          6           0        9.366801    3.382814    0.285477
     20          6           0        7.136468    5.637448   -1.769648
     21          6           0        9.751626    6.075012    0.214124
     22          8           0        9.222542    7.116130   -0.273738
     23          6           0       10.998220    6.239772    1.109192
     24          7           0        9.928512    0.761015    1.681604
     25          6           0       10.599920    1.868353    1.933275
     26          6           0       11.482028    1.630153    3.116060
     27          6           0       11.477656    0.087547    3.287734
     28          6           0       10.404739   -0.335674    2.332165
     29          6           0       12.954773    2.224897    3.140246
     30          6           0       11.209697   -0.438817    4.791088
     31          6           0       12.338724   -1.212249    5.515345
     32          7           0        8.574819   -1.518764    0.314659
     33          6           0        9.254483   -2.261184    1.204859
     34          6           0        8.837945   -3.615345    1.179823
     35          6           0        7.758273   -3.622930    0.293645
     36          6           0        7.595400   -2.300055   -0.189818
     37          6           0        9.357224   -4.802567    1.886295
     38          6           0        6.770069   -4.512103   -0.234456
     39          8           0        6.585298   -5.678118    0.033528
     40          6           0        5.775647   -3.520483   -1.114634
     41          6           0        5.742227   -3.962508   -2.513831
     42          8           0        6.723651   -4.313460   -3.181032
     43          8           0        4.428787   -3.876385   -2.923683
     44          6           0        4.151071   -4.276080   -4.302240
     45          1           0        5.913465    3.385824   -2.390445
     46          1           0       10.787518    3.854819    1.870233
     47          1           0       10.852080   -2.464695    2.571053
     48          1           0        4.553171   -1.241633   -2.910474
     49          1           0        4.027729    1.313560   -1.992261
     50          1           0        5.894643    1.560450   -4.274766
     51          1           0        4.167471    1.737479   -4.456642
     52          1           0        4.957361    0.171810   -4.671782
     53          1           0        3.291679    0.107158   -0.664750
     54          1           0        3.924434   -1.363864    0.009941
     55          1           0        2.305565   -2.630578   -0.665179
     56          1           0        2.403069   -2.172974   -2.276283
     57          1           0        6.113047    5.446187   -1.446105
     58          1           0        7.146489    5.459736   -2.844817
     59          1           0        7.427700    6.685661   -1.697390
     60          1           0       10.701976    6.033780    2.137871
     61          1           0       11.446823    7.172203    0.768094
     62          1           0       11.653373    5.444130    0.752868
     63          1           0       11.002217    2.118932    3.963082
     64          1           0       12.413022   -0.190902    2.802123
     65          1           0       13.164835    2.378028    4.199092
     66          1           0       12.964825    3.145340    2.556686
     67          1           0       13.605923    1.450902    2.733629
     68          1           0       10.316951   -1.055580    4.688919
     69          1           0       10.857110    0.411251    5.375038
     70          1           0       11.993087   -2.143423    5.962304
     71          1           0       12.762043   -0.566612    6.285252
     72          1           0       13.198825   -1.427642    4.881089
     73          1           0        9.036450   -5.728450    1.409912
     74          1           0        8.867066   -4.624502    2.843622
     75          1           0       10.397596   -4.609247    2.147435
     76          1           0        4.804642   -3.406162   -0.634115
     77          1           0        4.562095   -5.260336   -4.527884
     78          1           0        4.548396   -3.528088   -4.989928
     79          1           0        3.071026   -4.339510   -4.435046
     80         12           0       -8.702929    0.360458   -0.195578
     81          6           0       -6.333083   -2.264912   -0.779416
     82          6           0       -6.839847    2.377733   -1.995887
     83          6           0      -10.535252    2.794464    1.109274
     84          6           0      -10.381521   -2.004595    2.066630
     85          7           0       -6.825272    0.057499   -1.299620
     86          6           0       -5.988534   -1.072255   -1.394857
     87          6           0       -4.699583   -0.836955   -2.269715
     88          6           0       -4.991016    0.730837   -2.692473
     89          6           0       -6.289928    1.112671   -1.989598
     90          6           0       -3.811039    1.701975   -2.257731
     91          6           0       -4.489268   -1.836850   -3.459645
     92          6           0       -3.507464   -1.388945   -4.535793
     93          1           0       -2.225564   -2.236617   -4.629414
     94          7           0       -8.744957    2.314099   -0.497170
     95          6           0       -7.914958    3.052551   -1.307541
     96          6           0       -8.269747    4.455947   -1.328696
     97          6           0       -9.383604    4.545657   -0.403008
     98          6           0       -9.637961    3.135365    0.061083
     99          6           0       -7.674475    5.495136   -2.157017
    100          6           0      -10.211740    5.748560    0.014238
    101          8           0      -11.191322    5.684087    0.702700
    102          6           0       -9.660846    7.077008   -0.431510
    103          7           0      -10.205440    0.402829    1.420217
    104          6           0      -10.827933    1.570447    1.720671
    105          6           0      -11.945481    1.349151    2.774819
    106          6           0      -11.943734   -0.210119    2.942770
    107          6           0      -10.802664   -0.658988    2.050321
    108          6           0      -11.828315    2.098729    4.145585
    109          6           0      -13.271246   -0.949620    2.550252
    110          6           0      -14.379049   -0.827611    3.619873
    111          7           0       -8.468332   -1.662501    0.548313
    112          6           0       -9.231355   -2.472908    1.357043
    113          6           0       -8.685080   -3.771492    1.350526
    114          6           0       -7.560789   -3.759969    0.613383
    115          6           0       -7.413880   -2.425518    0.127110
    116          6           0       -9.392549   -4.928707    2.043547
    117          6           0       -6.380545   -4.475932    0.118713
    118          8           0       -6.024799   -5.612995    0.292337
    119          6           0       -5.525448   -3.480544   -0.801570
    120          6           0       -4.249183   -3.193888   -0.076766
    121          8           0       -3.964471   -2.365963    0.759006
    122          8           0       -3.340585   -4.091114   -0.602183
    123          6           0       -1.954548   -4.029484   -0.080314
    124          1           0       -6.262326    3.134734   -2.530337
    125          1           0      -10.996782    3.652118    1.604570
    126          1           0      -11.052011   -2.604113    2.686718
    127          1           0       -3.843207   -0.813462   -1.595591
    128          1           0       -5.051186    0.777479   -3.780062
    129          1           0       -3.586795    2.385914   -3.076147
    130          1           0       -2.877487    1.272386   -1.895346
    131          1           0       -4.151326    2.382290   -1.477646
    132          1           0       -5.522719   -1.949603   -3.789894
    133          1           0       -4.222228   -2.868526   -3.229606
    134          1           0       -3.212417   -0.358363   -4.340455
    135          1           0       -3.962686   -1.554697   -5.511824
    136          1           0       -8.533954    5.733285   -2.783621
    137          1           0       -6.803015    5.119702   -2.693621
    138          1           0       -7.359787    6.418967   -1.672046
    139          1           0      -10.126133    7.361153   -1.375273
    140          1           0       -8.594741    7.196388   -0.236292
    141          1           0       -9.906395    7.731893    0.404038
    142          1           0      -12.877841    1.504958    2.231294
    143          1           0      -11.591965   -0.457179    3.944675
    144          1           0      -11.797393    1.472620    5.037758
    145          1           0      -12.775240    2.625285    4.262536
    146          1           0      -10.980517    2.777791    4.236150
    147          1           0      -13.067433   -2.012649    2.426653
    148          1           0      -13.549103   -0.529077    1.582793
    149          1           0      -13.945359   -0.590927    4.591660
    150          1           0      -14.912303   -1.778053    3.603726
    151          1           0      -15.083550   -0.014404    3.442762
    152          1           0       -9.138967   -5.881296    1.578261
    153          1           0      -10.466504   -4.742849    2.026795
    154          1           0       -9.161827   -4.930664    3.109078
    155          1           0       -5.352831   -3.896842   -1.794327
    156          1           0       -1.632545   -5.066735    0.011164
    157          1           0       -1.859219   -3.529103    0.883227
    158          1           0       -1.480664   -3.500587   -0.907821
 ---------------------------------------------------------------------

 SCF Done:  E(RwB97XD) =  -4070.60053115     A.U. after   19 cycles

 Excitation energies and oscillator strengths:

 Excited State   1:      Singlet-A      1.6295 eV  760.86 nm  f=0.0080  <S**2>=0.000
     309 -> 315       -0.12983
     310 -> 316       -0.13250
     311 -> 313       -0.46965
     312 -> 314        0.49765
 This state for optimization and/or second-order correction.
 Total Energy, E(TD-HF/TD-DFT) =  -4070.54064722
 Copying the excited state density for this state as the 1-particle RhoCI density.

 Excited State   2:      Singlet-A      1.6451 eV  753.67 nm  f=0.7506  <S**2>=0.000
     309 -> 315        0.14015
     310 -> 316       -0.12768
     311 -> 313        0.49625
     312 -> 314        0.46952

 Excited State   3:      Singlet-A      2.1542 eV  575.54 nm  f=0.1472  <S**2>=0.000
     310 -> 314        0.64720
     312 -> 316        0.26779

 Excited State   4:      Singlet-A      2.1989 eV  563.84 nm  f=0.1281  <S**2>=0.000
     309 -> 313        0.63681
     311 -> 315       -0.29176

 Excited State   5:      Singlet-A      3.3560 eV  369.44 nm  f=0.0000  <S**2>=0.000
     312 -> 313        0.70685

 The electronic state is 1-A.
 Alpha  occ. eigenvalues --  -46.95320 -46.94946 -19.31620 -19.29092 -19.25622
 Alpha  occ. eigenvalues --  -19.24884 -19.24870 -19.24197 -19.24001 -19.23250
 Alpha  occ. eigenvalues --  -14.46872 -14.46633 -14.46038 -14.45940 -14.44627
 Alpha  occ. eigenvalues --  -14.44498 -14.44258 -14.43497 -10.44051 -10.42838
 Alpha  occ. eigenvalues --  -10.39572 -10.39331 -10.39315 -10.38755 -10.36312
 Alpha  occ. eigenvalues --  -10.35309 -10.35022 -10.34941 -10.34901 -10.34853
 Alpha  occ. eigenvalues --  -10.34743 -10.34473 -10.34456 -10.34419 -10.34414
 Alpha  occ. eigenvalues --  -10.34282 -10.34178 -10.34150 -10.33846 -10.33519
 Alpha  occ. eigenvalues --  -10.33246 -10.33177 -10.33153 -10.33068 -10.33035
 Alpha  occ. eigenvalues --  -10.32946 -10.32882 -10.32802 -10.32559 -10.32327
 Alpha  occ. eigenvalues --  -10.31988 -10.31841 -10.31800 -10.31728 -10.31703
 Alpha  occ. eigenvalues --  -10.31671 -10.31642 -10.31622 -10.31593 -10.31303
 Alpha  occ. eigenvalues --  -10.31255 -10.31227 -10.31179 -10.31089 -10.30967
 Alpha  occ. eigenvalues --  -10.30926 -10.30902 -10.30890 -10.30886 -10.30827
 Alpha  occ. eigenvalues --  -10.30712 -10.30679 -10.30618 -10.30549 -10.30413
 Alpha  occ. eigenvalues --  -10.30171 -10.30154 -10.29920 -10.29758 -10.29637
 Alpha  occ. eigenvalues --  -10.29618 -10.29506 -10.29404 -10.29068 -10.28788
 Alpha  occ. eigenvalues --  -10.28689  -3.21318  -3.20935  -1.94897  -1.94522
 Alpha  occ. eigenvalues --   -1.94430  -1.94302  -1.94037  -1.93924  -1.18838
 Alpha  occ. eigenvalues --   -1.17871  -1.13616  -1.13158  -1.13076  -1.10474
 Alpha  occ. eigenvalues --   -1.09677  -1.09522  -1.07539  -1.06826  -1.05863
 Alpha  occ. eigenvalues --   -1.05845  -1.05382  -1.04540  -1.04468  -1.03668
 Alpha  occ. eigenvalues --   -0.95248  -0.95042  -0.91307  -0.90866  -0.90291
 Alpha  occ. eigenvalues --   -0.90176  -0.90110  -0.90069  -0.89964  -0.89497
 Alpha  occ. eigenvalues --   -0.89144  -0.88803  -0.88054  -0.88016  -0.86677
 Alpha  occ. eigenvalues --   -0.85884  -0.85838  -0.85117  -0.84679  -0.84109
 Alpha  occ. eigenvalues --   -0.84032  -0.84015  -0.83411  -0.82703  -0.82536
 Alpha  occ. eigenvalues --   -0.82070  -0.80258  -0.80118  -0.79671  -0.78939
 Alpha  occ. eigenvalues --   -0.78910  -0.78634  -0.78319  -0.77516  -0.77374
 Alpha  occ. eigenvalues --   -0.76806  -0.75276  -0.74804  -0.74280  -0.73333
 Alpha  occ. eigenvalues --   -0.71781  -0.71642  -0.71465  -0.70707  -0.70602
 Alpha  occ. eigenvalues --   -0.69784  -0.69009  -0.68837  -0.68130  -0.67721
 Alpha  occ. eigenvalues --   -0.67202  -0.67045  -0.66865  -0.66607  -0.66435
 Alpha  occ. eigenvalues --   -0.65932  -0.65053  -0.63485  -0.62218  -0.62111
 Alpha  occ. eigenvalues --   -0.62006  -0.61594  -0.61509  -0.60986  -0.60869
 Alpha  occ. eigenvalues --   -0.60504  -0.60287  -0.59873  -0.59663  -0.58941
 Alpha  occ. eigenvalues --   -0.58262  -0.58145  -0.57987  -0.57699  -0.57693
 Alpha  occ. eigenvalues --   -0.57031  -0.56930  -0.56556  -0.56408  -0.56241
 Alpha  occ. eigenvalues --   -0.56091  -0.55778  -0.55652  -0.55371  -0.54973
 Alpha  occ. eigenvalues --   -0.54653  -0.54646  -0.54329  -0.54146  -0.53943
 Alpha  occ. eigenvalues --   -0.53683  -0.53599  -0.53467  -0.53336  -0.53245
 Alpha  occ. eigenvalues --   -0.52965  -0.52645  -0.52535  -0.52303  -0.52132
 Alpha  occ. eigenvalues --   -0.52073  -0.51988  -0.51782  -0.51670  -0.51625
 Alpha  occ. eigenvalues --   -0.51462  -0.51442  -0.51098  -0.50820  -0.50793
 Alpha  occ. eigenvalues --   -0.50472  -0.50422  -0.49957  -0.49957  -0.49783
 Alpha  occ. eigenvalues --   -0.49705  -0.49695  -0.49677  -0.49628  -0.49462
 Alpha  occ. eigenvalues --   -0.49058  -0.49000  -0.48709  -0.48675  -0.48486
 Alpha  occ. eigenvalues --   -0.48336  -0.48162  -0.47982  -0.47863  -0.47734
 Alpha  occ. eigenvalues --   -0.47656  -0.47471  -0.47394  -0.47279  -0.47171
 Alpha  occ. eigenvalues --   -0.47035  -0.47004  -0.46821  -0.46699  -0.46612
 Alpha  occ. eigenvalues --   -0.46006  -0.45826  -0.45773  -0.45655  -0.45639
 Alpha  occ. eigenvalues --   -0.45505  -0.45275  -0.45144  -0.45102  -0.45010
 Alpha  occ. eigenvalues --   -0.44853  -0.44723  -0.44526  -0.44293  -0.44038
 Alpha  occ. eigenvalues --   -0.43854  -0.43612  -0.43557  -0.43221  -0.43205
 Alpha  occ. eigenvalues --   -0.43100  -0.42924  -0.42867  -0.42772  -0.42436
 Alpha  occ. eigenvalues --   -0.42381  -0.42204  -0.41257  -0.41021  -0.40797
 Alpha  occ. eigenvalues --   -0.40719  -0.40341  -0.40023  -0.39873  -0.39718
 Alpha  occ. eigenvalues --   -0.39699  -0.39060  -0.38666  -0.38598  -0.38510
 Alpha  occ. eigenvalues --   -0.37845  -0.37769  -0.37242  -0.36593  -0.36188
 Alpha  occ. eigenvalues --   -0.35973  -0.35369  -0.34915  -0.33635  -0.33520
 Alpha  occ. eigenvalues --   -0.33224  -0.32869  -0.32607  -0.32393  -0.32332
 Alpha  occ. eigenvalues --   -0.32307  -0.31966  -0.31625  -0.26160  -0.25547
 Alpha  occ. eigenvalues --   -0.23192  -0.22809
 Alpha virt. eigenvalues --   -0.07367  -0.06935   0.00100   0.00754   0.02309
 Alpha virt. eigenvalues --    0.02897   0.04420   0.04684   0.05406   0.05608
 Alpha virt. eigenvalues --    0.06306   0.06859   0.07502   0.08090   0.08317

 Mulliken charges:
               1
     1  Mg   0.980909
     2  C   -0.123995
     3  C   -0.080840
     4  C   -0.101504
     5  C   -0.096118
     6  N   -0.314525
     7  C   -0.024771
     8  C   -0.048163
     9  C   -0.085431
    10  C    0.061118
    11  C    0.030284
    12  C   -0.009089
    13  C   -0.102410
    14  H    0.049307
    15  N   -0.481266
    16  C    0.127834
    17  C   -0.142858
    18  C   -0.097713
    19  C    0.229985
    20  C    0.077150
    21  C    0.025946
    22  O   -0.277783
    23  C    0.019958
    24  N   -0.347035
    25  C    0.019166
    26  C   -0.090681
    27  C   -0.109084
    28  C    0.094380
    29  C    0.033638
    30  C    0.009963
    31  C   -0.047643
    32  N   -0.436680
    33  C    0.106438
    34  C   -0.205837
    35  C   -0.066782
    36  C    0.192787
    37  C    0.118081
    38  C    0.144345
    39  O   -0.187934
    40  C   -0.051101
    41  C    0.292499
    42  O   -0.254051
    43  O   -0.371711
    44  C    0.136582
    45  H   -0.000610
    46  H   -0.036287
    47  H    0.003318
    48  H    0.018556
    49  H    0.028999
    50  H    0.037528
    51  H    0.044593
    52  H    0.037097
    53  H    0.031701
    54  H    0.054688
    55  H    0.047268
    56  H    0.042766
    57  H    0.047486
    58  H    0.033086
    59  H    0.069364
    60  H    0.084156
    61  H    0.065170
    62  H    0.043433
    63  H    0.038617
    64  H    0.032768
    65  H    0.040862
    66  H    0.041078
    67  H    0.031914
    68  H    0.033764
    69  H    0.025763
    70  H    0.046895
    71  H    0.035721
    72  H    0.033263
    73  H    0.081169
    74  H    0.047162
    75  H    0.030087
    76  H    0.058931
    77  H    0.066268
    78  H    0.052778
    79  H    0.056069
    80  Mg   0.977191
    81  C   -0.038815
    82  C   -0.072050
    83  C   -0.068315
    84  C   -0.096052
    85  N   -0.383166
    86  C   -0.009782
    87  C   -0.026780
    88  C   -0.121247
    89  C    0.109340
    90  C   -0.013409
    91  C   -0.019406
    92  C   -0.122001
    93  H    0.027232
    94  N   -0.491441
    95  C    0.111768
    96  C   -0.136084
    97  C   -0.128053
    98  C    0.164526
    99  C    0.081453
   100  C    0.041214
   101  O   -0.208151
   102  C   -0.027537
   103  N   -0.338784
   104  C    0.031218
   105  C   -0.031759
   106  C   -0.109775
   107  C    0.026740
   108  C    0.019826
   109  C   -0.035804
   110  C   -0.029325
   111  N   -0.401596
   112  C    0.165322
   113  C   -0.241843
   114  C    0.014008
   115  C    0.138396
   116  C    0.096250
   117  C    0.120041
   118  O   -0.172656
   119  C   -0.118147
   120  C    0.284904
   121  O   -0.233302
   122  O   -0.387097
   123  C    0.127642
   124  H   -0.028978
   125  H    0.025265
   126  H    0.001992
   127  H    0.050409
   128  H    0.047536
   129  H    0.030740
   130  H    0.049163
   131  H    0.043227
   132  H    0.034084
   133  H    0.059962
   134  H    0.060793
   135  H    0.063958
   136  H    0.057917
   137  H    0.039640
   138  H    0.047253
   139  H    0.079784
   140  H    0.047404
   141  H    0.040076
   142  H    0.038858
   143  H    0.032630
   144  H    0.032764
   145  H    0.039194
   146  H    0.051714
   147  H    0.028498
   148  H    0.032736
   149  H    0.031947
   150  H    0.042843
   151  H    0.037516
   152  H    0.058860
   153  H    0.027658
   154  H    0.045960
   155  H    0.080743
   156  H    0.064227
   157  H    0.072779
   158  H    0.055366
 Sum of Mulliken charges =  -0.00000

 Dipole moment (field-independent basis, Debye):
    X=              0.7489    Y=              3.0481    Z=             -1.0960  Tot=              3.3247
 Quadrupole moment (field-independent basis, Debye-Ang):
   XX=           -458.3694   YY=           -575.3102   ZZ=           -473.3228
   XY=              0.9516   XZ=             42.1206   YZ=             -6.7810

 Normal termination of Gaussian 16 at Sun Sep 19 03:10:31 2021.
