 Gaussian 16, Revision A.03,
 Gaussian 16:  ES64L-G16RevA.03 25-Dec-2016

 --------------------------------
 #p wB97XD/Def2SVP td=(nstates=5)
 --------------------------------

 --------------------------------
 TDDFT excited states in gaussian
 --------------------------------
 Symbolic Z-matrix:
 Charge =  0 Multiplicity = 1

                         Standard orientation:
 ---------------------------------------------------------------------
 Center     Atomic      Atomic             Coordinates (Angstroms)
 Number     Number       Type             X           Y           Z
 ---------------------------------------------------------------------
      1         12           0       19.783052    0.137929    0.475088
      2          6           0       17.576423   -1.247106   -1.875982
      3          6           0       21.055445    2.190858   -1.824479
      4          6           0       21.795237    1.232392    2.761326
      5          6           0       19.048135   -2.771708    2.495629
      6          7           0       19.395972    0.324182   -1.636253
      7          6           0       18.386594   -0.174445   -2.361057
      8          6           0       18.445979    0.278529   -3.797066
      9          6           0       19.820312    1.059036   -3.849804
     10          6           0       20.111248    1.223135   -2.370608
     11          6           0       21.010646    0.419597   -4.635792
     12          6           0       17.230228    1.288247   -4.122408
     13          6           0       16.470236    0.941369   -5.444466
     14          1           0       15.082501    1.774689   -5.571581
     15          7           0       21.010037    1.644663    0.533806
     16          6           0       21.407786    2.445260   -0.523361
     17          6           0       22.135045    3.567064    0.003623
     18          6           0       22.379640    3.370363    1.424223
     19          6           0       21.624135    2.087087    1.692111
     20          6           0       22.669761    4.645933   -0.981496
     21          6           0       23.112243    4.131748    2.523087
     22          8           0       23.136942    3.840827    3.732640
     23          6           0       23.740412    5.385801    2.027030
     24          7           0       20.403449   -0.792552    2.258763
     25          6           0       21.285216   -0.050926    3.005569
     26          6           0       21.730189   -0.820235    4.249891
     27          6           0       20.642315   -1.923124    4.330929
     28          6           0       20.019587   -1.890194    2.933849
     29          6           0       23.242462   -1.255016    4.104487
     30          6           0       19.556129   -1.749212    5.475710
     31          6           0       18.847001   -3.025377    5.956482
     32          7           0       18.543315   -1.647311    0.396252
     33          6           0       18.378681   -2.674038    1.275870
     34          6           0       17.333673   -3.573252    0.840357
     35          6           0       16.954429   -2.978990   -0.377202
     36          6           0       17.751821   -1.855712   -0.639161
     37          6           0       16.735234   -4.851207    1.471935
     38          6           0       16.026258   -3.112523   -1.465153
     39          8           0       15.051314   -3.795068   -1.641808
     40          6           0       16.531653   -2.054635   -2.577401
     41          6           0       15.254499   -1.474992   -3.001629
     42          8           0       14.585605   -0.555341   -2.466024
     43          8           0       14.916538   -2.155784   -4.110303
     44          6           0       13.647076   -1.831561   -4.762529
     45          1           0       21.413284    2.927714   -2.546796
     46          1           0       22.415003    1.637847    3.564039
     47          1           0       18.796667   -3.577371    3.188540
     48          1           0       18.378683   -0.518135   -4.538463
     49          1           0       19.775781    2.082457   -4.222743
     50          1           0       21.760045    0.110657   -3.907076
     51          1           0       21.403049    1.224768   -5.256690
     52          1           0       20.819127   -0.458933   -5.250917
     53          1           0       17.483187    2.349050   -4.136722
     54          1           0       16.582345    1.272000   -3.245933
     55          1           0       16.233389   -0.121735   -5.481738
     56          1           0       16.990492    1.210724   -6.363326
     57          1           0       21.904356    5.414055   -1.083222
     58          1           0       22.696397    4.315502   -2.020590
     59          1           0       23.700329    4.973597   -0.846878
     60          1           0       23.040601    6.113267    1.617262
     61          1           0       24.458869    5.004803    1.300222
     62          1           0       24.337126    5.903983    2.778242
     63          1           0       21.656530   -0.104544    5.068814
     64          1           0       21.118245   -2.880380    4.543462
     65          1           0       23.310374   -2.327745    3.923985
     66          1           0       23.919030   -1.083839    4.941377
     67          1           0       23.781880   -0.871184    3.238324
     68          1           0       18.769789   -1.185802    4.972646
     69          1           0       19.857279   -1.223604    6.382137
     70          1           0       17.784570   -3.022893    5.709455
     71          1           0       18.884972   -3.288635    7.013729
     72          1           0       19.252742   -3.826908    5.340807
     73          1           0       17.514851   -5.251870    2.119831
     74          1           0       16.454582   -5.574145    0.704831
     75          1           0       15.886435   -4.525289    2.073024
     76          1           0       16.958065   -2.591581   -3.424912
     77          1           0       13.862642   -1.343840   -5.713032
     78          1           0       12.968666   -1.293755   -4.101097
     79          1           0       13.165080   -2.766133   -5.049236
     80         12           0      -19.749326   -0.438388   -0.206413
     81          6           0      -18.298309    2.758195    0.057877
     82          6           0      -16.606845   -1.577318   -1.166341
     83          6           0      -20.881142   -3.567437   -0.066378
     84          6           0      -22.448299    0.757980    1.617770
     85          7           0      -17.659189    0.526994   -0.343214
     86          6           0      -17.294291    1.859029   -0.322642
     87          6           0      -15.947259    2.173065   -0.939019
     88          6           0      -15.414480    0.780811   -1.353757
     89          6           0      -16.583898   -0.169789   -0.935964
     90          6           0      -15.040204    0.655116   -2.886296
     91          6           0      -14.897625    2.929404   -0.008233
     92          6           0      -14.945747    2.654680    1.503658
     93          1           0      -13.853598    1.732594    2.122161
     94          7           0      -18.882492   -2.267408   -0.568331
     95          6           0      -17.614825   -2.526486   -1.006084
     96          6           0      -17.462197   -3.962899   -1.277009
     97          6           0      -18.716301   -4.569942   -0.961679
     98          6           0      -19.565385   -3.432649   -0.491378
     99          6           0      -16.180467   -4.589323   -1.813228
    100          6           0      -18.853897   -6.135619   -1.050242
    101          8           0      -17.860848   -6.781437   -1.354916
    102          6           0      -20.220562   -6.841410   -0.661489
    103          7           0      -21.335798   -1.274403    0.749917
    104          6           0      -21.709383   -2.598694    0.532824
    105          6           0      -23.169843   -2.900586    1.194903
    106          6           0      -23.500557   -1.450605    1.846367
    107          6           0      -22.358086   -0.616367    1.363314
    108          6           0      -24.216873   -3.379016    0.146386
    109          6           0      -23.613026   -1.428262    3.431010
    110          6           0      -24.857041   -0.802147    4.080173
    111          7           0      -20.373292    1.418667    0.581696
    112          6           0      -21.475980    1.784269    1.310439
    113          6           0      -21.361167    3.218928    1.647369
    114          6           0      -20.147083    3.646320    1.045905
    115          6           0      -19.581754    2.480053    0.458652
    116          6           0      -22.308697    4.050027    2.467302
    117          6           0      -19.260619    4.818860    0.922739
    118          8           0      -19.395729    6.012826    1.227780
    119          6           0      -18.103877    4.295220    0.084556
    120          6           0      -18.012755    4.924292   -1.189873
    121          8           0      -18.759464    4.599331   -2.149109
    122          8           0      -16.985678    5.888487   -1.218000
    123          6           0      -16.654537    6.508278   -2.497053
    124          1           0      -15.699039   -1.963252   -1.634046
    125          1           0      -21.339645   -4.554171   -0.154379
    126          1           0      -23.358024    1.067311    2.135727
    127          1           0      -16.217355    2.804845   -1.784341
    128          1           0      -14.619113    0.551382   -0.645556
    129          1           0      -13.959237    0.559968   -2.988669
    130          1           0      -15.401924    1.569287   -3.357752
    131          1           0      -15.496953   -0.226670   -3.336897
    132          1           0      -15.195002    3.967818   -0.159799
    133          1           0      -13.895189    2.784730   -0.411741
    134          1           0      -15.913361    2.239641    1.787685
    135          1           0      -14.924024    3.612831    2.021183
    136          1           0      -15.586138   -5.121093   -1.070165
    137          1           0      -15.632280   -3.885351   -2.439464
    138          1           0      -16.404694   -5.326266   -2.584222
    139          1           0      -21.012904   -6.296440   -1.175182
    140          1           0      -20.323101   -6.775537    0.421349
    141          1           0      -20.208303   -7.925242   -0.776628
    142          1           0      -23.025845   -3.757612    1.852159
    143          1           0      -24.410960   -1.089667    1.367300
    144          1           0      -24.774117   -2.501418   -0.180672
    145          1           0      -24.846522   -4.188540    0.515776
    146          1           0      -23.782058   -3.856857   -0.731357
    147          1           0      -22.701915   -0.955575    3.799214
    148          1           0      -23.611344   -2.494149    3.658974
    149          1           0      -24.681948   -0.527657    5.120777
    150          1           0      -25.586377   -1.608182    4.002909
    151          1           0      -25.068054    0.070345    3.461487
    152          1           0      -22.794795    3.326366    3.121058
    153          1           0      -23.030313    4.380473    1.720213
    154          1           0      -21.868336    4.927067    2.942539
    155          1           0      -17.252530    4.544921    0.717385
    156          1           0      -17.416698    7.131794   -2.964500
    157          1           0      -16.367083    5.742289   -3.217883
    158          1           0      -15.702659    7.019300   -2.351610
 ---------------------------------------------------------------------

 SCF Done:  E(RwB97XD) =  -4070.59448439     A.U. after   19 cycles

 Excitation energies and oscillator strengths:

 Excited State   1:      Singlet-A      1.6637 eV  745.23 nm  f=0.3368  <S**2>=0.000
     310 -> 316       -0.18603
     312 -> 314        0.67980
     310 <- 316       -0.11653
 This state for optimization and/or second-order correction.
 Total Energy, E(TD-HF/TD-DFT) =  -4070.53334401
 Copying the excited state density for this state as the 1-particle RhoCI density.

 Excited State   2:      Singlet-A      1.6708 eV  742.06 nm  f=0.4146  <S**2>=0.000
     309 -> 315       -0.20213
     311 -> 313        0.67571
     309 <- 315       -0.11948

 Excited State   3:      Singlet-A      2.1931 eV  565.34 nm  f=0.0610  <S**2>=0.000
     309 -> 313        0.61586
     311 -> 315        0.33613

 Excited State   4:      Singlet-A      2.2613 eV  548.29 nm  f=0.0697  <S**2>=0.000
     310 -> 314        0.61504
     312 -> 316        0.33674

 Excited State   5:      Singlet-A      3.4187 eV  362.66 nm  f=0.4037  <S**2>=0.000
     305 -> 313        0.13464
     307 -> 313       -0.34096
     309 -> 313       -0.25469
     311 -> 315        0.52553

 The electronic state is 1-A.
 Alpha  occ. eigenvalues --  -46.95257 -46.93925 -19.30996 -19.30089 -19.25174
 Alpha  occ. eigenvalues --  -19.24737 -19.24618 -19.24231 -19.24073 -19.23408
 Alpha  occ. eigenvalues --  -14.47262 -14.47188 -14.46629 -14.46315 -14.44535
 Alpha  occ. eigenvalues --  -14.44100 -14.43871 -14.43000 -10.43864 -10.42429
 Alpha  occ. eigenvalues --  -10.40480 -10.39993 -10.39359 -10.38666 -10.35948
 Alpha  occ. eigenvalues --  -10.35818 -10.35763 -10.35393 -10.35203 -10.34980
 Alpha  occ. eigenvalues --  -10.34828 -10.34748 -10.34674 -10.34592 -10.34554
 Alpha  occ. eigenvalues --  -10.34258 -10.34255 -10.34156 -10.34078 -10.33871
 Alpha  occ. eigenvalues --  -10.33466 -10.33340 -10.33228 -10.32936 -10.32798
 Alpha  occ. eigenvalues --  -10.32696 -10.32533 -10.32487 -10.32421 -10.32328
 Alpha  occ. eigenvalues --  -10.32324 -10.32236 -10.32103 -10.31996 -10.31888
 Alpha  occ. eigenvalues --  -10.31857 -10.31798 -10.31778 -10.31776 -10.31759
 Alpha  occ. eigenvalues --  -10.31686 -10.31656 -10.31587 -10.31339 -10.31327
 Alpha  occ. eigenvalues --  -10.31224 -10.30998 -10.30770 -10.30729 -10.30648
 Alpha  occ. eigenvalues --  -10.30639 -10.30524 -10.30463 -10.30419 -10.30360
 Alpha  occ. eigenvalues --  -10.30357 -10.30266 -10.29937 -10.29873 -10.29839
 Alpha  occ. eigenvalues --  -10.29732 -10.29676 -10.29388 -10.29200 -10.29190
 Alpha  occ. eigenvalues --  -10.28484  -3.21323  -3.20168  -1.94868  -1.94462
 Alpha  occ. eigenvalues --   -1.94297  -1.93751  -1.93313  -1.93158  -1.18122
 Alpha  occ. eigenvalues --   -1.17115  -1.13008  -1.12617  -1.11633  -1.11266
 Alpha  occ. eigenvalues --   -1.09191  -1.07725  -1.07204  -1.06316  -1.06125
 Alpha  occ. eigenvalues --   -1.05616  -1.05569  -1.04579  -1.04474  -1.03874
 Alpha  occ. eigenvalues --   -0.95103  -0.94697  -0.91062  -0.91032  -0.90683
 Alpha  occ. eigenvalues --   -0.90128  -0.89928  -0.89899  -0.89379  -0.88936
 Alpha  occ. eigenvalues --   -0.88698  -0.88218  -0.87986  -0.87510  -0.86457
 Alpha  occ. eigenvalues --   -0.86431  -0.85759  -0.85736  -0.84659  -0.84394
 Alpha  occ. eigenvalues --   -0.84172  -0.83545  -0.83237  -0.82926  -0.82248
 Alpha  occ. eigenvalues --   -0.82017  -0.80190  -0.80068  -0.79239  -0.79128
 Alpha  occ. eigenvalues --   -0.78831  -0.78666  -0.78419  -0.77855  -0.77324
 Alpha  occ. eigenvalues --   -0.76833  -0.74778  -0.74294  -0.74119  -0.73700
 Alpha  occ. eigenvalues --   -0.71227  -0.71205  -0.70843  -0.70719  -0.70342
 Alpha  occ. eigenvalues --   -0.69854  -0.69203  -0.68797  -0.67994  -0.67666
 Alpha  occ. eigenvalues --   -0.67466  -0.67160  -0.66884  -0.66553  -0.66442
 Alpha  occ. eigenvalues --   -0.66157  -0.64406  -0.63760  -0.62267  -0.62212
 Alpha  occ. eigenvalues --   -0.61798  -0.61572  -0.61149  -0.61000  -0.60623
 Alpha  occ. eigenvalues --   -0.60617  -0.59992  -0.59691  -0.59172  -0.59113
 Alpha  occ. eigenvalues --   -0.58327  -0.58082  -0.57852  -0.57504  -0.57446
 Alpha  occ. eigenvalues --   -0.56851  -0.56336  -0.56290  -0.56123  -0.55845
 Alpha  occ. eigenvalues --   -0.55687  -0.55384  -0.55181  -0.54961  -0.54761
 Alpha  occ. eigenvalues --   -0.54495  -0.54473  -0.54273  -0.54153  -0.54028
 Alpha  occ. eigenvalues --   -0.53526  -0.53452  -0.53342  -0.53127  -0.52982
 Alpha  occ. eigenvalues --   -0.52856  -0.52684  -0.52627  -0.52315  -0.52209
 Alpha  occ. eigenvalues --   -0.52126  -0.51952  -0.51916  -0.51363  -0.51290
 Alpha  occ. eigenvalues --   -0.51224  -0.51153  -0.51020  -0.50876  -0.50845
 Alpha  occ. eigenvalues --   -0.50450  -0.50404  -0.50232  -0.50088  -0.50045
 Alpha  occ. eigenvalues --   -0.49935  -0.49319  -0.49243  -0.49193  -0.49162
 Alpha  occ. eigenvalues --   -0.48815  -0.48521  -0.48415  -0.48349  -0.48263
 Alpha  occ. eigenvalues --   -0.48140  -0.48051  -0.47846  -0.47653  -0.47650
 Alpha  occ. eigenvalues --   -0.47460  -0.47265  -0.47069  -0.46867  -0.46855
 Alpha  occ. eigenvalues --   -0.46693  -0.46543  -0.46438  -0.46091  -0.45965
 Alpha  occ. eigenvalues --   -0.45841  -0.45692  -0.45507  -0.45419  -0.45125
 Alpha  occ. eigenvalues --   -0.45016  -0.44986  -0.44852  -0.44815  -0.44784
 Alpha  occ. eigenvalues --   -0.44618  -0.44597  -0.44324  -0.44166  -0.44147
 Alpha  occ. eigenvalues --   -0.44029  -0.44019  -0.43879  -0.43519  -0.43260
 Alpha  occ. eigenvalues --   -0.43157  -0.42929  -0.42710  -0.42466  -0.42459
 Alpha  occ. eigenvalues --   -0.42205  -0.42117  -0.41737  -0.41570  -0.41506
 Alpha  occ. eigenvalues --   -0.40808  -0.40728  -0.39773  -0.39568  -0.39466
 Alpha  occ. eigenvalues --   -0.39431  -0.39127  -0.38956  -0.38951  -0.38609
 Alpha  occ. eigenvalues --   -0.37519  -0.37225  -0.36712  -0.36283  -0.36158
 Alpha  occ. eigenvalues --   -0.35977  -0.35444  -0.34963  -0.33724  -0.33507
 Alpha  occ. eigenvalues --   -0.33507  -0.33207  -0.32988  -0.32623  -0.32467
 Alpha  occ. eigenvalues --   -0.32415  -0.31777  -0.31736  -0.26122  -0.26040
 Alpha  occ. eigenvalues --   -0.22935  -0.22607
 Alpha virt. eigenvalues --   -0.06791  -0.06477  -0.00399   0.00143   0.01747
 Alpha virt. eigenvalues --    0.02372   0.04135   0.04557   0.04951   0.05609
 Alpha virt. eigenvalues --    0.06215   0.07366   0.07522   0.07596   0.07843

 Mulliken charges:
               1
     1  Mg   0.994326
     2  C    0.048616
     3  C   -0.082908
     4  C   -0.068755
     5  C   -0.108750
     6  N   -0.341534
     7  C    0.045994
     8  C   -0.121784
     9  C   -0.075706
    10  C    0.029376
    11  C    0.026862
    12  C    0.023943
    13  C   -0.140387
    14  H    0.018672
    15  N   -0.559229
    16  C    0.189693
    17  C   -0.126489
    18  C   -0.130536
    19  C    0.181267
    20  C    0.043890
    21  C    0.089190
    22  O   -0.240689
    23  C   -0.020729
    24  N   -0.363977
    25  C    0.072941
    26  C   -0.083606
    27  C   -0.059702
    28  C    0.063381
    29  C    0.017220
    30  C   -0.011417
    31  C   -0.064797
    32  N   -0.360362
    33  C    0.130511
    34  C   -0.202664
    35  C   -0.017997
    36  C    0.092208
    37  C    0.097867
    38  C    0.101711
    39  O   -0.185109
    40  C   -0.133285
    41  C    0.263541
    42  O   -0.285053
    43  O   -0.350109
    44  C    0.138314
    45  H   -0.014477
    46  H    0.026608
    47  H   -0.019357
    48  H    0.037174
    49  H    0.028904
    50  H    0.042210
    51  H    0.037583
    52  H    0.042991
    53  H    0.031550
    54  H    0.058167
    55  H    0.053279
    56  H    0.056600
    57  H    0.054079
    58  H    0.028137
    59  H    0.054125
    60  H    0.074550
    61  H    0.050199
    62  H    0.047491
    63  H    0.043293
    64  H    0.027334
    65  H    0.021187
    66  H    0.043998
    67  H    0.041020
    68  H    0.036405
    69  H    0.043309
    70  H    0.035206
    71  H    0.044650
    72  H    0.027530
    73  H    0.034210
    74  H    0.066262
    75  H    0.064446
    76  H    0.073473
    77  H    0.048541
    78  H    0.075948
    79  H    0.049424
    80  Mg   0.987081
    81  C   -0.109038
    82  C   -0.085528
    83  C   -0.110567
    84  C   -0.096005
    85  N   -0.341969
    86  C   -0.038041
    87  C   -0.062504
    88  C   -0.058548
    89  C    0.026569
    90  C    0.027354
    91  C   -0.015306
    92  C   -0.118683
    93  H    0.037004
    94  N   -0.448598
    95  C    0.153323
    96  C   -0.157786
    97  C   -0.113602
    98  C    0.206848
    99  C    0.095576
   100  C    0.069674
   101  O   -0.226535
   102  C   -0.026140
   103  N   -0.421841
   104  C    0.079341
   105  C   -0.103176
   106  C   -0.075603
   107  C    0.085598
   108  C    0.009868
   109  C   -0.024354
   110  C   -0.038114
   111  N   -0.406674
   112  C    0.119699
   113  C   -0.211659
   114  C   -0.096369
   115  C    0.263531
   116  C    0.092512
   117  C    0.145546
   118  O   -0.217899
   119  C   -0.059216
   120  C    0.315768
   121  O   -0.277671
   122  O   -0.382214
   123  C    0.152232
   124  H   -0.009050
   125  H   -0.035099
   126  H   -0.015860
   127  H    0.049472
   128  H    0.045725
   129  H    0.043779
   130  H    0.040395
   131  H    0.046370
   132  H    0.038346
   133  H    0.048414
   134  H    0.063046
   135  H    0.056413
   136  H    0.065415
   137  H    0.023058
   138  H    0.044041
   139  H    0.073615
   140  H    0.060923
   141  H    0.052765
   142  H    0.044431
   143  H    0.036091
   144  H    0.037563
   145  H    0.038481
   146  H    0.031773
   147  H    0.048546
   148  H    0.025110
   149  H    0.051613
   150  H    0.041599
   151  H    0.037687
   152  H    0.034740
   153  H    0.054898
   154  H    0.066658
   155  H    0.059789
   156  H    0.069327
   157  H    0.033799
   158  H    0.052241
 Sum of Mulliken charges =  -0.00000

 Dipole moment (field-independent basis, Debye):
    X=              3.2735    Y=             -0.9875    Z=             -3.1458  Tot=              4.6462
 Quadrupole moment (field-independent basis, Debye-Ang):
   XX=           -297.1481   YY=           -532.1528   ZZ=           -483.7976
   XY=             95.6723   XZ=            -55.0147   YZ=            -37.6797

 Normal termination of Gaussian 16 at Sun Sep 19 14:31:04 2021.
