 Gaussian 16, Revision A.03,
 Gaussian 16:  ES64L-G16RevA.03 25-Dec-2016

 --------------------------------
 #p wB97XD/Def2SVP td=(nstates=5)
 --------------------------------

 --------------------------------
 TDDFT excited states in gaussian
 --------------------------------
 Symbolic Z-matrix:
 Charge =  0 Multiplicity = 1

                         Standard orientation:
 ---------------------------------------------------------------------
 Center     Atomic      Atomic             Coordinates (Angstroms)
 Number     Number       Type             X           Y           Z
 ---------------------------------------------------------------------
      1         12           0      -20.844347   -0.519413   -0.034613
      2          6           0      -20.289555    2.621547   -1.311480
      3          6           0      -20.789441    0.911258    3.222654
      4          6           0      -20.847685   -3.581829    1.397611
      5          6           0      -20.562235   -1.903024   -3.077091
      6          7           0      -20.563954    1.544879    0.846424
      7          6           0      -20.337731    2.660304    0.085496
      8          6           0      -20.302677    3.920300    0.953320
      9          6           0      -20.269402    3.273595    2.414494
     10          6           0      -20.554613    1.822265    2.160613
     11          6           0      -18.951396    3.569251    3.220191
     12          6           0      -21.560965    4.880242    0.741184
     13          6           0      -21.431560    6.380627    0.633994
     14          1           0      -20.584282    7.090817    1.629138
     15          7           0      -20.874641   -1.274783    2.040110
     16          6           0      -21.027870   -0.553027    3.172048
     17          6           0      -21.264052   -1.393261    4.297960
     18          6           0      -21.320183   -2.729414    3.789838
     19          6           0      -20.934480   -2.556095    2.357521
     20          6           0      -21.353335   -0.767329    5.652307
     21          6           0      -21.477264   -4.032422    4.554969
     22          8           0      -21.231919   -5.131212    4.047478
     23          6           0      -21.931192   -4.018713    6.004103
     24          7           0      -20.566808   -2.512821   -0.731235
     25          6           0      -20.742679   -3.610631    0.050368
     26          6           0      -20.785498   -4.878416   -0.801053
     27          6           0      -20.870322   -4.293773   -2.262140
     28          6           0      -20.662596   -2.811423   -2.022040
     29          6           0      -19.734134   -6.012161   -0.615449
     30          6           0      -22.163241   -4.660507   -3.103732
     31          6           0      -23.366479   -3.741511   -3.100754
     32          7           0      -20.404322    0.152212   -1.811646
     33          6           0      -20.449684   -0.460445   -3.038215
     34          6           0      -20.139610    0.408764   -4.114113
     35          6           0      -20.114838    1.654318   -3.494554
     36          6           0      -20.303263    1.446017   -2.103980
     37          6           0      -19.984010    0.197254   -5.614444
     38          6           0      -19.933188    3.027658   -3.676411
     39          8           0      -19.668585    3.622143   -4.705159
     40          6           0      -20.010427    3.791378   -2.237835
     41          6           0      -18.732756    4.457349   -2.016731
     42          8           0      -17.630815    3.894001   -1.863928
     43          8           0      -18.818873    5.813803   -2.038347
     44          6           0      -17.585200    6.600517   -2.147379
     45          1           0      -20.839717    1.471481    4.158248
     46          1           0      -21.131825   -4.556193    1.800004
     47          1           0      -20.828676   -2.250736   -4.076639
     48          1           0      -19.433765    4.512474    0.663396
     49          1           0      -21.044635    3.696184    3.053882
     50          1           0      -19.233135    4.094196    4.132320
     51          1           0      -18.318604    4.112828    2.518408
     52          1           0      -18.441628    2.691509    3.618598
     53          1           0      -22.157764    4.639588    1.621142
     54          1           0      -22.217948    4.495826   -0.038292
     55          1           0      -22.419376    6.834998    0.557725
     56          1           0      -20.890406    6.556995   -0.294900
     57          1           0      -22.217177   -1.239172    6.119118
     58          1           0      -21.588890    0.294281    5.573475
     59          1           0      -20.476395   -0.872530    6.291973
     60          1           0      -22.743000   -3.320034    6.208527
     61          1           0      -21.060720   -3.974033    6.660049
     62          1           0      -22.367577   -5.006802    6.153314
     63          1           0      -21.695283   -5.371307   -0.457673
     64          1           0      -20.124458   -4.721173   -2.931249
     65          1           0      -19.060617   -6.046193   -1.471667
     66          1           0      -20.297493   -6.944175   -0.573056
     67          1           0      -19.219376   -5.785702    0.317629
     68          1           0      -22.494918   -5.634815   -2.747407
     69          1           0      -21.899097   -4.766133   -4.156197
     70          1           0      -24.284088   -4.275296   -2.852307
     71          1           0      -23.522449   -3.223092   -4.047741
     72          1           0      -23.145335   -2.998729   -2.334265
     73          1           0      -20.190442   -0.847538   -5.849743
     74          1           0      -18.973324    0.477820   -5.911990
     75          1           0      -20.694983    0.842870   -6.129232
     76          1           0      -20.770913    4.540142   -2.461345
     77          1           0      -17.730044    7.599143   -2.559757
     78          1           0      -16.744037    6.093221   -2.618860
     79          1           0      -17.321950    6.847668   -1.118809
     80         12           0       20.216908   -0.939978   -0.118594
     81          6           0       22.225310    2.124436   -0.004194
     82          6           0       17.666968    0.927207    1.393810
     83          6           0       18.495804   -3.696288    0.142434
     84          6           0       22.782281   -2.517914   -1.758991
     85          7           0       20.049583    1.180330    0.786892
     86          6           0       20.940304    2.321079    0.613083
     87          6           0       20.413258    3.625411    1.248816
     88          6           0       19.001315    3.067456    1.861680
     89          6           0       18.859314    1.620867    1.349060
     90          6           0       18.904817    3.174815    3.371141
     91          6           0       20.335400    4.762264    0.185318
     92          6           0       19.566377    5.979872    0.601873
     93          1           0       20.120546    7.355778    0.306155
     94          7           0       18.320984   -1.373859    0.686705
     95          6           0       17.410378   -0.478430    1.259058
     96          6           0       16.186971   -1.188700    1.627129
     97          6           0       16.401897   -2.579423    1.257492
     98          6           0       17.785803   -2.637280    0.657025
     99          6           0       14.891851   -0.512179    2.208912
    100          6           0       15.552050   -3.786234    1.431720
    101          8           0       15.841079   -4.910088    1.042924
    102          6           0       14.202783   -3.660778    2.008009
    103          7           0       20.530566   -2.763122   -0.782511
    104          6           0       19.741292   -3.788201   -0.456078
    105          6           0       20.243412   -5.134678   -1.028089
    106          6           0       21.328342   -4.661099   -1.972911
    107          6           0       21.636409   -3.209089   -1.437758
    108          6           0       20.758904   -6.089115    0.042821
    109          6           0       21.158894   -4.641001   -3.470011
    110          6           0       20.071973   -3.708949   -3.961341
    111          7           0       22.148741   -0.398733   -0.677905
    112          6           0       23.050325   -1.155496   -1.447911
    113          6           0       24.237972   -0.370942   -1.679918
    114          6           0       23.865589    0.904473   -1.182718
    115          6           0       22.599684    0.849916   -0.568917
    116          6           0       25.468988   -0.740419   -2.454924
    117          6           0       24.382491    2.306315   -1.113711
    118          8           0       25.397524    2.830231   -1.620426
    119          6           0       23.338984    3.092350   -0.323035
    120          6           0       23.993776    3.761630    0.887182
    121          8           0       24.547262    3.249908    1.904862
    122          8           0       23.755301    5.099572    0.775820
    123          6           0       24.237230    5.933871    1.899896
    124          1           0       16.816650    1.551502    1.672591
    125          1           0       17.965259   -4.641268    0.276200
    126          1           0       23.648497   -2.961845   -2.254249
    127          1           0       21.184729    3.925302    1.957978
    128          1           0       18.176829    3.579046    1.365050
    129          1           0       18.037018    3.786647    3.619148
    130          1           0       19.809562    3.685220    3.699416
    131          1           0       19.036649    2.261720    3.951237
    132          1           0       19.997697    4.278795   -0.732025
    133          1           0       21.349956    5.083609   -0.050616
    134          1           0       19.371238    6.101692    1.667073
    135          1           0       18.622692    6.009099    0.057926
    136          1           0       14.123182   -0.699731    1.458638
    137          1           0       14.989095    0.564487    2.347490
    138          1           0       14.684373   -1.018368    3.151773
    139          1           0       14.154913   -3.010104    2.881426
    140          1           0       13.955364   -4.681203    2.298496
    141          1           0       13.643672   -3.126521    1.240454
    142          1           0       19.394786   -5.604229   -1.525668
    143          1           0       22.233352   -5.263903   -1.892431
    144          1           0       20.426889   -7.096614   -0.205135
    145          1           0       20.367927   -5.828305    1.025715
    146          1           0       21.845662   -6.163360   -0.010480
    147          1           0       21.032813   -5.670802   -3.805376
    148          1           0       22.032336   -4.206146   -3.955630
    149          1           0       19.435878   -4.181342   -4.708993
    150          1           0       20.468621   -2.830666   -4.471136
    151          1           0       19.394999   -3.357694   -3.182505
    152          1           0       25.674414    0.026424   -3.201417
    153          1           0       25.527005   -1.688099   -2.990253
    154          1           0       26.294279   -0.761242   -1.742886
    155          1           0       22.989194    3.913852   -0.948892
    156          1           0       23.405886    6.174390    2.562231
    157          1           0       24.668074    6.752754    1.323766
    158          1           0       25.083188    5.483416    2.420658
 ---------------------------------------------------------------------

 SCF Done:  E(RwB97XD) =  -4070.64231591     A.U. after   19 cycles

 Excitation energies and oscillator strengths:

 Excited State   1:      Singlet-A      1.6111 eV  769.58 nm  f=0.3980  <S**2>=0.000
     309 -> 315        0.17049
     312 -> 313        0.68653
     309 <- 315        0.11383
 This state for optimization and/or second-order correction.
 Total Energy, E(TD-HF/TD-DFT) =  -4070.58311037
 Copying the excited state density for this state as the 1-particle RhoCI density.

 Excited State   2:      Singlet-A      1.6605 eV  746.67 nm  f=0.4161  <S**2>=0.000
     310 -> 316       -0.18412
     311 -> 314        0.68431
     310 <- 316       -0.11636

 Excited State   3:      Singlet-A      2.1163 eV  585.86 nm  f=0.1305  <S**2>=0.000
     309 -> 313        0.64974
     312 -> 315       -0.25754

 Excited State   4:      Singlet-A      2.1344 eV  580.89 nm  f=0.1727  <S**2>=0.000
     310 -> 314        0.66023
     311 -> 316        0.24164

 Excited State   5:      Singlet-A      3.2647 eV  379.77 nm  f=0.0056  <S**2>=0.000
     304 -> 313       -0.31938
     308 -> 313        0.60910

 The electronic state is 1-A.
 Alpha  occ. eigenvalues --  -46.95483 -46.94088 -19.30965 -19.30318 -19.24588
 Alpha  occ. eigenvalues --  -19.23964 -19.23834 -19.23687 -19.23517 -19.23472
 Alpha  occ. eigenvalues --  -14.47128 -14.46757 -14.46747 -14.46156 -14.44594
 Alpha  occ. eigenvalues --  -14.44199 -14.44125 -14.43408 -10.43805 -10.42816
 Alpha  occ. eigenvalues --  -10.39393 -10.38718 -10.38625 -10.38571 -10.35995
 Alpha  occ. eigenvalues --  -10.35628 -10.35558 -10.35497 -10.35401 -10.35137
 Alpha  occ. eigenvalues --  -10.35119 -10.34935 -10.34783 -10.34726 -10.34578
 Alpha  occ. eigenvalues --  -10.34440 -10.34185 -10.34164 -10.34155 -10.33924
 Alpha  occ. eigenvalues --  -10.33194 -10.33029 -10.33014 -10.32974 -10.32894
 Alpha  occ. eigenvalues --  -10.32862 -10.32604 -10.32579 -10.32575 -10.32567
 Alpha  occ. eigenvalues --  -10.32563 -10.32562 -10.32429 -10.32354 -10.32152
 Alpha  occ. eigenvalues --  -10.32127 -10.32084 -10.31818 -10.31636 -10.31597
 Alpha  occ. eigenvalues --  -10.31581 -10.31545 -10.31401 -10.31390 -10.30990
 Alpha  occ. eigenvalues --  -10.30974 -10.30897 -10.30848 -10.30771 -10.30685
 Alpha  occ. eigenvalues --  -10.30325 -10.30186 -10.30126 -10.30096 -10.29967
 Alpha  occ. eigenvalues --  -10.29779 -10.29773 -10.29713 -10.29601 -10.29539
 Alpha  occ. eigenvalues --  -10.29469 -10.29277 -10.28872 -10.28679 -10.28676
 Alpha  occ. eigenvalues --  -10.28343  -3.21534  -3.20243  -1.95107  -1.94620
 Alpha  occ. eigenvalues --   -1.94549  -1.93843  -1.93381  -1.93221  -1.18163
 Alpha  occ. eigenvalues --   -1.18067  -1.12631  -1.12161  -1.11728  -1.09974
 Alpha  occ. eigenvalues --   -1.08061  -1.07932  -1.07436  -1.07036  -1.06732
 Alpha  occ. eigenvalues --   -1.06198  -1.05544  -1.04788  -1.04337  -1.02596
 Alpha  occ. eigenvalues --   -0.94624  -0.94232  -0.91533  -0.90986  -0.90803
 Alpha  occ. eigenvalues --   -0.90542  -0.90143  -0.90096  -0.89761  -0.89404
 Alpha  occ. eigenvalues --   -0.89246  -0.88977  -0.88407  -0.87777  -0.86659
 Alpha  occ. eigenvalues --   -0.86253  -0.85911  -0.85693  -0.84844  -0.84602
 Alpha  occ. eigenvalues --   -0.84259  -0.83809  -0.83351  -0.83148  -0.82315
 Alpha  occ. eigenvalues --   -0.82024  -0.80508  -0.80391  -0.79440  -0.79169
 Alpha  occ. eigenvalues --   -0.79070  -0.78691  -0.78199  -0.77871  -0.77467
 Alpha  occ. eigenvalues --   -0.77431  -0.75570  -0.74718  -0.73902  -0.73560
 Alpha  occ. eigenvalues --   -0.72194  -0.71582  -0.71388  -0.71249  -0.70130
 Alpha  occ. eigenvalues --   -0.69609  -0.69160  -0.69149  -0.67593  -0.67143
 Alpha  occ. eigenvalues --   -0.67024  -0.66762  -0.66643  -0.66258  -0.66241
 Alpha  occ. eigenvalues --   -0.65788  -0.64273  -0.63898  -0.62238  -0.62230
 Alpha  occ. eigenvalues --   -0.61841  -0.61130  -0.61099  -0.61061  -0.60308
 Alpha  occ. eigenvalues --   -0.60275  -0.59915  -0.59655  -0.59372  -0.59313
 Alpha  occ. eigenvalues --   -0.58282  -0.58273  -0.57853  -0.57442  -0.57368
 Alpha  occ. eigenvalues --   -0.57202  -0.57034  -0.56811  -0.56699  -0.56215
 Alpha  occ. eigenvalues --   -0.56027  -0.55413  -0.55263  -0.55128  -0.55022
 Alpha  occ. eigenvalues --   -0.54779  -0.54686  -0.54517  -0.54380  -0.54204
 Alpha  occ. eigenvalues --   -0.54074  -0.54053  -0.53435  -0.53062  -0.52780
 Alpha  occ. eigenvalues --   -0.52720  -0.52686  -0.52560  -0.52278  -0.52228
 Alpha  occ. eigenvalues --   -0.52083  -0.51834  -0.51679  -0.51506  -0.51497
 Alpha  occ. eigenvalues --   -0.51199  -0.51043  -0.50766  -0.50731  -0.50707
 Alpha  occ. eigenvalues --   -0.50706  -0.50538  -0.50521  -0.50404  -0.50202
 Alpha  occ. eigenvalues --   -0.50015  -0.49811  -0.49646  -0.49536  -0.49523
 Alpha  occ. eigenvalues --   -0.49130  -0.48907  -0.48832  -0.48679  -0.48460
 Alpha  occ. eigenvalues --   -0.48418  -0.48129  -0.48071  -0.47919  -0.47914
 Alpha  occ. eigenvalues --   -0.47837  -0.47570  -0.47365  -0.47269  -0.46990
 Alpha  occ. eigenvalues --   -0.46808  -0.46491  -0.46455  -0.46251  -0.46090
 Alpha  occ. eigenvalues --   -0.45893  -0.45865  -0.45837  -0.45587  -0.45365
 Alpha  occ. eigenvalues --   -0.45325  -0.45202  -0.45137  -0.44961  -0.44582
 Alpha  occ. eigenvalues --   -0.44446  -0.44222  -0.44108  -0.43940  -0.43826
 Alpha  occ. eigenvalues --   -0.43826  -0.43705  -0.43491  -0.43265  -0.43211
 Alpha  occ. eigenvalues --   -0.43068  -0.42807  -0.42529  -0.42380  -0.41957
 Alpha  occ. eigenvalues --   -0.41860  -0.41789  -0.41489  -0.41136  -0.40979
 Alpha  occ. eigenvalues --   -0.40777  -0.40443  -0.40182  -0.39310  -0.39292
 Alpha  occ. eigenvalues --   -0.39123  -0.38775  -0.38694  -0.38460  -0.38092
 Alpha  occ. eigenvalues --   -0.38077  -0.37715  -0.36582  -0.36285  -0.36044
 Alpha  occ. eigenvalues --   -0.35455  -0.35281  -0.35116  -0.33708  -0.33571
 Alpha  occ. eigenvalues --   -0.33280  -0.33238  -0.33065  -0.32569  -0.32484
 Alpha  occ. eigenvalues --   -0.32289  -0.32274  -0.31274  -0.26163  -0.25781
 Alpha  occ. eigenvalues --   -0.23308  -0.23264
 Alpha virt. eigenvalues --   -0.07633  -0.07494   0.00275   0.00693   0.02279
 Alpha virt. eigenvalues --    0.02390   0.04317   0.04524   0.04907   0.06273
 Alpha virt. eigenvalues --    0.06702   0.06836   0.07712   0.08521   0.08628

 Mulliken charges:
               1
     1  Mg   0.974643
     2  C   -0.004253
     3  C   -0.064923
     4  C   -0.065453
     5  C   -0.074973
     6  N   -0.330622
     7  C    0.000653
     8  C   -0.084602
     9  C   -0.117687
    10  C    0.051411
    11  C    0.025237
    12  C    0.010958
    13  C   -0.102352
    14  H    0.032713
    15  N   -0.356661
    16  C    0.129066
    17  C   -0.163824
    18  C   -0.075469
    19  C    0.100056
    20  C    0.082235
    21  C    0.043289
    22  O   -0.246917
    23  C   -0.017052
    24  N   -0.351607
    25  C    0.050188
    26  C   -0.080622
    27  C   -0.041514
    28  C    0.061666
    29  C    0.035323
    30  C   -0.057968
    31  C   -0.043073
    32  N   -0.478545
    33  C    0.099477
    34  C   -0.189142
    35  C    0.040962
    36  C    0.138012
    37  C    0.096928
    38  C    0.037803
    39  O   -0.207915
    40  C   -0.055930
    41  C    0.260109
    42  O   -0.281329
    43  O   -0.359697
    44  C    0.146652
    45  H   -0.010884
    46  H    0.017322
    47  H   -0.000387
    48  H    0.048992
    49  H    0.042644
    50  H    0.031654
    51  H    0.050399
    52  H    0.040552
    53  H    0.012390
    54  H    0.032289
    55  H    0.056034
    56  H    0.054321
    57  H    0.030641
    58  H    0.036835
    59  H    0.063541
    60  H    0.053824
    61  H    0.071480
    62  H    0.050447
    63  H    0.036370
    64  H    0.036879
    65  H    0.036505
    66  H    0.040377
    67  H    0.051400
    68  H    0.029710
    69  H    0.029355
    70  H    0.038481
    71  H    0.037301
    72  H    0.035891
    73  H    0.026424
    74  H    0.066801
    75  H    0.060991
    76  H    0.060692
    77  H    0.053416
    78  H    0.075455
    79  H    0.036612
    80  Mg   0.975052
    81  C   -0.025810
    82  C   -0.091660
    83  C   -0.091423
    84  C   -0.077756
    85  N   -0.366245
    86  C   -0.005783
    87  C   -0.064834
    88  C   -0.111886
    89  C    0.088916
    90  C    0.051919
    91  C   -0.005940
    92  C   -0.128100
    93  H    0.029113
    94  N   -0.467390
    95  C    0.163191
    96  C   -0.170456
    97  C   -0.057319
    98  C    0.152307
    99  C    0.067330
   100  C    0.021962
   101  O   -0.243488
   102  C    0.002032
   103  N   -0.422471
   104  C    0.103894
   105  C   -0.088105
   106  C   -0.066203
   107  C    0.109879
   108  C    0.042979
   109  C    0.010301
   110  C   -0.067850
   111  N   -0.449652
   112  C    0.078947
   113  C   -0.151456
   114  C   -0.101692
   115  C    0.167021
   116  C    0.064806
   117  C    0.158566
   118  O   -0.236446
   119  C   -0.063462
   120  C    0.279069
   121  O   -0.286796
   122  O   -0.366328
   123  C    0.125339
   124  H   -0.007282
   125  H    0.021603
   126  H    0.001288
   127  H    0.052028
   128  H    0.035121
   129  H    0.045593
   130  H    0.021871
   131  H    0.048106
   132  H    0.034849
   133  H    0.058178
   134  H    0.052507
   135  H    0.055254
   136  H    0.061448
   137  H    0.044219
   138  H    0.067019
   139  H    0.027147
   140  H    0.066577
   141  H    0.059764
   142  H    0.041444
   143  H    0.013854
   144  H    0.035657
   145  H    0.048281
   146  H    0.036529
   147  H    0.035158
   148  H    0.029048
   149  H    0.029091
   150  H    0.034952
   151  H    0.040832
   152  H    0.061465
   153  H    0.026453
   154  H    0.055469
   155  H    0.079567
   156  H    0.065859
   157  H    0.060820
   158  H    0.076157
 Sum of Mulliken charges =  -0.00000

 Dipole moment (field-independent basis, Debye):
    X=             -8.8701    Y=              1.5600    Z=              3.7149  Tot=              9.7423
 Quadrupole moment (field-independent basis, Debye-Ang):
   XX=           -600.3269   YY=           -489.3767   ZZ=           -493.4826
   XY=            -15.2873   XZ=            -46.9824   YZ=             49.4354

 Normal termination of Gaussian 16 at Mon Sep 20 19:23:11 2021.
