 Gaussian 16, Revision A.03,
 Gaussian 16:  ES64L-G16RevA.03 25-Dec-2016

 --------------------------------
 #p wB97XD/Def2SVP td=(nstates=5)
 --------------------------------

 --------------------------------
 TDDFT excited states in gaussian
 --------------------------------
 Symbolic Z-matrix:
 Charge =  0 Multiplicity = 1

                         Standard orientation:
 ---------------------------------------------------------------------
 Center     Atomic      Atomic             Coordinates (Angstroms)
 Number     Number       Type             X           Y           Z
 ---------------------------------------------------------------------
      1         12           0       -9.373803   -0.309058    0.907909
      2          6           0       -8.510701   -1.615110   -2.277643
      3          6           0       -6.407687   -1.693655    2.112969
      4          6           0       -9.601391    1.839300    3.391637
      5          6           0      -12.221881    1.268672   -0.766363
      6          7           0       -7.499295   -1.338029   -0.098695
      7          6           0       -7.546376   -1.966213   -1.299646
      8          6           0       -6.379083   -2.930848   -1.408106
      9          6           0       -6.122198   -3.366115    0.034729
     10          6           0       -6.660908   -2.024062    0.750052
     11          6           0       -6.881931   -4.577473    0.578567
     12          6           0       -5.176737   -2.228983   -2.177903
     13          6           0       -4.567168   -3.112623   -3.194040
     14          1           0       -3.030553   -3.111295   -3.311427
     15          7           0       -8.137929    0.098730    2.565832
     16          6           0       -6.990599   -0.651596    2.924492
     17          6           0       -6.529463   -0.113669    4.179545
     18          6           0       -7.452149    0.853092    4.660020
     19          6           0       -8.452923    1.010071    3.545265
     20          6           0       -5.251378   -0.636883    4.827370
     21          6           0       -7.333510    1.627783    5.912751
     22          8           0       -6.365752    1.432710    6.637679
     23          6           0       -8.232751    2.723884    6.382297
     24          7           0      -10.738148    1.441477    1.187299
     25          6           0      -10.680475    1.975843    2.423378
     26          6           0      -11.861012    2.935973    2.656456
     27          6           0      -12.827656    2.658280    1.372453
     28          6           0      -11.927070    1.704488    0.545562
     29          6           0      -12.534253    2.821282    4.097692
     30          6           0      -13.309739    3.929519    0.605879
     31          6           0      -12.536583    4.333269   -0.695686
     32          7           0      -10.202087   -0.179006   -1.014819
     33          6           0      -11.386819    0.442072   -1.503217
     34          6           0      -11.644047   -0.054911   -2.924701
     35          6           0      -10.509918   -0.797065   -3.213130
     36          6           0       -9.691998   -0.852415   -2.028191
     37          6           0      -12.791450    0.190995   -3.923310
     38          6           0       -9.881335   -1.600696   -4.212959
     39          8           0      -10.278516   -1.942816   -5.327990
     40          6           0       -8.556946   -1.975492   -3.650140
     41          6           0       -7.572904   -1.118792   -4.479188
     42          8           0       -7.320462    0.075385   -4.333638
     43          8           0       -7.055616   -1.952999   -5.508842
     44          6           0       -6.221020   -1.371822   -6.480451
     45          1           0       -5.545270   -2.177062    2.576944
     46          1           0       -9.684434    2.382959    4.334804
     47          1           0      -13.121737    1.567840   -1.306579
     48          1           0       -6.631057   -3.856354   -1.925625
     49          1           0       -5.112934   -3.604079    0.368710
     50          1           0       -7.290142   -5.225159   -0.196763
     51          1           0       -7.560425   -4.297483    1.384763
     52          1           0       -6.083671   -5.157239    1.043435
     53          1           0       -4.395505   -1.990179   -1.456191
     54          1           0       -5.408503   -1.233923   -2.557844
     55          1           0       -5.049300   -2.760892   -4.105442
     56          1           0       -4.870566   -4.137437   -2.980544
     57          1           0       -5.443271   -1.286553    5.681084
     58          1           0       -4.611740    0.210480    5.069862
     59          1           0       -4.687027   -1.240206    4.116160
     60          1           0       -9.198744    2.285870    6.634698
     61          1           0       -8.388095    3.545342    5.681814
     62          1           0       -7.945184    3.082915    7.369733
     63          1           0      -11.406026    3.916445    2.517491
     64          1           0      -13.666296    2.043958    1.698419
     65          1           0      -11.834041    2.413206    4.826449
     66          1           0      -13.510282    2.343569    4.190790
     67          1           0      -12.864780    3.844770    4.281481
     68          1           0      -13.352802    4.809662    1.246922
     69          1           0      -14.318292    3.644163    0.307703
     70          1           0      -12.691236    5.406534   -0.582405
     71          1           0      -12.940587    4.009099   -1.654995
     72          1           0      -11.488995    4.068577   -0.550707
     73          1           0      -13.257156   -0.747396   -4.222348
     74          1           0      -12.164147    0.481705   -4.765433
     75          1           0      -13.395897    1.009664   -3.533372
     76          1           0       -8.362746   -3.029405   -3.849597
     77          1           0       -5.868322   -2.061340   -7.248447
     78          1           0       -5.348161   -0.975515   -5.963181
     79          1           0       -6.826749   -0.588450   -6.936876
     80         12           0        9.046295    0.727232   -0.030915
     81          6           0        8.173024   -2.454570    0.796510
     82          6           0        5.764165    1.527125   -0.682592
     83          6           0       10.084781    3.800928   -0.997719
     84          6           0       12.431265   -0.266407    0.184537
     85          7           0        7.198038   -0.422109   -0.161842
     86          6           0        7.063907   -1.584163    0.531474
     87          6           0        5.644899   -1.952176    0.804423
     88          6           0        4.902707   -0.725397    0.059313
     89          6           0        6.012327    0.208729   -0.296628
     90          6           0        4.084688   -1.190704   -1.229238
     91          6           0        5.401582   -1.933241    2.385334
     92          6           0        4.232395   -2.759823    2.925124
     93          1           0        3.099747   -3.349726    2.048411
     94          7           0        8.097892    2.485269   -0.650783
     95          6           0        6.716459    2.593175   -0.879881
     96          6           0        6.469273    3.939306   -1.341975
     97          6           0        7.704286    4.615828   -1.408467
     98          6           0        8.674028    3.626783   -0.958345
     99          6           0        5.031574    4.439605   -1.614988
    100          6           0        7.982902    6.110888   -1.959638
    101          8           0        9.080921    6.670532   -1.847308
    102          6           0        6.934434    6.984938   -2.627834
    103          7           0       11.040850    1.651255   -0.291529
    104          6           0       11.150047    2.925093   -0.738743
    105          6           0       12.590157    3.260108   -1.123428
    106          6           0       13.411099    2.034249   -0.416459
    107          6           0       12.260062    1.089341   -0.037142
    108          6           0       12.861075    3.523505   -2.675151
    109          6           0       14.164866    2.377946    0.966752
    110          6           0       15.615748    1.975078    1.155936
    111          7           0       10.168862   -0.968621    0.445286
    112          6           0       11.484780   -1.242050    0.482890
    113          6           0       11.698594   -2.635622    0.984741
    114          6           0       10.373964   -3.100200    1.163601
    115          6           0        9.515498   -2.075550    0.695537
    116          6           0       12.948209   -3.383548    1.289078
    117          6           0        9.677973   -4.255277    1.591665
    118          8           0       10.110112   -5.350977    2.004790
    119          6           0        8.211303   -3.894368    1.369996
    120          6           0        7.638211   -4.829289    0.428897
    121          8           0        7.974605   -5.129138   -0.673850
    122          8           0        6.462250   -5.292609    1.011392
    123          6           0        5.533684   -6.253428    0.301485
    124          1           0        4.744238    1.916174   -0.690136
    125          1           0       10.414975    4.760430   -1.402036
    126          1           0       13.429663   -0.695995    0.085012
    127          1           0        5.222934   -2.896046    0.459802
    128          1           0        4.203506   -0.221346    0.726484
    129          1           0        3.150866   -0.661222   -1.416831
    130          1           0        3.972544   -2.274592   -1.207435
    131          1           0        4.718979   -0.969884   -2.088351
    132          1           0        5.266083   -0.917276    2.756731
    133          1           0        6.327696   -2.312773    2.817785
    134          1           0        3.773541   -2.143478    3.699254
    135          1           0        4.635323   -3.605526    3.481082
    136          1           0        4.251992    3.715773   -1.377824
    137          1           0        4.997598    4.725710   -2.665699
    138          1           0        4.895069    5.349703   -1.030419
    139          1           0        6.241601    7.237251   -1.825928
    140          1           0        6.261250    6.414622   -3.268196
    141          1           0        7.410614    7.751239   -3.239160
    142          1           0       12.868861    4.171281   -0.592754
    143          1           0       14.146693    1.611690   -1.101170
    144          1           0       13.608889    2.834905   -3.069184
    145          1           0       13.176275    4.554755   -2.829985
    146          1           0       11.964241    3.321405   -3.261252
    147          1           0       13.600221    2.032589    1.832657
    148          1           0       14.112041    3.460868    1.074834
    149          1           0       15.648726    1.354964    2.051067
    150          1           0       16.288702    2.828804    1.230873
    151          1           0       15.925119    1.324179    0.336985
    152          1           0       13.865951   -2.804276    1.188963
    153          1           0       13.058650   -4.242047    0.626087
    154          1           0       12.887815   -3.746749    2.314816
    155          1           0        7.634394   -3.927775    2.294664
    156          1           0        5.897568   -6.458758   -0.705489
    157          1           0        4.551823   -5.792910    0.184173
    158          1           0        5.521520   -7.151793    0.918593
 ---------------------------------------------------------------------

 SCF Done:  E(RwB97XD) =  -4070.56327706     A.U. after   19 cycles

 Excitation energies and oscillator strengths:

 Excited State   1:      Singlet-A      1.6240 eV  763.45 nm  f=0.3524  <S**2>=0.000
     309 -> 315       -0.20433
     311 -> 313        0.67804
     309 <- 315       -0.12291
 This state for optimization and/or second-order correction.
 Total Energy, E(TD-HF/TD-DFT) =  -4070.50359644
 Copying the excited state density for this state as the 1-particle RhoCI density.

 Excited State   2:      Singlet-A      1.6813 eV  737.41 nm  f=0.3915  <S**2>=0.000
     310 -> 316        0.19778
     312 -> 314        0.68064
     310 <- 316        0.11938

 Excited State   3:      Singlet-A      2.1339 eV  581.02 nm  f=0.0554  <S**2>=0.000
     309 -> 313        0.61253
     311 -> 315        0.34215

 Excited State   4:      Singlet-A      2.1738 eV  570.35 nm  f=0.1002  <S**2>=0.000
     310 -> 314        0.63641
     312 -> 316       -0.29855

 Excited State   5:      Singlet-A      3.5053 eV  353.71 nm  f=0.0000  <S**2>=0.000
     312 -> 313        0.70670

 The electronic state is 1-A.
 Alpha  occ. eigenvalues --  -46.97831 -46.95650 -19.30134 -19.28896 -19.26530
 Alpha  occ. eigenvalues --  -19.24480 -19.24160 -19.24118 -19.23831 -19.22743
 Alpha  occ. eigenvalues --  -14.47162 -14.46965 -14.46693 -14.46195 -14.45008
 Alpha  occ. eigenvalues --  -14.44521 -14.44047 -14.43907 -10.44685 -10.42439
 Alpha  occ. eigenvalues --  -10.40128 -10.38752 -10.38464 -10.38230 -10.36015
 Alpha  occ. eigenvalues --  -10.35714 -10.35644 -10.35639 -10.35630 -10.35544
 Alpha  occ. eigenvalues --  -10.35222 -10.35034 -10.34953 -10.34588 -10.34583
 Alpha  occ. eigenvalues --  -10.34290 -10.34134 -10.33956 -10.33811 -10.33744
 Alpha  occ. eigenvalues --  -10.33668 -10.33646 -10.32987 -10.32979 -10.32926
 Alpha  occ. eigenvalues --  -10.32724 -10.32717 -10.32655 -10.32644 -10.32435
 Alpha  occ. eigenvalues --  -10.32408 -10.32308 -10.32266 -10.32257 -10.32201
 Alpha  occ. eigenvalues --  -10.32118 -10.31959 -10.31949 -10.31943 -10.31814
 Alpha  occ. eigenvalues --  -10.31795 -10.31780 -10.31634 -10.31512 -10.31350
 Alpha  occ. eigenvalues --  -10.31348 -10.31316 -10.31221 -10.31191 -10.31183
 Alpha  occ. eigenvalues --  -10.30807 -10.30416 -10.30404 -10.30401 -10.30390
 Alpha  occ. eigenvalues --  -10.30051 -10.29975 -10.29948 -10.29878 -10.29846
 Alpha  occ. eigenvalues --  -10.29784 -10.29656 -10.29380 -10.29213 -10.29100
 Alpha  occ. eigenvalues --  -10.28757  -3.23536  -3.21505  -1.97051  -1.96697
 Alpha  occ. eigenvalues --   -1.96448  -1.95115  -1.94609  -1.94485  -1.18172
 Alpha  occ. eigenvalues --   -1.17744  -1.12015  -1.11717  -1.11627  -1.11042
 Alpha  occ. eigenvalues --   -1.10528  -1.09376  -1.07542  -1.06391  -1.06384
 Alpha  occ. eigenvalues --   -1.05617  -1.05506  -1.05041  -1.04569  -1.03469
 Alpha  occ. eigenvalues --   -0.96580  -0.95442  -0.91236  -0.90787  -0.90460
 Alpha  occ. eigenvalues --   -0.90052  -0.89840  -0.89374  -0.89354  -0.88962
 Alpha  occ. eigenvalues --   -0.88909  -0.88717  -0.88073  -0.87687  -0.86881
 Alpha  occ. eigenvalues --   -0.86203  -0.85734  -0.85279  -0.84787  -0.84181
 Alpha  occ. eigenvalues --   -0.83721  -0.83432  -0.83050  -0.82977  -0.82409
 Alpha  occ. eigenvalues --   -0.82191  -0.80285  -0.80152  -0.79364  -0.79319
 Alpha  occ. eigenvalues --   -0.78996  -0.78989  -0.78138  -0.78063  -0.77315
 Alpha  occ. eigenvalues --   -0.77027  -0.74913  -0.74528  -0.74000  -0.73880
 Alpha  occ. eigenvalues --   -0.71989  -0.71205  -0.70893  -0.70489  -0.70086
 Alpha  occ. eigenvalues --   -0.69452  -0.69012  -0.67880  -0.67492  -0.67176
 Alpha  occ. eigenvalues --   -0.67087  -0.67079  -0.66867  -0.66722  -0.66435
 Alpha  occ. eigenvalues --   -0.66166  -0.64392  -0.63786  -0.62381  -0.62105
 Alpha  occ. eigenvalues --   -0.61936  -0.61808  -0.61449  -0.61098  -0.61039
 Alpha  occ. eigenvalues --   -0.60727  -0.60441  -0.60376  -0.59661  -0.59178
 Alpha  occ. eigenvalues --   -0.58268  -0.58105  -0.57933  -0.57788  -0.57425
 Alpha  occ. eigenvalues --   -0.57172  -0.57018  -0.56682  -0.56092  -0.55819
 Alpha  occ. eigenvalues --   -0.55622  -0.55455  -0.55154  -0.54875  -0.54828
 Alpha  occ. eigenvalues --   -0.54749  -0.54633  -0.54275  -0.54059  -0.54039
 Alpha  occ. eigenvalues --   -0.53995  -0.53778  -0.53523  -0.53516  -0.53481
 Alpha  occ. eigenvalues --   -0.53420  -0.53268  -0.52694  -0.52654  -0.52380
 Alpha  occ. eigenvalues --   -0.52239  -0.52062  -0.51656  -0.51568  -0.51547
 Alpha  occ. eigenvalues --   -0.51344  -0.51291  -0.51077  -0.50990  -0.50739
 Alpha  occ. eigenvalues --   -0.50591  -0.50328  -0.50156  -0.50014  -0.49879
 Alpha  occ. eigenvalues --   -0.49798  -0.49568  -0.49468  -0.49274  -0.49156
 Alpha  occ. eigenvalues --   -0.48947  -0.48796  -0.48423  -0.48327  -0.48176
 Alpha  occ. eigenvalues --   -0.48074  -0.48073  -0.48014  -0.48010  -0.47964
 Alpha  occ. eigenvalues --   -0.47541  -0.47436  -0.47415  -0.47241  -0.47057
 Alpha  occ. eigenvalues --   -0.46658  -0.46564  -0.46528  -0.46209  -0.46193
 Alpha  occ. eigenvalues --   -0.46155  -0.45972  -0.45834  -0.45743  -0.45608
 Alpha  occ. eigenvalues --   -0.45578  -0.45389  -0.45151  -0.44985  -0.44519
 Alpha  occ. eigenvalues --   -0.44513  -0.44248  -0.44143  -0.43675  -0.43608
 Alpha  occ. eigenvalues --   -0.43492  -0.43474  -0.43205  -0.43138  -0.43067
 Alpha  occ. eigenvalues --   -0.43003  -0.42845  -0.42688  -0.42476  -0.42132
 Alpha  occ. eigenvalues --   -0.42031  -0.41577  -0.41265  -0.41210  -0.40700
 Alpha  occ. eigenvalues --   -0.40334  -0.40248  -0.40074  -0.39805  -0.39667
 Alpha  occ. eigenvalues --   -0.39454  -0.38783  -0.38690  -0.38505  -0.38496
 Alpha  occ. eigenvalues --   -0.38066  -0.37912  -0.37360  -0.36413  -0.36400
 Alpha  occ. eigenvalues --   -0.36146  -0.35785  -0.35328  -0.33700  -0.33308
 Alpha  occ. eigenvalues --   -0.33148  -0.33062  -0.32928  -0.32882  -0.32312
 Alpha  occ. eigenvalues --   -0.32284  -0.32145  -0.31802  -0.26136  -0.25671
 Alpha  occ. eigenvalues --   -0.23003  -0.22855
 Alpha virt. eigenvalues --   -0.07051  -0.06782  -0.00898   0.00271   0.01684
 Alpha virt. eigenvalues --    0.02117   0.02770   0.04147   0.04528   0.05911
 Alpha virt. eigenvalues --    0.06671   0.07375   0.07378   0.08082   0.08178

 Mulliken charges:
               1
     1  Mg   0.936701
     2  C    0.010785
     3  C   -0.075444
     4  C   -0.029720
     5  C   -0.064364
     6  N   -0.298308
     7  C   -0.021777
     8  C   -0.051675
     9  C   -0.134266
    10  C    0.043653
    11  C    0.038360
    12  C    0.034035
    13  C   -0.116688
    14  H    0.033373
    15  N   -0.490318
    16  C    0.145711
    17  C   -0.165898
    18  C   -0.024966
    19  C    0.111562
    20  C    0.096672
    21  C   -0.007057
    22  O   -0.246628
    23  C    0.014054
    24  N   -0.325817
    25  C    0.062881
    26  C   -0.098255
    27  C   -0.020456
    28  C    0.007680
    29  C    0.005877
    30  C   -0.047136
    31  C   -0.048185
    32  N   -0.422870
    33  C    0.106807
    34  C   -0.210489
    35  C   -0.023454
    36  C    0.162006
    37  C    0.091042
    38  C    0.075888
    39  O   -0.215869
    40  C   -0.055021
    41  C    0.276282
    42  O   -0.229656
    43  O   -0.374738
    44  C    0.144879
    45  H    0.004156
    46  H   -0.047295
    47  H   -0.000545
    48  H    0.012966
    49  H    0.028858
    50  H    0.042414
    51  H    0.047322
    52  H    0.028258
    53  H    0.031641
    54  H    0.056280
    55  H    0.045806
    56  H    0.046680
    57  H    0.058603
    58  H    0.060706
    59  H    0.008763
    60  H    0.041155
    61  H    0.071537
    62  H    0.047088
    63  H    0.050754
    64  H    0.038098
    65  H    0.052439
    66  H    0.034141
    67  H    0.031721
    68  H    0.040395
    69  H    0.031238
    70  H    0.035795
    71  H    0.046561
    72  H    0.060213
    73  H    0.073240
    74  H    0.068057
    75  H    0.039156
    76  H    0.061172
    77  H    0.058369
    78  H    0.041214
    79  H    0.053853
    80  Mg   0.951131
    81  C   -0.080308
    82  C   -0.065030
    83  C   -0.054669
    84  C   -0.099760
    85  N   -0.357884
    86  C    0.029307
    87  C   -0.079503
    88  C   -0.109787
    89  C    0.089982
    90  C    0.022688
    91  C   -0.013681
    92  C   -0.098500
    93  H    0.034353
    94  N   -0.438988
    95  C    0.108718
    96  C   -0.179230
    97  C   -0.083485
    98  C    0.122581
    99  C    0.062417
   100  C    0.076044
   101  O   -0.249731
   102  C    0.010413
   103  N   -0.332060
   104  C    0.030947
   105  C   -0.062598
   106  C   -0.122839
   107  C    0.110863
   108  C    0.017311
   109  C   -0.023461
   110  C   -0.037671
   111  N   -0.390587
   112  C    0.092528
   113  C   -0.157352
   114  C   -0.058518
   115  C    0.195186
   116  C    0.082466
   117  C    0.128996
   118  O   -0.229851
   119  C   -0.055306
   120  C    0.260395
   121  O   -0.202810
   122  O   -0.416530
   123  C    0.130461
   124  H   -0.007130
   125  H    0.015235
   126  H   -0.000138
   127  H    0.041847
   128  H    0.032860
   129  H    0.044935
   130  H    0.032419
   131  H    0.038489
   132  H    0.033780
   133  H    0.032506
   134  H    0.043706
   135  H    0.053248
   136  H    0.043299
   137  H    0.051482
   138  H    0.048884
   139  H    0.055196
   140  H    0.026426
   141  H    0.075500
   142  H    0.037484
   143  H    0.035164
   144  H    0.033580
   145  H    0.050418
   146  H    0.045486
   147  H    0.038453
   148  H    0.020829
   149  H    0.037065
   150  H    0.048254
   151  H    0.024336
   152  H    0.023533
   153  H    0.065140
   154  H    0.063630
   155  H    0.069573
   156  H    0.065880
   157  H    0.053011
   158  H    0.068970
 Sum of Mulliken charges =  -0.00000

 Dipole moment (field-independent basis, Debye):
    X=             -6.9507    Y=              1.6107    Z=              1.4292  Tot=              7.2767
 Quadrupole moment (field-independent basis, Debye-Ang):
   XX=           -441.1999   YY=           -526.3272   ZZ=           -540.0313
   XY=             13.8260   XZ=            -33.4890   YZ=             -3.5627

 Normal termination of Gaussian 16 at Sun Sep 19 11:56:24 2021.
